;
;   File g4.5_pamam.itp  was generated
;   By user: sairam (1000)
;   On host: sairam
;   At date: Sun. August  0 16:39:43 2023
;
;   This is a standalone topology file
;
;   Created by:
;   ParmEd:       amb2gro_top_gro.py, VERSION 3.4.1
;   Executable:   amb2gro_top_gro.py
;   Library dir:  /usr/local/gromacs/share/gromacs/top
;   Command line:
;     ./amb2gro_top_gro.py -p g4.5_pamam.prmtop -c g4.5_pamam.inpcrd -t g4.5_pamam.itp -g g4.5_pamam.gro -b g4.5_pamam.pdb
;

;[ defaults ]
;; nbfunc        comb-rule       gen-pairs       fudgeLJ fudgeQQ
;1               2               yes             0.5          0.83333333  
;
;[ atomtypes ]
;; name    at.num    mass    charge ptype  sigma      epsilon
;c3             6  12.010000  0.00000000  A     0.33996695      0.4577296
;h1             1   1.008000  0.00000000  A      0.2471353      0.0656888
;n3             7  14.010000  0.00000000  A     0.32499985        0.71128
;hc             1   1.008000  0.00000000  A     0.26495328      0.0656888
;c              6  12.010000  0.00000000  A     0.33996695       0.359824
;o              8  16.000000  0.00000000  A     0.29599219        0.87864
;n              7  14.010000  0.00000000  A     0.32499985        0.71128
;hn             1   1.008000  0.00000000  A     0.10690785      0.0656888


[ moleculetype ]
; Name            nrexcl
g4.5_pamam       3

[ atoms ]
;   nr       type  resnr residue  atom   cgnr    charge       mass  typeB    chargeB      massB
; residue    1 aaa rtp aaa q -0.0
    1         c3      1    aaa     C1      1 0.02890000  12.010000   ; qtot 0.028900
    2         h1      1    aaa     H1      2 0.08460000   1.008000   ; qtot 0.113500
    3         h1      1    aaa     H2      3 0.08460000   1.008000   ; qtot 0.198100
    4         c3      1    aaa     C2      4 0.02890000  12.010000   ; qtot 0.227000
    5         h1      1    aaa     H3      5 0.08460000   1.008000   ; qtot 0.311600
    6         h1      1    aaa     H4      6 0.08460000   1.008000   ; qtot 0.396200
    7         n3      1    aaa     N1      7 -0.65770000  14.010000   ; qtot -0.261500
    8         n3      1    aaa     N2      8 -0.65770000  14.010000   ; qtot -0.919200
    9         c3      1    aaa     C3      9 0.36940000  12.010000   ; qtot -0.549800
   10         h1      1    aaa     H5     10 0.00650000   1.008000   ; qtot -0.543300
   11         h1      1    aaa     H6     11 0.00650000   1.008000   ; qtot -0.536800
   12         c3      1    aaa     C4     12 0.36940000  12.010000   ; qtot -0.167400
   13         h1      1    aaa     H7     13 0.00650000   1.008000   ; qtot -0.160900
   14         h1      1    aaa     H8     14 0.00650000   1.008000   ; qtot -0.154400
   15         c3      1    aaa     C5     15 0.36940000  12.010000   ; qtot 0.215000
   16         h1      1    aaa     H9     16 0.00650000   1.008000   ; qtot 0.221500
   17         h1      1    aaa    H10     17 0.00650000   1.008000   ; qtot 0.228000
   18         c3      1    aaa     C6     18 0.36940000  12.010000   ; qtot 0.597400
   19         h1      1    aaa    H11     19 0.00650000   1.008000   ; qtot 0.603900
   20         h1      1    aaa    H12     20 0.00650000   1.008000   ; qtot 0.610400
   21         c3      1    aaa     C7     21 -0.54350000  12.010000   ; qtot 0.066900
   22         hc      1    aaa    H13     22 0.15890000   1.008000   ; qtot 0.225800
   23         hc      1    aaa    H14     23 0.15890000   1.008000   ; qtot 0.384700
   24         c3      1    aaa     C8     24 -0.54350000  12.010000   ; qtot -0.158800
   25         hc      1    aaa    H15     25 0.15890000   1.008000   ; qtot 0.000100
   26         hc      1    aaa    H16     26 0.15890000   1.008000   ; qtot 0.159000
   27         c3      1    aaa     C9     27 -0.54350000  12.010000   ; qtot -0.384500
   28         hc      1    aaa    H17     28 0.15890000   1.008000   ; qtot -0.225600
   29         hc      1    aaa    H18     29 0.15890000   1.008000   ; qtot -0.066700
   30         c3      1    aaa    C10     30 -0.54350000  12.010000   ; qtot -0.610200
   31         hc      1    aaa    H19     31 0.15890000   1.008000   ; qtot -0.451300
   32         hc      1    aaa    H20     32 0.15890000   1.008000   ; qtot -0.292400
   33          c      1    aaa    C11     33 0.67800000  12.010000   ; qtot 0.385600
   34          c      1    aaa    C12     34 0.67800000  12.010000   ; qtot 1.063600
   35          c      1    aaa    C13     35 0.67800000  12.010000   ; qtot 1.741600
   36          c      1    aaa    C14     36 0.67800000  12.010000   ; qtot 2.419600
   37          o      1    aaa     O1     37 -0.60490000  16.000000   ; qtot 1.814700
   38          o      1    aaa     O2     38 -0.60490000  16.000000   ; qtot 1.209800
   39          o      1    aaa     O3     39 -0.60490000  16.000000   ; qtot 0.604900
   40          o      1    aaa     O4     40 -0.60490000  16.000000   ; qtot -0.000000
; residue    2 bbb rtp bbb q -0.0
   41         c3      2    bbb     C1     41 0.44180000  12.010000   ; qtot 0.441800
   42         h1      2    bbb     H1     42 -0.03530000   1.008000   ; qtot 0.406500
   43         h1      2    bbb     H2     43 -0.03530000   1.008000   ; qtot 0.371200
   44         c3      2    bbb     C2     44 -0.28250000  12.010000   ; qtot 0.088700
   45         h1      2    bbb     H3     45 0.15710000   1.008000   ; qtot 0.245800
   46         h1      2    bbb     H4     46 0.15710000   1.008000   ; qtot 0.402900
   47         n3      2    bbb     N1     47 -0.74090000  14.010000   ; qtot -0.338000
   48         c3      2    bbb     C3     48 0.51680000  12.010000   ; qtot 0.178800
   49         h1      2    bbb     H5     49 -0.05230000   1.008000   ; qtot 0.126500
   50         h1      2    bbb     H6     50 -0.05230000   1.008000   ; qtot 0.074200
   51         c3      2    bbb     C4     51 0.51680000  12.010000   ; qtot 0.591000
   52         h1      2    bbb     H7     52 -0.05230000   1.008000   ; qtot 0.538700
   53         h1      2    bbb     H8     53 -0.05230000   1.008000   ; qtot 0.486400
   54         c3      2    bbb     C5     54 -0.60390000  12.010000   ; qtot -0.117500
   55         hc      2    bbb     H9     55 0.16730000   1.008000   ; qtot 0.049800
   56         hc      2    bbb    H10     56 0.16730000   1.008000   ; qtot 0.217100
   57         c3      2    bbb     C6     57 -0.60390000  12.010000   ; qtot -0.386800
   58         hc      2    bbb    H11     58 0.16730000   1.008000   ; qtot -0.219500
   59         hc      2    bbb    H12     59 0.16730000   1.008000   ; qtot -0.052200
   60          c      2    bbb     C7     60 0.72110000  12.010000   ; qtot 0.668900
   61          c      2    bbb     C8     61 0.72110000  12.010000   ; qtot 1.390000
   62          o      2    bbb     O1     62 -0.61950000  16.000000   ; qtot 0.770500
   63          o      2    bbb     O2     63 -0.61950000  16.000000   ; qtot 0.151000
   64          n      2    bbb     N4     64 -0.46580000  14.010000   ; qtot -0.314800
   65         hn      2    bbb    H21     65 0.31480000   1.008000   ; qtot -0.000000
; residue    3 bbb rtp bbb q -0.0
   66         c3      3    bbb     C1     66 0.44180000  12.010000   ; qtot 0.441800
   67         h1      3    bbb     H1     67 -0.03530000   1.008000   ; qtot 0.406500
   68         h1      3    bbb     H2     68 -0.03530000   1.008000   ; qtot 0.371200
   69         c3      3    bbb     C2     69 -0.28250000  12.010000   ; qtot 0.088700
   70         h1      3    bbb     H3     70 0.15710000   1.008000   ; qtot 0.245800
   71         h1      3    bbb     H4     71 0.15710000   1.008000   ; qtot 0.402900
   72         n3      3    bbb     N1     72 -0.74090000  14.010000   ; qtot -0.338000
   73         c3      3    bbb     C3     73 0.51680000  12.010000   ; qtot 0.178800
   74         h1      3    bbb     H5     74 -0.05230000   1.008000   ; qtot 0.126500
   75         h1      3    bbb     H6     75 -0.05230000   1.008000   ; qtot 0.074200
   76         c3      3    bbb     C4     76 0.51680000  12.010000   ; qtot 0.591000
   77         h1      3    bbb     H7     77 -0.05230000   1.008000   ; qtot 0.538700
   78         h1      3    bbb     H8     78 -0.05230000   1.008000   ; qtot 0.486400
   79         c3      3    bbb     C5     79 -0.60390000  12.010000   ; qtot -0.117500
   80         hc      3    bbb     H9     80 0.16730000   1.008000   ; qtot 0.049800
   81         hc      3    bbb    H10     81 0.16730000   1.008000   ; qtot 0.217100
   82         c3      3    bbb     C6     82 -0.60390000  12.010000   ; qtot -0.386800
   83         hc      3    bbb    H11     83 0.16730000   1.008000   ; qtot -0.219500
   84         hc      3    bbb    H12     84 0.16730000   1.008000   ; qtot -0.052200
   85          c      3    bbb     C7     85 0.72110000  12.010000   ; qtot 0.668900
   86          c      3    bbb     C8     86 0.72110000  12.010000   ; qtot 1.390000
   87          o      3    bbb     O1     87 -0.61950000  16.000000   ; qtot 0.770500
   88          o      3    bbb     O2     88 -0.61950000  16.000000   ; qtot 0.151000
   89          n      3    bbb     N4     89 -0.46580000  14.010000   ; qtot -0.314800
   90         hn      3    bbb    H21     90 0.31480000   1.008000   ; qtot -0.000000
; residue    4 bbb rtp bbb q -0.0
   91         c3      4    bbb     C1     91 0.44180000  12.010000   ; qtot 0.441800
   92         h1      4    bbb     H1     92 -0.03530000   1.008000   ; qtot 0.406500
   93         h1      4    bbb     H2     93 -0.03530000   1.008000   ; qtot 0.371200
   94         c3      4    bbb     C2     94 -0.28250000  12.010000   ; qtot 0.088700
   95         h1      4    bbb     H3     95 0.15710000   1.008000   ; qtot 0.245800
   96         h1      4    bbb     H4     96 0.15710000   1.008000   ; qtot 0.402900
   97         n3      4    bbb     N1     97 -0.74090000  14.010000   ; qtot -0.338000
   98         c3      4    bbb     C3     98 0.51680000  12.010000   ; qtot 0.178800
   99         h1      4    bbb     H5     99 -0.05230000   1.008000   ; qtot 0.126500
  100         h1      4    bbb     H6    100 -0.05230000   1.008000   ; qtot 0.074200
  101         c3      4    bbb     C4    101 0.51680000  12.010000   ; qtot 0.591000
  102         h1      4    bbb     H7    102 -0.05230000   1.008000   ; qtot 0.538700
  103         h1      4    bbb     H8    103 -0.05230000   1.008000   ; qtot 0.486400
  104         c3      4    bbb     C5    104 -0.60390000  12.010000   ; qtot -0.117500
  105         hc      4    bbb     H9    105 0.16730000   1.008000   ; qtot 0.049800
  106         hc      4    bbb    H10    106 0.16730000   1.008000   ; qtot 0.217100
  107         c3      4    bbb     C6    107 -0.60390000  12.010000   ; qtot -0.386800
  108         hc      4    bbb    H11    108 0.16730000   1.008000   ; qtot -0.219500
  109         hc      4    bbb    H12    109 0.16730000   1.008000   ; qtot -0.052200
  110          c      4    bbb     C7    110 0.72110000  12.010000   ; qtot 0.668900
  111          c      4    bbb     C8    111 0.72110000  12.010000   ; qtot 1.390000
  112          o      4    bbb     O1    112 -0.61950000  16.000000   ; qtot 0.770500
  113          o      4    bbb     O2    113 -0.61950000  16.000000   ; qtot 0.151000
  114          n      4    bbb     N4    114 -0.46580000  14.010000   ; qtot -0.314800
  115         hn      4    bbb    H21    115 0.31480000   1.008000   ; qtot -0.000000
; residue    5 bbb rtp bbb q -0.0
  116         c3      5    bbb     C1    116 0.44180000  12.010000   ; qtot 0.441800
  117         h1      5    bbb     H1    117 -0.03530000   1.008000   ; qtot 0.406500
  118         h1      5    bbb     H2    118 -0.03530000   1.008000   ; qtot 0.371200
  119         c3      5    bbb     C2    119 -0.28250000  12.010000   ; qtot 0.088700
  120         h1      5    bbb     H3    120 0.15710000   1.008000   ; qtot 0.245800
  121         h1      5    bbb     H4    121 0.15710000   1.008000   ; qtot 0.402900
  122         n3      5    bbb     N1    122 -0.74090000  14.010000   ; qtot -0.338000
  123         c3      5    bbb     C3    123 0.51680000  12.010000   ; qtot 0.178800
  124         h1      5    bbb     H5    124 -0.05230000   1.008000   ; qtot 0.126500
  125         h1      5    bbb     H6    125 -0.05230000   1.008000   ; qtot 0.074200
  126         c3      5    bbb     C4    126 0.51680000  12.010000   ; qtot 0.591000
  127         h1      5    bbb     H7    127 -0.05230000   1.008000   ; qtot 0.538700
  128         h1      5    bbb     H8    128 -0.05230000   1.008000   ; qtot 0.486400
  129         c3      5    bbb     C5    129 -0.60390000  12.010000   ; qtot -0.117500
  130         hc      5    bbb     H9    130 0.16730000   1.008000   ; qtot 0.049800
  131         hc      5    bbb    H10    131 0.16730000   1.008000   ; qtot 0.217100
  132         c3      5    bbb     C6    132 -0.60390000  12.010000   ; qtot -0.386800
  133         hc      5    bbb    H11    133 0.16730000   1.008000   ; qtot -0.219500
  134         hc      5    bbb    H12    134 0.16730000   1.008000   ; qtot -0.052200
  135          c      5    bbb     C7    135 0.72110000  12.010000   ; qtot 0.668900
  136          c      5    bbb     C8    136 0.72110000  12.010000   ; qtot 1.390000
  137          o      5    bbb     O1    137 -0.61950000  16.000000   ; qtot 0.770500
  138          o      5    bbb     O2    138 -0.61950000  16.000000   ; qtot 0.151000
  139          n      5    bbb     N4    139 -0.46580000  14.010000   ; qtot -0.314800
  140         hn      5    bbb    H21    140 0.31480000   1.008000   ; qtot -0.000000
; residue    6 bbb rtp bbb q -0.0
  141         c3      6    bbb     C1    141 0.44180000  12.010000   ; qtot 0.441800
  142         h1      6    bbb     H1    142 -0.03530000   1.008000   ; qtot 0.406500
  143         h1      6    bbb     H2    143 -0.03530000   1.008000   ; qtot 0.371200
  144         c3      6    bbb     C2    144 -0.28250000  12.010000   ; qtot 0.088700
  145         h1      6    bbb     H3    145 0.15710000   1.008000   ; qtot 0.245800
  146         h1      6    bbb     H4    146 0.15710000   1.008000   ; qtot 0.402900
  147         n3      6    bbb     N1    147 -0.74090000  14.010000   ; qtot -0.338000
  148         c3      6    bbb     C3    148 0.51680000  12.010000   ; qtot 0.178800
  149         h1      6    bbb     H5    149 -0.05230000   1.008000   ; qtot 0.126500
  150         h1      6    bbb     H6    150 -0.05230000   1.008000   ; qtot 0.074200
  151         c3      6    bbb     C4    151 0.51680000  12.010000   ; qtot 0.591000
  152         h1      6    bbb     H7    152 -0.05230000   1.008000   ; qtot 0.538700
  153         h1      6    bbb     H8    153 -0.05230000   1.008000   ; qtot 0.486400
  154         c3      6    bbb     C5    154 -0.60390000  12.010000   ; qtot -0.117500
  155         hc      6    bbb     H9    155 0.16730000   1.008000   ; qtot 0.049800
  156         hc      6    bbb    H10    156 0.16730000   1.008000   ; qtot 0.217100
  157         c3      6    bbb     C6    157 -0.60390000  12.010000   ; qtot -0.386800
  158         hc      6    bbb    H11    158 0.16730000   1.008000   ; qtot -0.219500
  159         hc      6    bbb    H12    159 0.16730000   1.008000   ; qtot -0.052200
  160          c      6    bbb     C7    160 0.72110000  12.010000   ; qtot 0.668900
  161          c      6    bbb     C8    161 0.72110000  12.010000   ; qtot 1.390000
  162          o      6    bbb     O1    162 -0.61950000  16.000000   ; qtot 0.770500
  163          o      6    bbb     O2    163 -0.61950000  16.000000   ; qtot 0.151000
  164          n      6    bbb     N4    164 -0.46580000  14.010000   ; qtot -0.314800
  165         hn      6    bbb    H21    165 0.31480000   1.008000   ; qtot -0.000000
; residue    7 bbb rtp bbb q -0.0
  166         c3      7    bbb     C1    166 0.44180000  12.010000   ; qtot 0.441800
  167         h1      7    bbb     H1    167 -0.03530000   1.008000   ; qtot 0.406500
  168         h1      7    bbb     H2    168 -0.03530000   1.008000   ; qtot 0.371200
  169         c3      7    bbb     C2    169 -0.28250000  12.010000   ; qtot 0.088700
  170         h1      7    bbb     H3    170 0.15710000   1.008000   ; qtot 0.245800
  171         h1      7    bbb     H4    171 0.15710000   1.008000   ; qtot 0.402900
  172         n3      7    bbb     N1    172 -0.74090000  14.010000   ; qtot -0.338000
  173         c3      7    bbb     C3    173 0.51680000  12.010000   ; qtot 0.178800
  174         h1      7    bbb     H5    174 -0.05230000   1.008000   ; qtot 0.126500
  175         h1      7    bbb     H6    175 -0.05230000   1.008000   ; qtot 0.074200
  176         c3      7    bbb     C4    176 0.51680000  12.010000   ; qtot 0.591000
  177         h1      7    bbb     H7    177 -0.05230000   1.008000   ; qtot 0.538700
  178         h1      7    bbb     H8    178 -0.05230000   1.008000   ; qtot 0.486400
  179         c3      7    bbb     C5    179 -0.60390000  12.010000   ; qtot -0.117500
  180         hc      7    bbb     H9    180 0.16730000   1.008000   ; qtot 0.049800
  181         hc      7    bbb    H10    181 0.16730000   1.008000   ; qtot 0.217100
  182         c3      7    bbb     C6    182 -0.60390000  12.010000   ; qtot -0.386800
  183         hc      7    bbb    H11    183 0.16730000   1.008000   ; qtot -0.219500
  184         hc      7    bbb    H12    184 0.16730000   1.008000   ; qtot -0.052200
  185          c      7    bbb     C7    185 0.72110000  12.010000   ; qtot 0.668900
  186          c      7    bbb     C8    186 0.72110000  12.010000   ; qtot 1.390000
  187          o      7    bbb     O1    187 -0.61950000  16.000000   ; qtot 0.770500
  188          o      7    bbb     O2    188 -0.61950000  16.000000   ; qtot 0.151000
  189          n      7    bbb     N4    189 -0.46580000  14.010000   ; qtot -0.314800
  190         hn      7    bbb    H21    190 0.31480000   1.008000   ; qtot -0.000000
; residue    8 bbb rtp bbb q -0.0
  191         c3      8    bbb     C1    191 0.44180000  12.010000   ; qtot 0.441800
  192         h1      8    bbb     H1    192 -0.03530000   1.008000   ; qtot 0.406500
  193         h1      8    bbb     H2    193 -0.03530000   1.008000   ; qtot 0.371200
  194         c3      8    bbb     C2    194 -0.28250000  12.010000   ; qtot 0.088700
  195         h1      8    bbb     H3    195 0.15710000   1.008000   ; qtot 0.245800
  196         h1      8    bbb     H4    196 0.15710000   1.008000   ; qtot 0.402900
  197         n3      8    bbb     N1    197 -0.74090000  14.010000   ; qtot -0.338000
  198         c3      8    bbb     C3    198 0.51680000  12.010000   ; qtot 0.178800
  199         h1      8    bbb     H5    199 -0.05230000   1.008000   ; qtot 0.126500
  200         h1      8    bbb     H6    200 -0.05230000   1.008000   ; qtot 0.074200
  201         c3      8    bbb     C4    201 0.51680000  12.010000   ; qtot 0.591000
  202         h1      8    bbb     H7    202 -0.05230000   1.008000   ; qtot 0.538700
  203         h1      8    bbb     H8    203 -0.05230000   1.008000   ; qtot 0.486400
  204         c3      8    bbb     C5    204 -0.60390000  12.010000   ; qtot -0.117500
  205         hc      8    bbb     H9    205 0.16730000   1.008000   ; qtot 0.049800
  206         hc      8    bbb    H10    206 0.16730000   1.008000   ; qtot 0.217100
  207         c3      8    bbb     C6    207 -0.60390000  12.010000   ; qtot -0.386800
  208         hc      8    bbb    H11    208 0.16730000   1.008000   ; qtot -0.219500
  209         hc      8    bbb    H12    209 0.16730000   1.008000   ; qtot -0.052200
  210          c      8    bbb     C7    210 0.72110000  12.010000   ; qtot 0.668900
  211          c      8    bbb     C8    211 0.72110000  12.010000   ; qtot 1.390000
  212          o      8    bbb     O1    212 -0.61950000  16.000000   ; qtot 0.770500
  213          o      8    bbb     O2    213 -0.61950000  16.000000   ; qtot 0.151000
  214          n      8    bbb     N4    214 -0.46580000  14.010000   ; qtot -0.314800
  215         hn      8    bbb    H21    215 0.31480000   1.008000   ; qtot -0.000000
; residue    9 bbb rtp bbb q -0.0
  216         c3      9    bbb     C1    216 0.44180000  12.010000   ; qtot 0.441800
  217         h1      9    bbb     H1    217 -0.03530000   1.008000   ; qtot 0.406500
  218         h1      9    bbb     H2    218 -0.03530000   1.008000   ; qtot 0.371200
  219         c3      9    bbb     C2    219 -0.28250000  12.010000   ; qtot 0.088700
  220         h1      9    bbb     H3    220 0.15710000   1.008000   ; qtot 0.245800
  221         h1      9    bbb     H4    221 0.15710000   1.008000   ; qtot 0.402900
  222         n3      9    bbb     N1    222 -0.74090000  14.010000   ; qtot -0.338000
  223         c3      9    bbb     C3    223 0.51680000  12.010000   ; qtot 0.178800
  224         h1      9    bbb     H5    224 -0.05230000   1.008000   ; qtot 0.126500
  225         h1      9    bbb     H6    225 -0.05230000   1.008000   ; qtot 0.074200
  226         c3      9    bbb     C4    226 0.51680000  12.010000   ; qtot 0.591000
  227         h1      9    bbb     H7    227 -0.05230000   1.008000   ; qtot 0.538700
  228         h1      9    bbb     H8    228 -0.05230000   1.008000   ; qtot 0.486400
  229         c3      9    bbb     C5    229 -0.60390000  12.010000   ; qtot -0.117500
  230         hc      9    bbb     H9    230 0.16730000   1.008000   ; qtot 0.049800
  231         hc      9    bbb    H10    231 0.16730000   1.008000   ; qtot 0.217100
  232         c3      9    bbb     C6    232 -0.60390000  12.010000   ; qtot -0.386800
  233         hc      9    bbb    H11    233 0.16730000   1.008000   ; qtot -0.219500
  234         hc      9    bbb    H12    234 0.16730000   1.008000   ; qtot -0.052200
  235          c      9    bbb     C7    235 0.72110000  12.010000   ; qtot 0.668900
  236          c      9    bbb     C8    236 0.72110000  12.010000   ; qtot 1.390000
  237          o      9    bbb     O1    237 -0.61950000  16.000000   ; qtot 0.770500
  238          o      9    bbb     O2    238 -0.61950000  16.000000   ; qtot 0.151000
  239          n      9    bbb     N4    239 -0.46580000  14.010000   ; qtot -0.314800
  240         hn      9    bbb    H21    240 0.31480000   1.008000   ; qtot -0.000000
; residue   10 bbb rtp bbb q -0.0
  241         c3     10    bbb     C1    241 0.44180000  12.010000   ; qtot 0.441800
  242         h1     10    bbb     H1    242 -0.03530000   1.008000   ; qtot 0.406500
  243         h1     10    bbb     H2    243 -0.03530000   1.008000   ; qtot 0.371200
  244         c3     10    bbb     C2    244 -0.28250000  12.010000   ; qtot 0.088700
  245         h1     10    bbb     H3    245 0.15710000   1.008000   ; qtot 0.245800
  246         h1     10    bbb     H4    246 0.15710000   1.008000   ; qtot 0.402900
  247         n3     10    bbb     N1    247 -0.74090000  14.010000   ; qtot -0.338000
  248         c3     10    bbb     C3    248 0.51680000  12.010000   ; qtot 0.178800
  249         h1     10    bbb     H5    249 -0.05230000   1.008000   ; qtot 0.126500
  250         h1     10    bbb     H6    250 -0.05230000   1.008000   ; qtot 0.074200
  251         c3     10    bbb     C4    251 0.51680000  12.010000   ; qtot 0.591000
  252         h1     10    bbb     H7    252 -0.05230000   1.008000   ; qtot 0.538700
  253         h1     10    bbb     H8    253 -0.05230000   1.008000   ; qtot 0.486400
  254         c3     10    bbb     C5    254 -0.60390000  12.010000   ; qtot -0.117500
  255         hc     10    bbb     H9    255 0.16730000   1.008000   ; qtot 0.049800
  256         hc     10    bbb    H10    256 0.16730000   1.008000   ; qtot 0.217100
  257         c3     10    bbb     C6    257 -0.60390000  12.010000   ; qtot -0.386800
  258         hc     10    bbb    H11    258 0.16730000   1.008000   ; qtot -0.219500
  259         hc     10    bbb    H12    259 0.16730000   1.008000   ; qtot -0.052200
  260          c     10    bbb     C7    260 0.72110000  12.010000   ; qtot 0.668900
  261          c     10    bbb     C8    261 0.72110000  12.010000   ; qtot 1.390000
  262          o     10    bbb     O1    262 -0.61950000  16.000000   ; qtot 0.770500
  263          o     10    bbb     O2    263 -0.61950000  16.000000   ; qtot 0.151000
  264          n     10    bbb     N4    264 -0.46580000  14.010000   ; qtot -0.314800
  265         hn     10    bbb    H21    265 0.31480000   1.008000   ; qtot -0.000000
; residue   11 bbb rtp bbb q -0.0
  266         c3     11    bbb     C1    266 0.44180000  12.010000   ; qtot 0.441800
  267         h1     11    bbb     H1    267 -0.03530000   1.008000   ; qtot 0.406500
  268         h1     11    bbb     H2    268 -0.03530000   1.008000   ; qtot 0.371200
  269         c3     11    bbb     C2    269 -0.28250000  12.010000   ; qtot 0.088700
  270         h1     11    bbb     H3    270 0.15710000   1.008000   ; qtot 0.245800
  271         h1     11    bbb     H4    271 0.15710000   1.008000   ; qtot 0.402900
  272         n3     11    bbb     N1    272 -0.74090000  14.010000   ; qtot -0.338000
  273         c3     11    bbb     C3    273 0.51680000  12.010000   ; qtot 0.178800
  274         h1     11    bbb     H5    274 -0.05230000   1.008000   ; qtot 0.126500
  275         h1     11    bbb     H6    275 -0.05230000   1.008000   ; qtot 0.074200
  276         c3     11    bbb     C4    276 0.51680000  12.010000   ; qtot 0.591000
  277         h1     11    bbb     H7    277 -0.05230000   1.008000   ; qtot 0.538700
  278         h1     11    bbb     H8    278 -0.05230000   1.008000   ; qtot 0.486400
  279         c3     11    bbb     C5    279 -0.60390000  12.010000   ; qtot -0.117500
  280         hc     11    bbb     H9    280 0.16730000   1.008000   ; qtot 0.049800
  281         hc     11    bbb    H10    281 0.16730000   1.008000   ; qtot 0.217100
  282         c3     11    bbb     C6    282 -0.60390000  12.010000   ; qtot -0.386800
  283         hc     11    bbb    H11    283 0.16730000   1.008000   ; qtot -0.219500
  284         hc     11    bbb    H12    284 0.16730000   1.008000   ; qtot -0.052200
  285          c     11    bbb     C7    285 0.72110000  12.010000   ; qtot 0.668900
  286          c     11    bbb     C8    286 0.72110000  12.010000   ; qtot 1.390000
  287          o     11    bbb     O1    287 -0.61950000  16.000000   ; qtot 0.770500
  288          o     11    bbb     O2    288 -0.61950000  16.000000   ; qtot 0.151000
  289          n     11    bbb     N4    289 -0.46580000  14.010000   ; qtot -0.314800
  290         hn     11    bbb    H21    290 0.31480000   1.008000   ; qtot -0.000000
; residue   12 bbb rtp bbb q -0.0
  291         c3     12    bbb     C1    291 0.44180000  12.010000   ; qtot 0.441800
  292         h1     12    bbb     H1    292 -0.03530000   1.008000   ; qtot 0.406500
  293         h1     12    bbb     H2    293 -0.03530000   1.008000   ; qtot 0.371200
  294         c3     12    bbb     C2    294 -0.28250000  12.010000   ; qtot 0.088700
  295         h1     12    bbb     H3    295 0.15710000   1.008000   ; qtot 0.245800
  296         h1     12    bbb     H4    296 0.15710000   1.008000   ; qtot 0.402900
  297         n3     12    bbb     N1    297 -0.74090000  14.010000   ; qtot -0.338000
  298         c3     12    bbb     C3    298 0.51680000  12.010000   ; qtot 0.178800
  299         h1     12    bbb     H5    299 -0.05230000   1.008000   ; qtot 0.126500
  300         h1     12    bbb     H6    300 -0.05230000   1.008000   ; qtot 0.074200
  301         c3     12    bbb     C4    301 0.51680000  12.010000   ; qtot 0.591000
  302         h1     12    bbb     H7    302 -0.05230000   1.008000   ; qtot 0.538700
  303         h1     12    bbb     H8    303 -0.05230000   1.008000   ; qtot 0.486400
  304         c3     12    bbb     C5    304 -0.60390000  12.010000   ; qtot -0.117500
  305         hc     12    bbb     H9    305 0.16730000   1.008000   ; qtot 0.049800
  306         hc     12    bbb    H10    306 0.16730000   1.008000   ; qtot 0.217100
  307         c3     12    bbb     C6    307 -0.60390000  12.010000   ; qtot -0.386800
  308         hc     12    bbb    H11    308 0.16730000   1.008000   ; qtot -0.219500
  309         hc     12    bbb    H12    309 0.16730000   1.008000   ; qtot -0.052200
  310          c     12    bbb     C7    310 0.72110000  12.010000   ; qtot 0.668900
  311          c     12    bbb     C8    311 0.72110000  12.010000   ; qtot 1.390000
  312          o     12    bbb     O1    312 -0.61950000  16.000000   ; qtot 0.770500
  313          o     12    bbb     O2    313 -0.61950000  16.000000   ; qtot 0.151000
  314          n     12    bbb     N4    314 -0.46580000  14.010000   ; qtot -0.314800
  315         hn     12    bbb    H21    315 0.31480000   1.008000   ; qtot -0.000000
; residue   13 bbb rtp bbb q -0.0
  316         c3     13    bbb     C1    316 0.44180000  12.010000   ; qtot 0.441800
  317         h1     13    bbb     H1    317 -0.03530000   1.008000   ; qtot 0.406500
  318         h1     13    bbb     H2    318 -0.03530000   1.008000   ; qtot 0.371200
  319         c3     13    bbb     C2    319 -0.28250000  12.010000   ; qtot 0.088700
  320         h1     13    bbb     H3    320 0.15710000   1.008000   ; qtot 0.245800
  321         h1     13    bbb     H4    321 0.15710000   1.008000   ; qtot 0.402900
  322         n3     13    bbb     N1    322 -0.74090000  14.010000   ; qtot -0.338000
  323         c3     13    bbb     C3    323 0.51680000  12.010000   ; qtot 0.178800
  324         h1     13    bbb     H5    324 -0.05230000   1.008000   ; qtot 0.126500
  325         h1     13    bbb     H6    325 -0.05230000   1.008000   ; qtot 0.074200
  326         c3     13    bbb     C4    326 0.51680000  12.010000   ; qtot 0.591000
  327         h1     13    bbb     H7    327 -0.05230000   1.008000   ; qtot 0.538700
  328         h1     13    bbb     H8    328 -0.05230000   1.008000   ; qtot 0.486400
  329         c3     13    bbb     C5    329 -0.60390000  12.010000   ; qtot -0.117500
  330         hc     13    bbb     H9    330 0.16730000   1.008000   ; qtot 0.049800
  331         hc     13    bbb    H10    331 0.16730000   1.008000   ; qtot 0.217100
  332         c3     13    bbb     C6    332 -0.60390000  12.010000   ; qtot -0.386800
  333         hc     13    bbb    H11    333 0.16730000   1.008000   ; qtot -0.219500
  334         hc     13    bbb    H12    334 0.16730000   1.008000   ; qtot -0.052200
  335          c     13    bbb     C7    335 0.72110000  12.010000   ; qtot 0.668900
  336          c     13    bbb     C8    336 0.72110000  12.010000   ; qtot 1.390000
  337          o     13    bbb     O1    337 -0.61950000  16.000000   ; qtot 0.770500
  338          o     13    bbb     O2    338 -0.61950000  16.000000   ; qtot 0.151000
  339          n     13    bbb     N4    339 -0.46580000  14.010000   ; qtot -0.314800
  340         hn     13    bbb    H21    340 0.31480000   1.008000   ; qtot -0.000000
; residue   14 bbb rtp bbb q -0.0
  341         c3     14    bbb     C1    341 0.44180000  12.010000   ; qtot 0.441800
  342         h1     14    bbb     H1    342 -0.03530000   1.008000   ; qtot 0.406500
  343         h1     14    bbb     H2    343 -0.03530000   1.008000   ; qtot 0.371200
  344         c3     14    bbb     C2    344 -0.28250000  12.010000   ; qtot 0.088700
  345         h1     14    bbb     H3    345 0.15710000   1.008000   ; qtot 0.245800
  346         h1     14    bbb     H4    346 0.15710000   1.008000   ; qtot 0.402900
  347         n3     14    bbb     N1    347 -0.74090000  14.010000   ; qtot -0.338000
  348         c3     14    bbb     C3    348 0.51680000  12.010000   ; qtot 0.178800
  349         h1     14    bbb     H5    349 -0.05230000   1.008000   ; qtot 0.126500
  350         h1     14    bbb     H6    350 -0.05230000   1.008000   ; qtot 0.074200
  351         c3     14    bbb     C4    351 0.51680000  12.010000   ; qtot 0.591000
  352         h1     14    bbb     H7    352 -0.05230000   1.008000   ; qtot 0.538700
  353         h1     14    bbb     H8    353 -0.05230000   1.008000   ; qtot 0.486400
  354         c3     14    bbb     C5    354 -0.60390000  12.010000   ; qtot -0.117500
  355         hc     14    bbb     H9    355 0.16730000   1.008000   ; qtot 0.049800
  356         hc     14    bbb    H10    356 0.16730000   1.008000   ; qtot 0.217100
  357         c3     14    bbb     C6    357 -0.60390000  12.010000   ; qtot -0.386800
  358         hc     14    bbb    H11    358 0.16730000   1.008000   ; qtot -0.219500
  359         hc     14    bbb    H12    359 0.16730000   1.008000   ; qtot -0.052200
  360          c     14    bbb     C7    360 0.72110000  12.010000   ; qtot 0.668900
  361          c     14    bbb     C8    361 0.72110000  12.010000   ; qtot 1.390000
  362          o     14    bbb     O1    362 -0.61950000  16.000000   ; qtot 0.770500
  363          o     14    bbb     O2    363 -0.61950000  16.000000   ; qtot 0.151000
  364          n     14    bbb     N4    364 -0.46580000  14.010000   ; qtot -0.314800
  365         hn     14    bbb    H21    365 0.31480000   1.008000   ; qtot -0.000000
; residue   15 bbb rtp bbb q -0.0
  366         c3     15    bbb     C1    366 0.44180000  12.010000   ; qtot 0.441800
  367         h1     15    bbb     H1    367 -0.03530000   1.008000   ; qtot 0.406500
  368         h1     15    bbb     H2    368 -0.03530000   1.008000   ; qtot 0.371200
  369         c3     15    bbb     C2    369 -0.28250000  12.010000   ; qtot 0.088700
  370         h1     15    bbb     H3    370 0.15710000   1.008000   ; qtot 0.245800
  371         h1     15    bbb     H4    371 0.15710000   1.008000   ; qtot 0.402900
  372         n3     15    bbb     N1    372 -0.74090000  14.010000   ; qtot -0.338000
  373         c3     15    bbb     C3    373 0.51680000  12.010000   ; qtot 0.178800
  374         h1     15    bbb     H5    374 -0.05230000   1.008000   ; qtot 0.126500
  375         h1     15    bbb     H6    375 -0.05230000   1.008000   ; qtot 0.074200
  376         c3     15    bbb     C4    376 0.51680000  12.010000   ; qtot 0.591000
  377         h1     15    bbb     H7    377 -0.05230000   1.008000   ; qtot 0.538700
  378         h1     15    bbb     H8    378 -0.05230000   1.008000   ; qtot 0.486400
  379         c3     15    bbb     C5    379 -0.60390000  12.010000   ; qtot -0.117500
  380         hc     15    bbb     H9    380 0.16730000   1.008000   ; qtot 0.049800
  381         hc     15    bbb    H10    381 0.16730000   1.008000   ; qtot 0.217100
  382         c3     15    bbb     C6    382 -0.60390000  12.010000   ; qtot -0.386800
  383         hc     15    bbb    H11    383 0.16730000   1.008000   ; qtot -0.219500
  384         hc     15    bbb    H12    384 0.16730000   1.008000   ; qtot -0.052200
  385          c     15    bbb     C7    385 0.72110000  12.010000   ; qtot 0.668900
  386          c     15    bbb     C8    386 0.72110000  12.010000   ; qtot 1.390000
  387          o     15    bbb     O1    387 -0.61950000  16.000000   ; qtot 0.770500
  388          o     15    bbb     O2    388 -0.61950000  16.000000   ; qtot 0.151000
  389          n     15    bbb     N4    389 -0.46580000  14.010000   ; qtot -0.314800
  390         hn     15    bbb    H21    390 0.31480000   1.008000   ; qtot -0.000000
; residue   16 bbb rtp bbb q -0.0
  391         c3     16    bbb     C1    391 0.44180000  12.010000   ; qtot 0.441800
  392         h1     16    bbb     H1    392 -0.03530000   1.008000   ; qtot 0.406500
  393         h1     16    bbb     H2    393 -0.03530000   1.008000   ; qtot 0.371200
  394         c3     16    bbb     C2    394 -0.28250000  12.010000   ; qtot 0.088700
  395         h1     16    bbb     H3    395 0.15710000   1.008000   ; qtot 0.245800
  396         h1     16    bbb     H4    396 0.15710000   1.008000   ; qtot 0.402900
  397         n3     16    bbb     N1    397 -0.74090000  14.010000   ; qtot -0.338000
  398         c3     16    bbb     C3    398 0.51680000  12.010000   ; qtot 0.178800
  399         h1     16    bbb     H5    399 -0.05230000   1.008000   ; qtot 0.126500
  400         h1     16    bbb     H6    400 -0.05230000   1.008000   ; qtot 0.074200
  401         c3     16    bbb     C4    401 0.51680000  12.010000   ; qtot 0.591000
  402         h1     16    bbb     H7    402 -0.05230000   1.008000   ; qtot 0.538700
  403         h1     16    bbb     H8    403 -0.05230000   1.008000   ; qtot 0.486400
  404         c3     16    bbb     C5    404 -0.60390000  12.010000   ; qtot -0.117500
  405         hc     16    bbb     H9    405 0.16730000   1.008000   ; qtot 0.049800
  406         hc     16    bbb    H10    406 0.16730000   1.008000   ; qtot 0.217100
  407         c3     16    bbb     C6    407 -0.60390000  12.010000   ; qtot -0.386800
  408         hc     16    bbb    H11    408 0.16730000   1.008000   ; qtot -0.219500
  409         hc     16    bbb    H12    409 0.16730000   1.008000   ; qtot -0.052200
  410          c     16    bbb     C7    410 0.72110000  12.010000   ; qtot 0.668900
  411          c     16    bbb     C8    411 0.72110000  12.010000   ; qtot 1.390000
  412          o     16    bbb     O1    412 -0.61950000  16.000000   ; qtot 0.770500
  413          o     16    bbb     O2    413 -0.61950000  16.000000   ; qtot 0.151000
  414          n     16    bbb     N4    414 -0.46580000  14.010000   ; qtot -0.314800
  415         hn     16    bbb    H21    415 0.31480000   1.008000   ; qtot -0.000000
; residue   17 bbb rtp bbb q -0.0
  416         c3     17    bbb     C1    416 0.44180000  12.010000   ; qtot 0.441800
  417         h1     17    bbb     H1    417 -0.03530000   1.008000   ; qtot 0.406500
  418         h1     17    bbb     H2    418 -0.03530000   1.008000   ; qtot 0.371200
  419         c3     17    bbb     C2    419 -0.28250000  12.010000   ; qtot 0.088700
  420         h1     17    bbb     H3    420 0.15710000   1.008000   ; qtot 0.245800
  421         h1     17    bbb     H4    421 0.15710000   1.008000   ; qtot 0.402900
  422         n3     17    bbb     N1    422 -0.74090000  14.010000   ; qtot -0.338000
  423         c3     17    bbb     C3    423 0.51680000  12.010000   ; qtot 0.178800
  424         h1     17    bbb     H5    424 -0.05230000   1.008000   ; qtot 0.126500
  425         h1     17    bbb     H6    425 -0.05230000   1.008000   ; qtot 0.074200
  426         c3     17    bbb     C4    426 0.51680000  12.010000   ; qtot 0.591000
  427         h1     17    bbb     H7    427 -0.05230000   1.008000   ; qtot 0.538700
  428         h1     17    bbb     H8    428 -0.05230000   1.008000   ; qtot 0.486400
  429         c3     17    bbb     C5    429 -0.60390000  12.010000   ; qtot -0.117500
  430         hc     17    bbb     H9    430 0.16730000   1.008000   ; qtot 0.049800
  431         hc     17    bbb    H10    431 0.16730000   1.008000   ; qtot 0.217100
  432         c3     17    bbb     C6    432 -0.60390000  12.010000   ; qtot -0.386800
  433         hc     17    bbb    H11    433 0.16730000   1.008000   ; qtot -0.219500
  434         hc     17    bbb    H12    434 0.16730000   1.008000   ; qtot -0.052200
  435          c     17    bbb     C7    435 0.72110000  12.010000   ; qtot 0.668900
  436          c     17    bbb     C8    436 0.72110000  12.010000   ; qtot 1.390000
  437          o     17    bbb     O1    437 -0.61950000  16.000000   ; qtot 0.770500
  438          o     17    bbb     O2    438 -0.61950000  16.000000   ; qtot 0.151000
  439          n     17    bbb     N4    439 -0.46580000  14.010000   ; qtot -0.314800
  440         hn     17    bbb    H21    440 0.31480000   1.008000   ; qtot -0.000000
; residue   18 bbb rtp bbb q -0.0
  441         c3     18    bbb     C1    441 0.44180000  12.010000   ; qtot 0.441800
  442         h1     18    bbb     H1    442 -0.03530000   1.008000   ; qtot 0.406500
  443         h1     18    bbb     H2    443 -0.03530000   1.008000   ; qtot 0.371200
  444         c3     18    bbb     C2    444 -0.28250000  12.010000   ; qtot 0.088700
  445         h1     18    bbb     H3    445 0.15710000   1.008000   ; qtot 0.245800
  446         h1     18    bbb     H4    446 0.15710000   1.008000   ; qtot 0.402900
  447         n3     18    bbb     N1    447 -0.74090000  14.010000   ; qtot -0.338000
  448         c3     18    bbb     C3    448 0.51680000  12.010000   ; qtot 0.178800
  449         h1     18    bbb     H5    449 -0.05230000   1.008000   ; qtot 0.126500
  450         h1     18    bbb     H6    450 -0.05230000   1.008000   ; qtot 0.074200
  451         c3     18    bbb     C4    451 0.51680000  12.010000   ; qtot 0.591000
  452         h1     18    bbb     H7    452 -0.05230000   1.008000   ; qtot 0.538700
  453         h1     18    bbb     H8    453 -0.05230000   1.008000   ; qtot 0.486400
  454         c3     18    bbb     C5    454 -0.60390000  12.010000   ; qtot -0.117500
  455         hc     18    bbb     H9    455 0.16730000   1.008000   ; qtot 0.049800
  456         hc     18    bbb    H10    456 0.16730000   1.008000   ; qtot 0.217100
  457         c3     18    bbb     C6    457 -0.60390000  12.010000   ; qtot -0.386800
  458         hc     18    bbb    H11    458 0.16730000   1.008000   ; qtot -0.219500
  459         hc     18    bbb    H12    459 0.16730000   1.008000   ; qtot -0.052200
  460          c     18    bbb     C7    460 0.72110000  12.010000   ; qtot 0.668900
  461          c     18    bbb     C8    461 0.72110000  12.010000   ; qtot 1.390000
  462          o     18    bbb     O1    462 -0.61950000  16.000000   ; qtot 0.770500
  463          o     18    bbb     O2    463 -0.61950000  16.000000   ; qtot 0.151000
  464          n     18    bbb     N4    464 -0.46580000  14.010000   ; qtot -0.314800
  465         hn     18    bbb    H21    465 0.31480000   1.008000   ; qtot -0.000000
; residue   19 bbb rtp bbb q -0.0
  466         c3     19    bbb     C1    466 0.44180000  12.010000   ; qtot 0.441800
  467         h1     19    bbb     H1    467 -0.03530000   1.008000   ; qtot 0.406500
  468         h1     19    bbb     H2    468 -0.03530000   1.008000   ; qtot 0.371200
  469         c3     19    bbb     C2    469 -0.28250000  12.010000   ; qtot 0.088700
  470         h1     19    bbb     H3    470 0.15710000   1.008000   ; qtot 0.245800
  471         h1     19    bbb     H4    471 0.15710000   1.008000   ; qtot 0.402900
  472         n3     19    bbb     N1    472 -0.74090000  14.010000   ; qtot -0.338000
  473         c3     19    bbb     C3    473 0.51680000  12.010000   ; qtot 0.178800
  474         h1     19    bbb     H5    474 -0.05230000   1.008000   ; qtot 0.126500
  475         h1     19    bbb     H6    475 -0.05230000   1.008000   ; qtot 0.074200
  476         c3     19    bbb     C4    476 0.51680000  12.010000   ; qtot 0.591000
  477         h1     19    bbb     H7    477 -0.05230000   1.008000   ; qtot 0.538700
  478         h1     19    bbb     H8    478 -0.05230000   1.008000   ; qtot 0.486400
  479         c3     19    bbb     C5    479 -0.60390000  12.010000   ; qtot -0.117500
  480         hc     19    bbb     H9    480 0.16730000   1.008000   ; qtot 0.049800
  481         hc     19    bbb    H10    481 0.16730000   1.008000   ; qtot 0.217100
  482         c3     19    bbb     C6    482 -0.60390000  12.010000   ; qtot -0.386800
  483         hc     19    bbb    H11    483 0.16730000   1.008000   ; qtot -0.219500
  484         hc     19    bbb    H12    484 0.16730000   1.008000   ; qtot -0.052200
  485          c     19    bbb     C7    485 0.72110000  12.010000   ; qtot 0.668900
  486          c     19    bbb     C8    486 0.72110000  12.010000   ; qtot 1.390000
  487          o     19    bbb     O1    487 -0.61950000  16.000000   ; qtot 0.770500
  488          o     19    bbb     O2    488 -0.61950000  16.000000   ; qtot 0.151000
  489          n     19    bbb     N4    489 -0.46580000  14.010000   ; qtot -0.314800
  490         hn     19    bbb    H21    490 0.31480000   1.008000   ; qtot -0.000000
; residue   20 bbb rtp bbb q -0.0
  491         c3     20    bbb     C1    491 0.44180000  12.010000   ; qtot 0.441800
  492         h1     20    bbb     H1    492 -0.03530000   1.008000   ; qtot 0.406500
  493         h1     20    bbb     H2    493 -0.03530000   1.008000   ; qtot 0.371200
  494         c3     20    bbb     C2    494 -0.28250000  12.010000   ; qtot 0.088700
  495         h1     20    bbb     H3    495 0.15710000   1.008000   ; qtot 0.245800
  496         h1     20    bbb     H4    496 0.15710000   1.008000   ; qtot 0.402900
  497         n3     20    bbb     N1    497 -0.74090000  14.010000   ; qtot -0.338000
  498         c3     20    bbb     C3    498 0.51680000  12.010000   ; qtot 0.178800
  499         h1     20    bbb     H5    499 -0.05230000   1.008000   ; qtot 0.126500
  500         h1     20    bbb     H6    500 -0.05230000   1.008000   ; qtot 0.074200
  501         c3     20    bbb     C4    501 0.51680000  12.010000   ; qtot 0.591000
  502         h1     20    bbb     H7    502 -0.05230000   1.008000   ; qtot 0.538700
  503         h1     20    bbb     H8    503 -0.05230000   1.008000   ; qtot 0.486400
  504         c3     20    bbb     C5    504 -0.60390000  12.010000   ; qtot -0.117500
  505         hc     20    bbb     H9    505 0.16730000   1.008000   ; qtot 0.049800
  506         hc     20    bbb    H10    506 0.16730000   1.008000   ; qtot 0.217100
  507         c3     20    bbb     C6    507 -0.60390000  12.010000   ; qtot -0.386800
  508         hc     20    bbb    H11    508 0.16730000   1.008000   ; qtot -0.219500
  509         hc     20    bbb    H12    509 0.16730000   1.008000   ; qtot -0.052200
  510          c     20    bbb     C7    510 0.72110000  12.010000   ; qtot 0.668900
  511          c     20    bbb     C8    511 0.72110000  12.010000   ; qtot 1.390000
  512          o     20    bbb     O1    512 -0.61950000  16.000000   ; qtot 0.770500
  513          o     20    bbb     O2    513 -0.61950000  16.000000   ; qtot 0.151000
  514          n     20    bbb     N4    514 -0.46580000  14.010000   ; qtot -0.314800
  515         hn     20    bbb    H21    515 0.31480000   1.008000   ; qtot -0.000000
; residue   21 bbb rtp bbb q -0.0
  516         c3     21    bbb     C1    516 0.44180000  12.010000   ; qtot 0.441800
  517         h1     21    bbb     H1    517 -0.03530000   1.008000   ; qtot 0.406500
  518         h1     21    bbb     H2    518 -0.03530000   1.008000   ; qtot 0.371200
  519         c3     21    bbb     C2    519 -0.28250000  12.010000   ; qtot 0.088700
  520         h1     21    bbb     H3    520 0.15710000   1.008000   ; qtot 0.245800
  521         h1     21    bbb     H4    521 0.15710000   1.008000   ; qtot 0.402900
  522         n3     21    bbb     N1    522 -0.74090000  14.010000   ; qtot -0.338000
  523         c3     21    bbb     C3    523 0.51680000  12.010000   ; qtot 0.178800
  524         h1     21    bbb     H5    524 -0.05230000   1.008000   ; qtot 0.126500
  525         h1     21    bbb     H6    525 -0.05230000   1.008000   ; qtot 0.074200
  526         c3     21    bbb     C4    526 0.51680000  12.010000   ; qtot 0.591000
  527         h1     21    bbb     H7    527 -0.05230000   1.008000   ; qtot 0.538700
  528         h1     21    bbb     H8    528 -0.05230000   1.008000   ; qtot 0.486400
  529         c3     21    bbb     C5    529 -0.60390000  12.010000   ; qtot -0.117500
  530         hc     21    bbb     H9    530 0.16730000   1.008000   ; qtot 0.049800
  531         hc     21    bbb    H10    531 0.16730000   1.008000   ; qtot 0.217100
  532         c3     21    bbb     C6    532 -0.60390000  12.010000   ; qtot -0.386800
  533         hc     21    bbb    H11    533 0.16730000   1.008000   ; qtot -0.219500
  534         hc     21    bbb    H12    534 0.16730000   1.008000   ; qtot -0.052200
  535          c     21    bbb     C7    535 0.72110000  12.010000   ; qtot 0.668900
  536          c     21    bbb     C8    536 0.72110000  12.010000   ; qtot 1.390000
  537          o     21    bbb     O1    537 -0.61950000  16.000000   ; qtot 0.770500
  538          o     21    bbb     O2    538 -0.61950000  16.000000   ; qtot 0.151000
  539          n     21    bbb     N4    539 -0.46580000  14.010000   ; qtot -0.314800
  540         hn     21    bbb    H21    540 0.31480000   1.008000   ; qtot -0.000000
; residue   22 bbb rtp bbb q -0.0
  541         c3     22    bbb     C1    541 0.44180000  12.010000   ; qtot 0.441800
  542         h1     22    bbb     H1    542 -0.03530000   1.008000   ; qtot 0.406500
  543         h1     22    bbb     H2    543 -0.03530000   1.008000   ; qtot 0.371200
  544         c3     22    bbb     C2    544 -0.28250000  12.010000   ; qtot 0.088700
  545         h1     22    bbb     H3    545 0.15710000   1.008000   ; qtot 0.245800
  546         h1     22    bbb     H4    546 0.15710000   1.008000   ; qtot 0.402900
  547         n3     22    bbb     N1    547 -0.74090000  14.010000   ; qtot -0.338000
  548         c3     22    bbb     C3    548 0.51680000  12.010000   ; qtot 0.178800
  549         h1     22    bbb     H5    549 -0.05230000   1.008000   ; qtot 0.126500
  550         h1     22    bbb     H6    550 -0.05230000   1.008000   ; qtot 0.074200
  551         c3     22    bbb     C4    551 0.51680000  12.010000   ; qtot 0.591000
  552         h1     22    bbb     H7    552 -0.05230000   1.008000   ; qtot 0.538700
  553         h1     22    bbb     H8    553 -0.05230000   1.008000   ; qtot 0.486400
  554         c3     22    bbb     C5    554 -0.60390000  12.010000   ; qtot -0.117500
  555         hc     22    bbb     H9    555 0.16730000   1.008000   ; qtot 0.049800
  556         hc     22    bbb    H10    556 0.16730000   1.008000   ; qtot 0.217100
  557         c3     22    bbb     C6    557 -0.60390000  12.010000   ; qtot -0.386800
  558         hc     22    bbb    H11    558 0.16730000   1.008000   ; qtot -0.219500
  559         hc     22    bbb    H12    559 0.16730000   1.008000   ; qtot -0.052200
  560          c     22    bbb     C7    560 0.72110000  12.010000   ; qtot 0.668900
  561          c     22    bbb     C8    561 0.72110000  12.010000   ; qtot 1.390000
  562          o     22    bbb     O1    562 -0.61950000  16.000000   ; qtot 0.770500
  563          o     22    bbb     O2    563 -0.61950000  16.000000   ; qtot 0.151000
  564          n     22    bbb     N4    564 -0.46580000  14.010000   ; qtot -0.314800
  565         hn     22    bbb    H21    565 0.31480000   1.008000   ; qtot -0.000000
; residue   23 bbb rtp bbb q -0.0
  566         c3     23    bbb     C1    566 0.44180000  12.010000   ; qtot 0.441800
  567         h1     23    bbb     H1    567 -0.03530000   1.008000   ; qtot 0.406500
  568         h1     23    bbb     H2    568 -0.03530000   1.008000   ; qtot 0.371200
  569         c3     23    bbb     C2    569 -0.28250000  12.010000   ; qtot 0.088700
  570         h1     23    bbb     H3    570 0.15710000   1.008000   ; qtot 0.245800
  571         h1     23    bbb     H4    571 0.15710000   1.008000   ; qtot 0.402900
  572         n3     23    bbb     N1    572 -0.74090000  14.010000   ; qtot -0.338000
  573         c3     23    bbb     C3    573 0.51680000  12.010000   ; qtot 0.178800
  574         h1     23    bbb     H5    574 -0.05230000   1.008000   ; qtot 0.126500
  575         h1     23    bbb     H6    575 -0.05230000   1.008000   ; qtot 0.074200
  576         c3     23    bbb     C4    576 0.51680000  12.010000   ; qtot 0.591000
  577         h1     23    bbb     H7    577 -0.05230000   1.008000   ; qtot 0.538700
  578         h1     23    bbb     H8    578 -0.05230000   1.008000   ; qtot 0.486400
  579         c3     23    bbb     C5    579 -0.60390000  12.010000   ; qtot -0.117500
  580         hc     23    bbb     H9    580 0.16730000   1.008000   ; qtot 0.049800
  581         hc     23    bbb    H10    581 0.16730000   1.008000   ; qtot 0.217100
  582         c3     23    bbb     C6    582 -0.60390000  12.010000   ; qtot -0.386800
  583         hc     23    bbb    H11    583 0.16730000   1.008000   ; qtot -0.219500
  584         hc     23    bbb    H12    584 0.16730000   1.008000   ; qtot -0.052200
  585          c     23    bbb     C7    585 0.72110000  12.010000   ; qtot 0.668900
  586          c     23    bbb     C8    586 0.72110000  12.010000   ; qtot 1.390000
  587          o     23    bbb     O1    587 -0.61950000  16.000000   ; qtot 0.770500
  588          o     23    bbb     O2    588 -0.61950000  16.000000   ; qtot 0.151000
  589          n     23    bbb     N4    589 -0.46580000  14.010000   ; qtot -0.314800
  590         hn     23    bbb    H21    590 0.31480000   1.008000   ; qtot -0.000000
; residue   24 bbb rtp bbb q -0.0
  591         c3     24    bbb     C1    591 0.44180000  12.010000   ; qtot 0.441800
  592         h1     24    bbb     H1    592 -0.03530000   1.008000   ; qtot 0.406500
  593         h1     24    bbb     H2    593 -0.03530000   1.008000   ; qtot 0.371200
  594         c3     24    bbb     C2    594 -0.28250000  12.010000   ; qtot 0.088700
  595         h1     24    bbb     H3    595 0.15710000   1.008000   ; qtot 0.245800
  596         h1     24    bbb     H4    596 0.15710000   1.008000   ; qtot 0.402900
  597         n3     24    bbb     N1    597 -0.74090000  14.010000   ; qtot -0.338000
  598         c3     24    bbb     C3    598 0.51680000  12.010000   ; qtot 0.178800
  599         h1     24    bbb     H5    599 -0.05230000   1.008000   ; qtot 0.126500
  600         h1     24    bbb     H6    600 -0.05230000   1.008000   ; qtot 0.074200
  601         c3     24    bbb     C4    601 0.51680000  12.010000   ; qtot 0.591000
  602         h1     24    bbb     H7    602 -0.05230000   1.008000   ; qtot 0.538700
  603         h1     24    bbb     H8    603 -0.05230000   1.008000   ; qtot 0.486400
  604         c3     24    bbb     C5    604 -0.60390000  12.010000   ; qtot -0.117500
  605         hc     24    bbb     H9    605 0.16730000   1.008000   ; qtot 0.049800
  606         hc     24    bbb    H10    606 0.16730000   1.008000   ; qtot 0.217100
  607         c3     24    bbb     C6    607 -0.60390000  12.010000   ; qtot -0.386800
  608         hc     24    bbb    H11    608 0.16730000   1.008000   ; qtot -0.219500
  609         hc     24    bbb    H12    609 0.16730000   1.008000   ; qtot -0.052200
  610          c     24    bbb     C7    610 0.72110000  12.010000   ; qtot 0.668900
  611          c     24    bbb     C8    611 0.72110000  12.010000   ; qtot 1.390000
  612          o     24    bbb     O1    612 -0.61950000  16.000000   ; qtot 0.770500
  613          o     24    bbb     O2    613 -0.61950000  16.000000   ; qtot 0.151000
  614          n     24    bbb     N4    614 -0.46580000  14.010000   ; qtot -0.314800
  615         hn     24    bbb    H21    615 0.31480000   1.008000   ; qtot -0.000000
; residue   25 bbb rtp bbb q -0.0
  616         c3     25    bbb     C1    616 0.44180000  12.010000   ; qtot 0.441800
  617         h1     25    bbb     H1    617 -0.03530000   1.008000   ; qtot 0.406500
  618         h1     25    bbb     H2    618 -0.03530000   1.008000   ; qtot 0.371200
  619         c3     25    bbb     C2    619 -0.28250000  12.010000   ; qtot 0.088700
  620         h1     25    bbb     H3    620 0.15710000   1.008000   ; qtot 0.245800
  621         h1     25    bbb     H4    621 0.15710000   1.008000   ; qtot 0.402900
  622         n3     25    bbb     N1    622 -0.74090000  14.010000   ; qtot -0.338000
  623         c3     25    bbb     C3    623 0.51680000  12.010000   ; qtot 0.178800
  624         h1     25    bbb     H5    624 -0.05230000   1.008000   ; qtot 0.126500
  625         h1     25    bbb     H6    625 -0.05230000   1.008000   ; qtot 0.074200
  626         c3     25    bbb     C4    626 0.51680000  12.010000   ; qtot 0.591000
  627         h1     25    bbb     H7    627 -0.05230000   1.008000   ; qtot 0.538700
  628         h1     25    bbb     H8    628 -0.05230000   1.008000   ; qtot 0.486400
  629         c3     25    bbb     C5    629 -0.60390000  12.010000   ; qtot -0.117500
  630         hc     25    bbb     H9    630 0.16730000   1.008000   ; qtot 0.049800
  631         hc     25    bbb    H10    631 0.16730000   1.008000   ; qtot 0.217100
  632         c3     25    bbb     C6    632 -0.60390000  12.010000   ; qtot -0.386800
  633         hc     25    bbb    H11    633 0.16730000   1.008000   ; qtot -0.219500
  634         hc     25    bbb    H12    634 0.16730000   1.008000   ; qtot -0.052200
  635          c     25    bbb     C7    635 0.72110000  12.010000   ; qtot 0.668900
  636          c     25    bbb     C8    636 0.72110000  12.010000   ; qtot 1.390000
  637          o     25    bbb     O1    637 -0.61950000  16.000000   ; qtot 0.770500
  638          o     25    bbb     O2    638 -0.61950000  16.000000   ; qtot 0.151000
  639          n     25    bbb     N4    639 -0.46580000  14.010000   ; qtot -0.314800
  640         hn     25    bbb    H21    640 0.31480000   1.008000   ; qtot -0.000000
; residue   26 bbb rtp bbb q -0.0
  641         c3     26    bbb     C1    641 0.44180000  12.010000   ; qtot 0.441800
  642         h1     26    bbb     H1    642 -0.03530000   1.008000   ; qtot 0.406500
  643         h1     26    bbb     H2    643 -0.03530000   1.008000   ; qtot 0.371200
  644         c3     26    bbb     C2    644 -0.28250000  12.010000   ; qtot 0.088700
  645         h1     26    bbb     H3    645 0.15710000   1.008000   ; qtot 0.245800
  646         h1     26    bbb     H4    646 0.15710000   1.008000   ; qtot 0.402900
  647         n3     26    bbb     N1    647 -0.74090000  14.010000   ; qtot -0.338000
  648         c3     26    bbb     C3    648 0.51680000  12.010000   ; qtot 0.178800
  649         h1     26    bbb     H5    649 -0.05230000   1.008000   ; qtot 0.126500
  650         h1     26    bbb     H6    650 -0.05230000   1.008000   ; qtot 0.074200
  651         c3     26    bbb     C4    651 0.51680000  12.010000   ; qtot 0.591000
  652         h1     26    bbb     H7    652 -0.05230000   1.008000   ; qtot 0.538700
  653         h1     26    bbb     H8    653 -0.05230000   1.008000   ; qtot 0.486400
  654         c3     26    bbb     C5    654 -0.60390000  12.010000   ; qtot -0.117500
  655         hc     26    bbb     H9    655 0.16730000   1.008000   ; qtot 0.049800
  656         hc     26    bbb    H10    656 0.16730000   1.008000   ; qtot 0.217100
  657         c3     26    bbb     C6    657 -0.60390000  12.010000   ; qtot -0.386800
  658         hc     26    bbb    H11    658 0.16730000   1.008000   ; qtot -0.219500
  659         hc     26    bbb    H12    659 0.16730000   1.008000   ; qtot -0.052200
  660          c     26    bbb     C7    660 0.72110000  12.010000   ; qtot 0.668900
  661          c     26    bbb     C8    661 0.72110000  12.010000   ; qtot 1.390000
  662          o     26    bbb     O1    662 -0.61950000  16.000000   ; qtot 0.770500
  663          o     26    bbb     O2    663 -0.61950000  16.000000   ; qtot 0.151000
  664          n     26    bbb     N4    664 -0.46580000  14.010000   ; qtot -0.314800
  665         hn     26    bbb    H21    665 0.31480000   1.008000   ; qtot -0.000000
; residue   27 bbb rtp bbb q -0.0
  666         c3     27    bbb     C1    666 0.44180000  12.010000   ; qtot 0.441800
  667         h1     27    bbb     H1    667 -0.03530000   1.008000   ; qtot 0.406500
  668         h1     27    bbb     H2    668 -0.03530000   1.008000   ; qtot 0.371200
  669         c3     27    bbb     C2    669 -0.28250000  12.010000   ; qtot 0.088700
  670         h1     27    bbb     H3    670 0.15710000   1.008000   ; qtot 0.245800
  671         h1     27    bbb     H4    671 0.15710000   1.008000   ; qtot 0.402900
  672         n3     27    bbb     N1    672 -0.74090000  14.010000   ; qtot -0.338000
  673         c3     27    bbb     C3    673 0.51680000  12.010000   ; qtot 0.178800
  674         h1     27    bbb     H5    674 -0.05230000   1.008000   ; qtot 0.126500
  675         h1     27    bbb     H6    675 -0.05230000   1.008000   ; qtot 0.074200
  676         c3     27    bbb     C4    676 0.51680000  12.010000   ; qtot 0.591000
  677         h1     27    bbb     H7    677 -0.05230000   1.008000   ; qtot 0.538700
  678         h1     27    bbb     H8    678 -0.05230000   1.008000   ; qtot 0.486400
  679         c3     27    bbb     C5    679 -0.60390000  12.010000   ; qtot -0.117500
  680         hc     27    bbb     H9    680 0.16730000   1.008000   ; qtot 0.049800
  681         hc     27    bbb    H10    681 0.16730000   1.008000   ; qtot 0.217100
  682         c3     27    bbb     C6    682 -0.60390000  12.010000   ; qtot -0.386800
  683         hc     27    bbb    H11    683 0.16730000   1.008000   ; qtot -0.219500
  684         hc     27    bbb    H12    684 0.16730000   1.008000   ; qtot -0.052200
  685          c     27    bbb     C7    685 0.72110000  12.010000   ; qtot 0.668900
  686          c     27    bbb     C8    686 0.72110000  12.010000   ; qtot 1.390000
  687          o     27    bbb     O1    687 -0.61950000  16.000000   ; qtot 0.770500
  688          o     27    bbb     O2    688 -0.61950000  16.000000   ; qtot 0.151000
  689          n     27    bbb     N4    689 -0.46580000  14.010000   ; qtot -0.314800
  690         hn     27    bbb    H21    690 0.31480000   1.008000   ; qtot -0.000000
; residue   28 bbb rtp bbb q -0.0
  691         c3     28    bbb     C1    691 0.44180000  12.010000   ; qtot 0.441800
  692         h1     28    bbb     H1    692 -0.03530000   1.008000   ; qtot 0.406500
  693         h1     28    bbb     H2    693 -0.03530000   1.008000   ; qtot 0.371200
  694         c3     28    bbb     C2    694 -0.28250000  12.010000   ; qtot 0.088700
  695         h1     28    bbb     H3    695 0.15710000   1.008000   ; qtot 0.245800
  696         h1     28    bbb     H4    696 0.15710000   1.008000   ; qtot 0.402900
  697         n3     28    bbb     N1    697 -0.74090000  14.010000   ; qtot -0.338000
  698         c3     28    bbb     C3    698 0.51680000  12.010000   ; qtot 0.178800
  699         h1     28    bbb     H5    699 -0.05230000   1.008000   ; qtot 0.126500
  700         h1     28    bbb     H6    700 -0.05230000   1.008000   ; qtot 0.074200
  701         c3     28    bbb     C4    701 0.51680000  12.010000   ; qtot 0.591000
  702         h1     28    bbb     H7    702 -0.05230000   1.008000   ; qtot 0.538700
  703         h1     28    bbb     H8    703 -0.05230000   1.008000   ; qtot 0.486400
  704         c3     28    bbb     C5    704 -0.60390000  12.010000   ; qtot -0.117500
  705         hc     28    bbb     H9    705 0.16730000   1.008000   ; qtot 0.049800
  706         hc     28    bbb    H10    706 0.16730000   1.008000   ; qtot 0.217100
  707         c3     28    bbb     C6    707 -0.60390000  12.010000   ; qtot -0.386800
  708         hc     28    bbb    H11    708 0.16730000   1.008000   ; qtot -0.219500
  709         hc     28    bbb    H12    709 0.16730000   1.008000   ; qtot -0.052200
  710          c     28    bbb     C7    710 0.72110000  12.010000   ; qtot 0.668900
  711          c     28    bbb     C8    711 0.72110000  12.010000   ; qtot 1.390000
  712          o     28    bbb     O1    712 -0.61950000  16.000000   ; qtot 0.770500
  713          o     28    bbb     O2    713 -0.61950000  16.000000   ; qtot 0.151000
  714          n     28    bbb     N4    714 -0.46580000  14.010000   ; qtot -0.314800
  715         hn     28    bbb    H21    715 0.31480000   1.008000   ; qtot -0.000000
; residue   29 bbb rtp bbb q -0.0
  716         c3     29    bbb     C1    716 0.44180000  12.010000   ; qtot 0.441800
  717         h1     29    bbb     H1    717 -0.03530000   1.008000   ; qtot 0.406500
  718         h1     29    bbb     H2    718 -0.03530000   1.008000   ; qtot 0.371200
  719         c3     29    bbb     C2    719 -0.28250000  12.010000   ; qtot 0.088700
  720         h1     29    bbb     H3    720 0.15710000   1.008000   ; qtot 0.245800
  721         h1     29    bbb     H4    721 0.15710000   1.008000   ; qtot 0.402900
  722         n3     29    bbb     N1    722 -0.74090000  14.010000   ; qtot -0.338000
  723         c3     29    bbb     C3    723 0.51680000  12.010000   ; qtot 0.178800
  724         h1     29    bbb     H5    724 -0.05230000   1.008000   ; qtot 0.126500
  725         h1     29    bbb     H6    725 -0.05230000   1.008000   ; qtot 0.074200
  726         c3     29    bbb     C4    726 0.51680000  12.010000   ; qtot 0.591000
  727         h1     29    bbb     H7    727 -0.05230000   1.008000   ; qtot 0.538700
  728         h1     29    bbb     H8    728 -0.05230000   1.008000   ; qtot 0.486400
  729         c3     29    bbb     C5    729 -0.60390000  12.010000   ; qtot -0.117500
  730         hc     29    bbb     H9    730 0.16730000   1.008000   ; qtot 0.049800
  731         hc     29    bbb    H10    731 0.16730000   1.008000   ; qtot 0.217100
  732         c3     29    bbb     C6    732 -0.60390000  12.010000   ; qtot -0.386800
  733         hc     29    bbb    H11    733 0.16730000   1.008000   ; qtot -0.219500
  734         hc     29    bbb    H12    734 0.16730000   1.008000   ; qtot -0.052200
  735          c     29    bbb     C7    735 0.72110000  12.010000   ; qtot 0.668900
  736          c     29    bbb     C8    736 0.72110000  12.010000   ; qtot 1.390000
  737          o     29    bbb     O1    737 -0.61950000  16.000000   ; qtot 0.770500
  738          o     29    bbb     O2    738 -0.61950000  16.000000   ; qtot 0.151000
  739          n     29    bbb     N4    739 -0.46580000  14.010000   ; qtot -0.314800
  740         hn     29    bbb    H21    740 0.31480000   1.008000   ; qtot -0.000000
; residue   30 bbb rtp bbb q -0.0
  741         c3     30    bbb     C1    741 0.44180000  12.010000   ; qtot 0.441800
  742         h1     30    bbb     H1    742 -0.03530000   1.008000   ; qtot 0.406500
  743         h1     30    bbb     H2    743 -0.03530000   1.008000   ; qtot 0.371200
  744         c3     30    bbb     C2    744 -0.28250000  12.010000   ; qtot 0.088700
  745         h1     30    bbb     H3    745 0.15710000   1.008000   ; qtot 0.245800
  746         h1     30    bbb     H4    746 0.15710000   1.008000   ; qtot 0.402900
  747         n3     30    bbb     N1    747 -0.74090000  14.010000   ; qtot -0.338000
  748         c3     30    bbb     C3    748 0.51680000  12.010000   ; qtot 0.178800
  749         h1     30    bbb     H5    749 -0.05230000   1.008000   ; qtot 0.126500
  750         h1     30    bbb     H6    750 -0.05230000   1.008000   ; qtot 0.074200
  751         c3     30    bbb     C4    751 0.51680000  12.010000   ; qtot 0.591000
  752         h1     30    bbb     H7    752 -0.05230000   1.008000   ; qtot 0.538700
  753         h1     30    bbb     H8    753 -0.05230000   1.008000   ; qtot 0.486400
  754         c3     30    bbb     C5    754 -0.60390000  12.010000   ; qtot -0.117500
  755         hc     30    bbb     H9    755 0.16730000   1.008000   ; qtot 0.049800
  756         hc     30    bbb    H10    756 0.16730000   1.008000   ; qtot 0.217100
  757         c3     30    bbb     C6    757 -0.60390000  12.010000   ; qtot -0.386800
  758         hc     30    bbb    H11    758 0.16730000   1.008000   ; qtot -0.219500
  759         hc     30    bbb    H12    759 0.16730000   1.008000   ; qtot -0.052200
  760          c     30    bbb     C7    760 0.72110000  12.010000   ; qtot 0.668900
  761          c     30    bbb     C8    761 0.72110000  12.010000   ; qtot 1.390000
  762          o     30    bbb     O1    762 -0.61950000  16.000000   ; qtot 0.770500
  763          o     30    bbb     O2    763 -0.61950000  16.000000   ; qtot 0.151000
  764          n     30    bbb     N4    764 -0.46580000  14.010000   ; qtot -0.314800
  765         hn     30    bbb    H21    765 0.31480000   1.008000   ; qtot -0.000000
; residue   31 bbb rtp bbb q -0.0
  766         c3     31    bbb     C1    766 0.44180000  12.010000   ; qtot 0.441800
  767         h1     31    bbb     H1    767 -0.03530000   1.008000   ; qtot 0.406500
  768         h1     31    bbb     H2    768 -0.03530000   1.008000   ; qtot 0.371200
  769         c3     31    bbb     C2    769 -0.28250000  12.010000   ; qtot 0.088700
  770         h1     31    bbb     H3    770 0.15710000   1.008000   ; qtot 0.245800
  771         h1     31    bbb     H4    771 0.15710000   1.008000   ; qtot 0.402900
  772         n3     31    bbb     N1    772 -0.74090000  14.010000   ; qtot -0.338000
  773         c3     31    bbb     C3    773 0.51680000  12.010000   ; qtot 0.178800
  774         h1     31    bbb     H5    774 -0.05230000   1.008000   ; qtot 0.126500
  775         h1     31    bbb     H6    775 -0.05230000   1.008000   ; qtot 0.074200
  776         c3     31    bbb     C4    776 0.51680000  12.010000   ; qtot 0.591000
  777         h1     31    bbb     H7    777 -0.05230000   1.008000   ; qtot 0.538700
  778         h1     31    bbb     H8    778 -0.05230000   1.008000   ; qtot 0.486400
  779         c3     31    bbb     C5    779 -0.60390000  12.010000   ; qtot -0.117500
  780         hc     31    bbb     H9    780 0.16730000   1.008000   ; qtot 0.049800
  781         hc     31    bbb    H10    781 0.16730000   1.008000   ; qtot 0.217100
  782         c3     31    bbb     C6    782 -0.60390000  12.010000   ; qtot -0.386800
  783         hc     31    bbb    H11    783 0.16730000   1.008000   ; qtot -0.219500
  784         hc     31    bbb    H12    784 0.16730000   1.008000   ; qtot -0.052200
  785          c     31    bbb     C7    785 0.72110000  12.010000   ; qtot 0.668900
  786          c     31    bbb     C8    786 0.72110000  12.010000   ; qtot 1.390000
  787          o     31    bbb     O1    787 -0.61950000  16.000000   ; qtot 0.770500
  788          o     31    bbb     O2    788 -0.61950000  16.000000   ; qtot 0.151000
  789          n     31    bbb     N4    789 -0.46580000  14.010000   ; qtot -0.314800
  790         hn     31    bbb    H21    790 0.31480000   1.008000   ; qtot -0.000000
; residue   32 bbb rtp bbb q -0.0
  791         c3     32    bbb     C1    791 0.44180000  12.010000   ; qtot 0.441800
  792         h1     32    bbb     H1    792 -0.03530000   1.008000   ; qtot 0.406500
  793         h1     32    bbb     H2    793 -0.03530000   1.008000   ; qtot 0.371200
  794         c3     32    bbb     C2    794 -0.28250000  12.010000   ; qtot 0.088700
  795         h1     32    bbb     H3    795 0.15710000   1.008000   ; qtot 0.245800
  796         h1     32    bbb     H4    796 0.15710000   1.008000   ; qtot 0.402900
  797         n3     32    bbb     N1    797 -0.74090000  14.010000   ; qtot -0.338000
  798         c3     32    bbb     C3    798 0.51680000  12.010000   ; qtot 0.178800
  799         h1     32    bbb     H5    799 -0.05230000   1.008000   ; qtot 0.126500
  800         h1     32    bbb     H6    800 -0.05230000   1.008000   ; qtot 0.074200
  801         c3     32    bbb     C4    801 0.51680000  12.010000   ; qtot 0.591000
  802         h1     32    bbb     H7    802 -0.05230000   1.008000   ; qtot 0.538700
  803         h1     32    bbb     H8    803 -0.05230000   1.008000   ; qtot 0.486400
  804         c3     32    bbb     C5    804 -0.60390000  12.010000   ; qtot -0.117500
  805         hc     32    bbb     H9    805 0.16730000   1.008000   ; qtot 0.049800
  806         hc     32    bbb    H10    806 0.16730000   1.008000   ; qtot 0.217100
  807         c3     32    bbb     C6    807 -0.60390000  12.010000   ; qtot -0.386800
  808         hc     32    bbb    H11    808 0.16730000   1.008000   ; qtot -0.219500
  809         hc     32    bbb    H12    809 0.16730000   1.008000   ; qtot -0.052200
  810          c     32    bbb     C7    810 0.72110000  12.010000   ; qtot 0.668900
  811          c     32    bbb     C8    811 0.72110000  12.010000   ; qtot 1.390000
  812          o     32    bbb     O1    812 -0.61950000  16.000000   ; qtot 0.770500
  813          o     32    bbb     O2    813 -0.61950000  16.000000   ; qtot 0.151000
  814          n     32    bbb     N4    814 -0.46580000  14.010000   ; qtot -0.314800
  815         hn     32    bbb    H21    815 0.31480000   1.008000   ; qtot -0.000000
; residue   33 bbb rtp bbb q -0.0
  816         c3     33    bbb     C1    816 0.44180000  12.010000   ; qtot 0.441800
  817         h1     33    bbb     H1    817 -0.03530000   1.008000   ; qtot 0.406500
  818         h1     33    bbb     H2    818 -0.03530000   1.008000   ; qtot 0.371200
  819         c3     33    bbb     C2    819 -0.28250000  12.010000   ; qtot 0.088700
  820         h1     33    bbb     H3    820 0.15710000   1.008000   ; qtot 0.245800
  821         h1     33    bbb     H4    821 0.15710000   1.008000   ; qtot 0.402900
  822         n3     33    bbb     N1    822 -0.74090000  14.010000   ; qtot -0.338000
  823         c3     33    bbb     C3    823 0.51680000  12.010000   ; qtot 0.178800
  824         h1     33    bbb     H5    824 -0.05230000   1.008000   ; qtot 0.126500
  825         h1     33    bbb     H6    825 -0.05230000   1.008000   ; qtot 0.074200
  826         c3     33    bbb     C4    826 0.51680000  12.010000   ; qtot 0.591000
  827         h1     33    bbb     H7    827 -0.05230000   1.008000   ; qtot 0.538700
  828         h1     33    bbb     H8    828 -0.05230000   1.008000   ; qtot 0.486400
  829         c3     33    bbb     C5    829 -0.60390000  12.010000   ; qtot -0.117500
  830         hc     33    bbb     H9    830 0.16730000   1.008000   ; qtot 0.049800
  831         hc     33    bbb    H10    831 0.16730000   1.008000   ; qtot 0.217100
  832         c3     33    bbb     C6    832 -0.60390000  12.010000   ; qtot -0.386800
  833         hc     33    bbb    H11    833 0.16730000   1.008000   ; qtot -0.219500
  834         hc     33    bbb    H12    834 0.16730000   1.008000   ; qtot -0.052200
  835          c     33    bbb     C7    835 0.72110000  12.010000   ; qtot 0.668900
  836          c     33    bbb     C8    836 0.72110000  12.010000   ; qtot 1.390000
  837          o     33    bbb     O1    837 -0.61950000  16.000000   ; qtot 0.770500
  838          o     33    bbb     O2    838 -0.61950000  16.000000   ; qtot 0.151000
  839          n     33    bbb     N4    839 -0.46580000  14.010000   ; qtot -0.314800
  840         hn     33    bbb    H21    840 0.31480000   1.008000   ; qtot -0.000000
; residue   34 bbb rtp bbb q -0.0
  841         c3     34    bbb     C1    841 0.44180000  12.010000   ; qtot 0.441800
  842         h1     34    bbb     H1    842 -0.03530000   1.008000   ; qtot 0.406500
  843         h1     34    bbb     H2    843 -0.03530000   1.008000   ; qtot 0.371200
  844         c3     34    bbb     C2    844 -0.28250000  12.010000   ; qtot 0.088700
  845         h1     34    bbb     H3    845 0.15710000   1.008000   ; qtot 0.245800
  846         h1     34    bbb     H4    846 0.15710000   1.008000   ; qtot 0.402900
  847         n3     34    bbb     N1    847 -0.74090000  14.010000   ; qtot -0.338000
  848         c3     34    bbb     C3    848 0.51680000  12.010000   ; qtot 0.178800
  849         h1     34    bbb     H5    849 -0.05230000   1.008000   ; qtot 0.126500
  850         h1     34    bbb     H6    850 -0.05230000   1.008000   ; qtot 0.074200
  851         c3     34    bbb     C4    851 0.51680000  12.010000   ; qtot 0.591000
  852         h1     34    bbb     H7    852 -0.05230000   1.008000   ; qtot 0.538700
  853         h1     34    bbb     H8    853 -0.05230000   1.008000   ; qtot 0.486400
  854         c3     34    bbb     C5    854 -0.60390000  12.010000   ; qtot -0.117500
  855         hc     34    bbb     H9    855 0.16730000   1.008000   ; qtot 0.049800
  856         hc     34    bbb    H10    856 0.16730000   1.008000   ; qtot 0.217100
  857         c3     34    bbb     C6    857 -0.60390000  12.010000   ; qtot -0.386800
  858         hc     34    bbb    H11    858 0.16730000   1.008000   ; qtot -0.219500
  859         hc     34    bbb    H12    859 0.16730000   1.008000   ; qtot -0.052200
  860          c     34    bbb     C7    860 0.72110000  12.010000   ; qtot 0.668900
  861          c     34    bbb     C8    861 0.72110000  12.010000   ; qtot 1.390000
  862          o     34    bbb     O1    862 -0.61950000  16.000000   ; qtot 0.770500
  863          o     34    bbb     O2    863 -0.61950000  16.000000   ; qtot 0.151000
  864          n     34    bbb     N4    864 -0.46580000  14.010000   ; qtot -0.314800
  865         hn     34    bbb    H21    865 0.31480000   1.008000   ; qtot -0.000000
; residue   35 bbb rtp bbb q -0.0
  866         c3     35    bbb     C1    866 0.44180000  12.010000   ; qtot 0.441800
  867         h1     35    bbb     H1    867 -0.03530000   1.008000   ; qtot 0.406500
  868         h1     35    bbb     H2    868 -0.03530000   1.008000   ; qtot 0.371200
  869         c3     35    bbb     C2    869 -0.28250000  12.010000   ; qtot 0.088700
  870         h1     35    bbb     H3    870 0.15710000   1.008000   ; qtot 0.245800
  871         h1     35    bbb     H4    871 0.15710000   1.008000   ; qtot 0.402900
  872         n3     35    bbb     N1    872 -0.74090000  14.010000   ; qtot -0.338000
  873         c3     35    bbb     C3    873 0.51680000  12.010000   ; qtot 0.178800
  874         h1     35    bbb     H5    874 -0.05230000   1.008000   ; qtot 0.126500
  875         h1     35    bbb     H6    875 -0.05230000   1.008000   ; qtot 0.074200
  876         c3     35    bbb     C4    876 0.51680000  12.010000   ; qtot 0.591000
  877         h1     35    bbb     H7    877 -0.05230000   1.008000   ; qtot 0.538700
  878         h1     35    bbb     H8    878 -0.05230000   1.008000   ; qtot 0.486400
  879         c3     35    bbb     C5    879 -0.60390000  12.010000   ; qtot -0.117500
  880         hc     35    bbb     H9    880 0.16730000   1.008000   ; qtot 0.049800
  881         hc     35    bbb    H10    881 0.16730000   1.008000   ; qtot 0.217100
  882         c3     35    bbb     C6    882 -0.60390000  12.010000   ; qtot -0.386800
  883         hc     35    bbb    H11    883 0.16730000   1.008000   ; qtot -0.219500
  884         hc     35    bbb    H12    884 0.16730000   1.008000   ; qtot -0.052200
  885          c     35    bbb     C7    885 0.72110000  12.010000   ; qtot 0.668900
  886          c     35    bbb     C8    886 0.72110000  12.010000   ; qtot 1.390000
  887          o     35    bbb     O1    887 -0.61950000  16.000000   ; qtot 0.770500
  888          o     35    bbb     O2    888 -0.61950000  16.000000   ; qtot 0.151000
  889          n     35    bbb     N4    889 -0.46580000  14.010000   ; qtot -0.314800
  890         hn     35    bbb    H21    890 0.31480000   1.008000   ; qtot -0.000000
; residue   36 bbb rtp bbb q -0.0
  891         c3     36    bbb     C1    891 0.44180000  12.010000   ; qtot 0.441800
  892         h1     36    bbb     H1    892 -0.03530000   1.008000   ; qtot 0.406500
  893         h1     36    bbb     H2    893 -0.03530000   1.008000   ; qtot 0.371200
  894         c3     36    bbb     C2    894 -0.28250000  12.010000   ; qtot 0.088700
  895         h1     36    bbb     H3    895 0.15710000   1.008000   ; qtot 0.245800
  896         h1     36    bbb     H4    896 0.15710000   1.008000   ; qtot 0.402900
  897         n3     36    bbb     N1    897 -0.74090000  14.010000   ; qtot -0.338000
  898         c3     36    bbb     C3    898 0.51680000  12.010000   ; qtot 0.178800
  899         h1     36    bbb     H5    899 -0.05230000   1.008000   ; qtot 0.126500
  900         h1     36    bbb     H6    900 -0.05230000   1.008000   ; qtot 0.074200
  901         c3     36    bbb     C4    901 0.51680000  12.010000   ; qtot 0.591000
  902         h1     36    bbb     H7    902 -0.05230000   1.008000   ; qtot 0.538700
  903         h1     36    bbb     H8    903 -0.05230000   1.008000   ; qtot 0.486400
  904         c3     36    bbb     C5    904 -0.60390000  12.010000   ; qtot -0.117500
  905         hc     36    bbb     H9    905 0.16730000   1.008000   ; qtot 0.049800
  906         hc     36    bbb    H10    906 0.16730000   1.008000   ; qtot 0.217100
  907         c3     36    bbb     C6    907 -0.60390000  12.010000   ; qtot -0.386800
  908         hc     36    bbb    H11    908 0.16730000   1.008000   ; qtot -0.219500
  909         hc     36    bbb    H12    909 0.16730000   1.008000   ; qtot -0.052200
  910          c     36    bbb     C7    910 0.72110000  12.010000   ; qtot 0.668900
  911          c     36    bbb     C8    911 0.72110000  12.010000   ; qtot 1.390000
  912          o     36    bbb     O1    912 -0.61950000  16.000000   ; qtot 0.770500
  913          o     36    bbb     O2    913 -0.61950000  16.000000   ; qtot 0.151000
  914          n     36    bbb     N4    914 -0.46580000  14.010000   ; qtot -0.314800
  915         hn     36    bbb    H21    915 0.31480000   1.008000   ; qtot -0.000000
; residue   37 bbb rtp bbb q -0.0
  916         c3     37    bbb     C1    916 0.44180000  12.010000   ; qtot 0.441800
  917         h1     37    bbb     H1    917 -0.03530000   1.008000   ; qtot 0.406500
  918         h1     37    bbb     H2    918 -0.03530000   1.008000   ; qtot 0.371200
  919         c3     37    bbb     C2    919 -0.28250000  12.010000   ; qtot 0.088700
  920         h1     37    bbb     H3    920 0.15710000   1.008000   ; qtot 0.245800
  921         h1     37    bbb     H4    921 0.15710000   1.008000   ; qtot 0.402900
  922         n3     37    bbb     N1    922 -0.74090000  14.010000   ; qtot -0.338000
  923         c3     37    bbb     C3    923 0.51680000  12.010000   ; qtot 0.178800
  924         h1     37    bbb     H5    924 -0.05230000   1.008000   ; qtot 0.126500
  925         h1     37    bbb     H6    925 -0.05230000   1.008000   ; qtot 0.074200
  926         c3     37    bbb     C4    926 0.51680000  12.010000   ; qtot 0.591000
  927         h1     37    bbb     H7    927 -0.05230000   1.008000   ; qtot 0.538700
  928         h1     37    bbb     H8    928 -0.05230000   1.008000   ; qtot 0.486400
  929         c3     37    bbb     C5    929 -0.60390000  12.010000   ; qtot -0.117500
  930         hc     37    bbb     H9    930 0.16730000   1.008000   ; qtot 0.049800
  931         hc     37    bbb    H10    931 0.16730000   1.008000   ; qtot 0.217100
  932         c3     37    bbb     C6    932 -0.60390000  12.010000   ; qtot -0.386800
  933         hc     37    bbb    H11    933 0.16730000   1.008000   ; qtot -0.219500
  934         hc     37    bbb    H12    934 0.16730000   1.008000   ; qtot -0.052200
  935          c     37    bbb     C7    935 0.72110000  12.010000   ; qtot 0.668900
  936          c     37    bbb     C8    936 0.72110000  12.010000   ; qtot 1.390000
  937          o     37    bbb     O1    937 -0.61950000  16.000000   ; qtot 0.770500
  938          o     37    bbb     O2    938 -0.61950000  16.000000   ; qtot 0.151000
  939          n     37    bbb     N4    939 -0.46580000  14.010000   ; qtot -0.314800
  940         hn     37    bbb    H21    940 0.31480000   1.008000   ; qtot -0.000000
; residue   38 bbb rtp bbb q -0.0
  941         c3     38    bbb     C1    941 0.44180000  12.010000   ; qtot 0.441800
  942         h1     38    bbb     H1    942 -0.03530000   1.008000   ; qtot 0.406500
  943         h1     38    bbb     H2    943 -0.03530000   1.008000   ; qtot 0.371200
  944         c3     38    bbb     C2    944 -0.28250000  12.010000   ; qtot 0.088700
  945         h1     38    bbb     H3    945 0.15710000   1.008000   ; qtot 0.245800
  946         h1     38    bbb     H4    946 0.15710000   1.008000   ; qtot 0.402900
  947         n3     38    bbb     N1    947 -0.74090000  14.010000   ; qtot -0.338001
  948         c3     38    bbb     C3    948 0.51680000  12.010000   ; qtot 0.178799
  949         h1     38    bbb     H5    949 -0.05230000   1.008000   ; qtot 0.126499
  950         h1     38    bbb     H6    950 -0.05230000   1.008000   ; qtot 0.074199
  951         c3     38    bbb     C4    951 0.51680000  12.010000   ; qtot 0.590999
  952         h1     38    bbb     H7    952 -0.05230000   1.008000   ; qtot 0.538699
  953         h1     38    bbb     H8    953 -0.05230000   1.008000   ; qtot 0.486399
  954         c3     38    bbb     C5    954 -0.60390000  12.010000   ; qtot -0.117501
  955         hc     38    bbb     H9    955 0.16730000   1.008000   ; qtot 0.049799
  956         hc     38    bbb    H10    956 0.16730000   1.008000   ; qtot 0.217099
  957         c3     38    bbb     C6    957 -0.60390000  12.010000   ; qtot -0.386801
  958         hc     38    bbb    H11    958 0.16730000   1.008000   ; qtot -0.219501
  959         hc     38    bbb    H12    959 0.16730000   1.008000   ; qtot -0.052201
  960          c     38    bbb     C7    960 0.72110000  12.010000   ; qtot 0.668899
  961          c     38    bbb     C8    961 0.72110000  12.010000   ; qtot 1.389999
  962          o     38    bbb     O1    962 -0.61950000  16.000000   ; qtot 0.770499
  963          o     38    bbb     O2    963 -0.61950000  16.000000   ; qtot 0.150999
  964          n     38    bbb     N4    964 -0.46580000  14.010000   ; qtot -0.314801
  965         hn     38    bbb    H21    965 0.31480000   1.008000   ; qtot -0.000001
; residue   39 bbb rtp bbb q -0.0
  966         c3     39    bbb     C1    966 0.44180000  12.010000   ; qtot 0.441799
  967         h1     39    bbb     H1    967 -0.03530000   1.008000   ; qtot 0.406499
  968         h1     39    bbb     H2    968 -0.03530000   1.008000   ; qtot 0.371199
  969         c3     39    bbb     C2    969 -0.28250000  12.010000   ; qtot 0.088699
  970         h1     39    bbb     H3    970 0.15710000   1.008000   ; qtot 0.245799
  971         h1     39    bbb     H4    971 0.15710000   1.008000   ; qtot 0.402899
  972         n3     39    bbb     N1    972 -0.74090000  14.010000   ; qtot -0.338001
  973         c3     39    bbb     C3    973 0.51680000  12.010000   ; qtot 0.178799
  974         h1     39    bbb     H5    974 -0.05230000   1.008000   ; qtot 0.126499
  975         h1     39    bbb     H6    975 -0.05230000   1.008000   ; qtot 0.074199
  976         c3     39    bbb     C4    976 0.51680000  12.010000   ; qtot 0.590999
  977         h1     39    bbb     H7    977 -0.05230000   1.008000   ; qtot 0.538699
  978         h1     39    bbb     H8    978 -0.05230000   1.008000   ; qtot 0.486399
  979         c3     39    bbb     C5    979 -0.60390000  12.010000   ; qtot -0.117501
  980         hc     39    bbb     H9    980 0.16730000   1.008000   ; qtot 0.049799
  981         hc     39    bbb    H10    981 0.16730000   1.008000   ; qtot 0.217099
  982         c3     39    bbb     C6    982 -0.60390000  12.010000   ; qtot -0.386801
  983         hc     39    bbb    H11    983 0.16730000   1.008000   ; qtot -0.219501
  984         hc     39    bbb    H12    984 0.16730000   1.008000   ; qtot -0.052201
  985          c     39    bbb     C7    985 0.72110000  12.010000   ; qtot 0.668899
  986          c     39    bbb     C8    986 0.72110000  12.010000   ; qtot 1.389999
  987          o     39    bbb     O1    987 -0.61950000  16.000000   ; qtot 0.770499
  988          o     39    bbb     O2    988 -0.61950000  16.000000   ; qtot 0.150999
  989          n     39    bbb     N4    989 -0.46580000  14.010000   ; qtot -0.314801
  990         hn     39    bbb    H21    990 0.31480000   1.008000   ; qtot -0.000001
; residue   40 bbb rtp bbb q -0.0
  991         c3     40    bbb     C1    991 0.44180000  12.010000   ; qtot 0.441799
  992         h1     40    bbb     H1    992 -0.03530000   1.008000   ; qtot 0.406499
  993         h1     40    bbb     H2    993 -0.03530000   1.008000   ; qtot 0.371199
  994         c3     40    bbb     C2    994 -0.28250000  12.010000   ; qtot 0.088699
  995         h1     40    bbb     H3    995 0.15710000   1.008000   ; qtot 0.245799
  996         h1     40    bbb     H4    996 0.15710000   1.008000   ; qtot 0.402899
  997         n3     40    bbb     N1    997 -0.74090000  14.010000   ; qtot -0.338001
  998         c3     40    bbb     C3    998 0.51680000  12.010000   ; qtot 0.178799
  999         h1     40    bbb     H5    999 -0.05230000   1.008000   ; qtot 0.126499
 1000         h1     40    bbb     H6   1000 -0.05230000   1.008000   ; qtot 0.074199
 1001         c3     40    bbb     C4   1001 0.51680000  12.010000   ; qtot 0.590999
 1002         h1     40    bbb     H7   1002 -0.05230000   1.008000   ; qtot 0.538699
 1003         h1     40    bbb     H8   1003 -0.05230000   1.008000   ; qtot 0.486399
 1004         c3     40    bbb     C5   1004 -0.60390000  12.010000   ; qtot -0.117501
 1005         hc     40    bbb     H9   1005 0.16730000   1.008000   ; qtot 0.049799
 1006         hc     40    bbb    H10   1006 0.16730000   1.008000   ; qtot 0.217099
 1007         c3     40    bbb     C6   1007 -0.60390000  12.010000   ; qtot -0.386801
 1008         hc     40    bbb    H11   1008 0.16730000   1.008000   ; qtot -0.219501
 1009         hc     40    bbb    H12   1009 0.16730000   1.008000   ; qtot -0.052201
 1010          c     40    bbb     C7   1010 0.72110000  12.010000   ; qtot 0.668899
 1011          c     40    bbb     C8   1011 0.72110000  12.010000   ; qtot 1.389999
 1012          o     40    bbb     O1   1012 -0.61950000  16.000000   ; qtot 0.770499
 1013          o     40    bbb     O2   1013 -0.61950000  16.000000   ; qtot 0.150999
 1014          n     40    bbb     N4   1014 -0.46580000  14.010000   ; qtot -0.314801
 1015         hn     40    bbb    H21   1015 0.31480000   1.008000   ; qtot -0.000001
; residue   41 bbb rtp bbb q -0.0
 1016         c3     41    bbb     C1   1016 0.44180000  12.010000   ; qtot 0.441799
 1017         h1     41    bbb     H1   1017 -0.03530000   1.008000   ; qtot 0.406499
 1018         h1     41    bbb     H2   1018 -0.03530000   1.008000   ; qtot 0.371199
 1019         c3     41    bbb     C2   1019 -0.28250000  12.010000   ; qtot 0.088699
 1020         h1     41    bbb     H3   1020 0.15710000   1.008000   ; qtot 0.245799
 1021         h1     41    bbb     H4   1021 0.15710000   1.008000   ; qtot 0.402899
 1022         n3     41    bbb     N1   1022 -0.74090000  14.010000   ; qtot -0.338001
 1023         c3     41    bbb     C3   1023 0.51680000  12.010000   ; qtot 0.178799
 1024         h1     41    bbb     H5   1024 -0.05230000   1.008000   ; qtot 0.126499
 1025         h1     41    bbb     H6   1025 -0.05230000   1.008000   ; qtot 0.074199
 1026         c3     41    bbb     C4   1026 0.51680000  12.010000   ; qtot 0.590999
 1027         h1     41    bbb     H7   1027 -0.05230000   1.008000   ; qtot 0.538699
 1028         h1     41    bbb     H8   1028 -0.05230000   1.008000   ; qtot 0.486399
 1029         c3     41    bbb     C5   1029 -0.60390000  12.010000   ; qtot -0.117501
 1030         hc     41    bbb     H9   1030 0.16730000   1.008000   ; qtot 0.049799
 1031         hc     41    bbb    H10   1031 0.16730000   1.008000   ; qtot 0.217099
 1032         c3     41    bbb     C6   1032 -0.60390000  12.010000   ; qtot -0.386801
 1033         hc     41    bbb    H11   1033 0.16730000   1.008000   ; qtot -0.219501
 1034         hc     41    bbb    H12   1034 0.16730000   1.008000   ; qtot -0.052201
 1035          c     41    bbb     C7   1035 0.72110000  12.010000   ; qtot 0.668899
 1036          c     41    bbb     C8   1036 0.72110000  12.010000   ; qtot 1.389999
 1037          o     41    bbb     O1   1037 -0.61950000  16.000000   ; qtot 0.770499
 1038          o     41    bbb     O2   1038 -0.61950000  16.000000   ; qtot 0.150999
 1039          n     41    bbb     N4   1039 -0.46580000  14.010000   ; qtot -0.314801
 1040         hn     41    bbb    H21   1040 0.31480000   1.008000   ; qtot -0.000001
; residue   42 bbb rtp bbb q -0.0
 1041         c3     42    bbb     C1   1041 0.44180000  12.010000   ; qtot 0.441799
 1042         h1     42    bbb     H1   1042 -0.03530000   1.008000   ; qtot 0.406499
 1043         h1     42    bbb     H2   1043 -0.03530000   1.008000   ; qtot 0.371199
 1044         c3     42    bbb     C2   1044 -0.28250000  12.010000   ; qtot 0.088699
 1045         h1     42    bbb     H3   1045 0.15710000   1.008000   ; qtot 0.245799
 1046         h1     42    bbb     H4   1046 0.15710000   1.008000   ; qtot 0.402899
 1047         n3     42    bbb     N1   1047 -0.74090000  14.010000   ; qtot -0.338001
 1048         c3     42    bbb     C3   1048 0.51680000  12.010000   ; qtot 0.178799
 1049         h1     42    bbb     H5   1049 -0.05230000   1.008000   ; qtot 0.126499
 1050         h1     42    bbb     H6   1050 -0.05230000   1.008000   ; qtot 0.074199
 1051         c3     42    bbb     C4   1051 0.51680000  12.010000   ; qtot 0.590999
 1052         h1     42    bbb     H7   1052 -0.05230000   1.008000   ; qtot 0.538699
 1053         h1     42    bbb     H8   1053 -0.05230000   1.008000   ; qtot 0.486399
 1054         c3     42    bbb     C5   1054 -0.60390000  12.010000   ; qtot -0.117501
 1055         hc     42    bbb     H9   1055 0.16730000   1.008000   ; qtot 0.049799
 1056         hc     42    bbb    H10   1056 0.16730000   1.008000   ; qtot 0.217099
 1057         c3     42    bbb     C6   1057 -0.60390000  12.010000   ; qtot -0.386801
 1058         hc     42    bbb    H11   1058 0.16730000   1.008000   ; qtot -0.219501
 1059         hc     42    bbb    H12   1059 0.16730000   1.008000   ; qtot -0.052201
 1060          c     42    bbb     C7   1060 0.72110000  12.010000   ; qtot 0.668899
 1061          c     42    bbb     C8   1061 0.72110000  12.010000   ; qtot 1.389999
 1062          o     42    bbb     O1   1062 -0.61950000  16.000000   ; qtot 0.770499
 1063          o     42    bbb     O2   1063 -0.61950000  16.000000   ; qtot 0.150999
 1064          n     42    bbb     N4   1064 -0.46580000  14.010000   ; qtot -0.314801
 1065         hn     42    bbb    H21   1065 0.31480000   1.008000   ; qtot -0.000001
; residue   43 bbb rtp bbb q -0.0
 1066         c3     43    bbb     C1   1066 0.44180000  12.010000   ; qtot 0.441799
 1067         h1     43    bbb     H1   1067 -0.03530000   1.008000   ; qtot 0.406499
 1068         h1     43    bbb     H2   1068 -0.03530000   1.008000   ; qtot 0.371199
 1069         c3     43    bbb     C2   1069 -0.28250000  12.010000   ; qtot 0.088699
 1070         h1     43    bbb     H3   1070 0.15710000   1.008000   ; qtot 0.245799
 1071         h1     43    bbb     H4   1071 0.15710000   1.008000   ; qtot 0.402899
 1072         n3     43    bbb     N1   1072 -0.74090000  14.010000   ; qtot -0.338001
 1073         c3     43    bbb     C3   1073 0.51680000  12.010000   ; qtot 0.178799
 1074         h1     43    bbb     H5   1074 -0.05230000   1.008000   ; qtot 0.126499
 1075         h1     43    bbb     H6   1075 -0.05230000   1.008000   ; qtot 0.074199
 1076         c3     43    bbb     C4   1076 0.51680000  12.010000   ; qtot 0.590999
 1077         h1     43    bbb     H7   1077 -0.05230000   1.008000   ; qtot 0.538699
 1078         h1     43    bbb     H8   1078 -0.05230000   1.008000   ; qtot 0.486399
 1079         c3     43    bbb     C5   1079 -0.60390000  12.010000   ; qtot -0.117501
 1080         hc     43    bbb     H9   1080 0.16730000   1.008000   ; qtot 0.049799
 1081         hc     43    bbb    H10   1081 0.16730000   1.008000   ; qtot 0.217099
 1082         c3     43    bbb     C6   1082 -0.60390000  12.010000   ; qtot -0.386801
 1083         hc     43    bbb    H11   1083 0.16730000   1.008000   ; qtot -0.219501
 1084         hc     43    bbb    H12   1084 0.16730000   1.008000   ; qtot -0.052201
 1085          c     43    bbb     C7   1085 0.72110000  12.010000   ; qtot 0.668899
 1086          c     43    bbb     C8   1086 0.72110000  12.010000   ; qtot 1.389999
 1087          o     43    bbb     O1   1087 -0.61950000  16.000000   ; qtot 0.770499
 1088          o     43    bbb     O2   1088 -0.61950000  16.000000   ; qtot 0.150999
 1089          n     43    bbb     N4   1089 -0.46580000  14.010000   ; qtot -0.314801
 1090         hn     43    bbb    H21   1090 0.31480000   1.008000   ; qtot -0.000001
; residue   44 bbb rtp bbb q -0.0
 1091         c3     44    bbb     C1   1091 0.44180000  12.010000   ; qtot 0.441799
 1092         h1     44    bbb     H1   1092 -0.03530000   1.008000   ; qtot 0.406499
 1093         h1     44    bbb     H2   1093 -0.03530000   1.008000   ; qtot 0.371199
 1094         c3     44    bbb     C2   1094 -0.28250000  12.010000   ; qtot 0.088699
 1095         h1     44    bbb     H3   1095 0.15710000   1.008000   ; qtot 0.245799
 1096         h1     44    bbb     H4   1096 0.15710000   1.008000   ; qtot 0.402899
 1097         n3     44    bbb     N1   1097 -0.74090000  14.010000   ; qtot -0.338001
 1098         c3     44    bbb     C3   1098 0.51680000  12.010000   ; qtot 0.178799
 1099         h1     44    bbb     H5   1099 -0.05230000   1.008000   ; qtot 0.126499
 1100         h1     44    bbb     H6   1100 -0.05230000   1.008000   ; qtot 0.074199
 1101         c3     44    bbb     C4   1101 0.51680000  12.010000   ; qtot 0.590999
 1102         h1     44    bbb     H7   1102 -0.05230000   1.008000   ; qtot 0.538699
 1103         h1     44    bbb     H8   1103 -0.05230000   1.008000   ; qtot 0.486399
 1104         c3     44    bbb     C5   1104 -0.60390000  12.010000   ; qtot -0.117501
 1105         hc     44    bbb     H9   1105 0.16730000   1.008000   ; qtot 0.049799
 1106         hc     44    bbb    H10   1106 0.16730000   1.008000   ; qtot 0.217099
 1107         c3     44    bbb     C6   1107 -0.60390000  12.010000   ; qtot -0.386801
 1108         hc     44    bbb    H11   1108 0.16730000   1.008000   ; qtot -0.219501
 1109         hc     44    bbb    H12   1109 0.16730000   1.008000   ; qtot -0.052201
 1110          c     44    bbb     C7   1110 0.72110000  12.010000   ; qtot 0.668899
 1111          c     44    bbb     C8   1111 0.72110000  12.010000   ; qtot 1.389999
 1112          o     44    bbb     O1   1112 -0.61950000  16.000000   ; qtot 0.770499
 1113          o     44    bbb     O2   1113 -0.61950000  16.000000   ; qtot 0.150999
 1114          n     44    bbb     N4   1114 -0.46580000  14.010000   ; qtot -0.314801
 1115         hn     44    bbb    H21   1115 0.31480000   1.008000   ; qtot -0.000001
; residue   45 bbb rtp bbb q -0.0
 1116         c3     45    bbb     C1   1116 0.44180000  12.010000   ; qtot 0.441799
 1117         h1     45    bbb     H1   1117 -0.03530000   1.008000   ; qtot 0.406499
 1118         h1     45    bbb     H2   1118 -0.03530000   1.008000   ; qtot 0.371199
 1119         c3     45    bbb     C2   1119 -0.28250000  12.010000   ; qtot 0.088699
 1120         h1     45    bbb     H3   1120 0.15710000   1.008000   ; qtot 0.245799
 1121         h1     45    bbb     H4   1121 0.15710000   1.008000   ; qtot 0.402899
 1122         n3     45    bbb     N1   1122 -0.74090000  14.010000   ; qtot -0.338001
 1123         c3     45    bbb     C3   1123 0.51680000  12.010000   ; qtot 0.178799
 1124         h1     45    bbb     H5   1124 -0.05230000   1.008000   ; qtot 0.126499
 1125         h1     45    bbb     H6   1125 -0.05230000   1.008000   ; qtot 0.074199
 1126         c3     45    bbb     C4   1126 0.51680000  12.010000   ; qtot 0.590999
 1127         h1     45    bbb     H7   1127 -0.05230000   1.008000   ; qtot 0.538699
 1128         h1     45    bbb     H8   1128 -0.05230000   1.008000   ; qtot 0.486399
 1129         c3     45    bbb     C5   1129 -0.60390000  12.010000   ; qtot -0.117501
 1130         hc     45    bbb     H9   1130 0.16730000   1.008000   ; qtot 0.049799
 1131         hc     45    bbb    H10   1131 0.16730000   1.008000   ; qtot 0.217099
 1132         c3     45    bbb     C6   1132 -0.60390000  12.010000   ; qtot -0.386801
 1133         hc     45    bbb    H11   1133 0.16730000   1.008000   ; qtot -0.219501
 1134         hc     45    bbb    H12   1134 0.16730000   1.008000   ; qtot -0.052201
 1135          c     45    bbb     C7   1135 0.72110000  12.010000   ; qtot 0.668899
 1136          c     45    bbb     C8   1136 0.72110000  12.010000   ; qtot 1.389999
 1137          o     45    bbb     O1   1137 -0.61950000  16.000000   ; qtot 0.770499
 1138          o     45    bbb     O2   1138 -0.61950000  16.000000   ; qtot 0.150999
 1139          n     45    bbb     N4   1139 -0.46580000  14.010000   ; qtot -0.314801
 1140         hn     45    bbb    H21   1140 0.31480000   1.008000   ; qtot -0.000001
; residue   46 bbb rtp bbb q -0.0
 1141         c3     46    bbb     C1   1141 0.44180000  12.010000   ; qtot 0.441799
 1142         h1     46    bbb     H1   1142 -0.03530000   1.008000   ; qtot 0.406499
 1143         h1     46    bbb     H2   1143 -0.03530000   1.008000   ; qtot 0.371199
 1144         c3     46    bbb     C2   1144 -0.28250000  12.010000   ; qtot 0.088699
 1145         h1     46    bbb     H3   1145 0.15710000   1.008000   ; qtot 0.245799
 1146         h1     46    bbb     H4   1146 0.15710000   1.008000   ; qtot 0.402899
 1147         n3     46    bbb     N1   1147 -0.74090000  14.010000   ; qtot -0.338001
 1148         c3     46    bbb     C3   1148 0.51680000  12.010000   ; qtot 0.178799
 1149         h1     46    bbb     H5   1149 -0.05230000   1.008000   ; qtot 0.126499
 1150         h1     46    bbb     H6   1150 -0.05230000   1.008000   ; qtot 0.074199
 1151         c3     46    bbb     C4   1151 0.51680000  12.010000   ; qtot 0.590999
 1152         h1     46    bbb     H7   1152 -0.05230000   1.008000   ; qtot 0.538699
 1153         h1     46    bbb     H8   1153 -0.05230000   1.008000   ; qtot 0.486399
 1154         c3     46    bbb     C5   1154 -0.60390000  12.010000   ; qtot -0.117501
 1155         hc     46    bbb     H9   1155 0.16730000   1.008000   ; qtot 0.049799
 1156         hc     46    bbb    H10   1156 0.16730000   1.008000   ; qtot 0.217099
 1157         c3     46    bbb     C6   1157 -0.60390000  12.010000   ; qtot -0.386801
 1158         hc     46    bbb    H11   1158 0.16730000   1.008000   ; qtot -0.219501
 1159         hc     46    bbb    H12   1159 0.16730000   1.008000   ; qtot -0.052201
 1160          c     46    bbb     C7   1160 0.72110000  12.010000   ; qtot 0.668899
 1161          c     46    bbb     C8   1161 0.72110000  12.010000   ; qtot 1.389999
 1162          o     46    bbb     O1   1162 -0.61950000  16.000000   ; qtot 0.770499
 1163          o     46    bbb     O2   1163 -0.61950000  16.000000   ; qtot 0.150999
 1164          n     46    bbb     N4   1164 -0.46580000  14.010000   ; qtot -0.314801
 1165         hn     46    bbb    H21   1165 0.31480000   1.008000   ; qtot -0.000001
; residue   47 bbb rtp bbb q -0.0
 1166         c3     47    bbb     C1   1166 0.44180000  12.010000   ; qtot 0.441799
 1167         h1     47    bbb     H1   1167 -0.03530000   1.008000   ; qtot 0.406499
 1168         h1     47    bbb     H2   1168 -0.03530000   1.008000   ; qtot 0.371199
 1169         c3     47    bbb     C2   1169 -0.28250000  12.010000   ; qtot 0.088699
 1170         h1     47    bbb     H3   1170 0.15710000   1.008000   ; qtot 0.245799
 1171         h1     47    bbb     H4   1171 0.15710000   1.008000   ; qtot 0.402899
 1172         n3     47    bbb     N1   1172 -0.74090000  14.010000   ; qtot -0.338001
 1173         c3     47    bbb     C3   1173 0.51680000  12.010000   ; qtot 0.178799
 1174         h1     47    bbb     H5   1174 -0.05230000   1.008000   ; qtot 0.126499
 1175         h1     47    bbb     H6   1175 -0.05230000   1.008000   ; qtot 0.074199
 1176         c3     47    bbb     C4   1176 0.51680000  12.010000   ; qtot 0.590999
 1177         h1     47    bbb     H7   1177 -0.05230000   1.008000   ; qtot 0.538699
 1178         h1     47    bbb     H8   1178 -0.05230000   1.008000   ; qtot 0.486399
 1179         c3     47    bbb     C5   1179 -0.60390000  12.010000   ; qtot -0.117501
 1180         hc     47    bbb     H9   1180 0.16730000   1.008000   ; qtot 0.049799
 1181         hc     47    bbb    H10   1181 0.16730000   1.008000   ; qtot 0.217099
 1182         c3     47    bbb     C6   1182 -0.60390000  12.010000   ; qtot -0.386801
 1183         hc     47    bbb    H11   1183 0.16730000   1.008000   ; qtot -0.219501
 1184         hc     47    bbb    H12   1184 0.16730000   1.008000   ; qtot -0.052201
 1185          c     47    bbb     C7   1185 0.72110000  12.010000   ; qtot 0.668899
 1186          c     47    bbb     C8   1186 0.72110000  12.010000   ; qtot 1.389999
 1187          o     47    bbb     O1   1187 -0.61950000  16.000000   ; qtot 0.770499
 1188          o     47    bbb     O2   1188 -0.61950000  16.000000   ; qtot 0.150999
 1189          n     47    bbb     N4   1189 -0.46580000  14.010000   ; qtot -0.314801
 1190         hn     47    bbb    H21   1190 0.31480000   1.008000   ; qtot -0.000001
; residue   48 bbb rtp bbb q -0.0
 1191         c3     48    bbb     C1   1191 0.44180000  12.010000   ; qtot 0.441799
 1192         h1     48    bbb     H1   1192 -0.03530000   1.008000   ; qtot 0.406499
 1193         h1     48    bbb     H2   1193 -0.03530000   1.008000   ; qtot 0.371199
 1194         c3     48    bbb     C2   1194 -0.28250000  12.010000   ; qtot 0.088699
 1195         h1     48    bbb     H3   1195 0.15710000   1.008000   ; qtot 0.245799
 1196         h1     48    bbb     H4   1196 0.15710000   1.008000   ; qtot 0.402899
 1197         n3     48    bbb     N1   1197 -0.74090000  14.010000   ; qtot -0.338001
 1198         c3     48    bbb     C3   1198 0.51680000  12.010000   ; qtot 0.178799
 1199         h1     48    bbb     H5   1199 -0.05230000   1.008000   ; qtot 0.126499
 1200         h1     48    bbb     H6   1200 -0.05230000   1.008000   ; qtot 0.074199
 1201         c3     48    bbb     C4   1201 0.51680000  12.010000   ; qtot 0.590999
 1202         h1     48    bbb     H7   1202 -0.05230000   1.008000   ; qtot 0.538699
 1203         h1     48    bbb     H8   1203 -0.05230000   1.008000   ; qtot 0.486399
 1204         c3     48    bbb     C5   1204 -0.60390000  12.010000   ; qtot -0.117501
 1205         hc     48    bbb     H9   1205 0.16730000   1.008000   ; qtot 0.049799
 1206         hc     48    bbb    H10   1206 0.16730000   1.008000   ; qtot 0.217099
 1207         c3     48    bbb     C6   1207 -0.60390000  12.010000   ; qtot -0.386801
 1208         hc     48    bbb    H11   1208 0.16730000   1.008000   ; qtot -0.219501
 1209         hc     48    bbb    H12   1209 0.16730000   1.008000   ; qtot -0.052201
 1210          c     48    bbb     C7   1210 0.72110000  12.010000   ; qtot 0.668899
 1211          c     48    bbb     C8   1211 0.72110000  12.010000   ; qtot 1.389999
 1212          o     48    bbb     O1   1212 -0.61950000  16.000000   ; qtot 0.770499
 1213          o     48    bbb     O2   1213 -0.61950000  16.000000   ; qtot 0.150999
 1214          n     48    bbb     N4   1214 -0.46580000  14.010000   ; qtot -0.314801
 1215         hn     48    bbb    H21   1215 0.31480000   1.008000   ; qtot -0.000001
; residue   49 bbb rtp bbb q -0.0
 1216         c3     49    bbb     C1   1216 0.44180000  12.010000   ; qtot 0.441799
 1217         h1     49    bbb     H1   1217 -0.03530000   1.008000   ; qtot 0.406499
 1218         h1     49    bbb     H2   1218 -0.03530000   1.008000   ; qtot 0.371199
 1219         c3     49    bbb     C2   1219 -0.28250000  12.010000   ; qtot 0.088699
 1220         h1     49    bbb     H3   1220 0.15710000   1.008000   ; qtot 0.245799
 1221         h1     49    bbb     H4   1221 0.15710000   1.008000   ; qtot 0.402899
 1222         n3     49    bbb     N1   1222 -0.74090000  14.010000   ; qtot -0.338001
 1223         c3     49    bbb     C3   1223 0.51680000  12.010000   ; qtot 0.178799
 1224         h1     49    bbb     H5   1224 -0.05230000   1.008000   ; qtot 0.126499
 1225         h1     49    bbb     H6   1225 -0.05230000   1.008000   ; qtot 0.074199
 1226         c3     49    bbb     C4   1226 0.51680000  12.010000   ; qtot 0.590999
 1227         h1     49    bbb     H7   1227 -0.05230000   1.008000   ; qtot 0.538699
 1228         h1     49    bbb     H8   1228 -0.05230000   1.008000   ; qtot 0.486399
 1229         c3     49    bbb     C5   1229 -0.60390000  12.010000   ; qtot -0.117501
 1230         hc     49    bbb     H9   1230 0.16730000   1.008000   ; qtot 0.049799
 1231         hc     49    bbb    H10   1231 0.16730000   1.008000   ; qtot 0.217099
 1232         c3     49    bbb     C6   1232 -0.60390000  12.010000   ; qtot -0.386801
 1233         hc     49    bbb    H11   1233 0.16730000   1.008000   ; qtot -0.219501
 1234         hc     49    bbb    H12   1234 0.16730000   1.008000   ; qtot -0.052201
 1235          c     49    bbb     C7   1235 0.72110000  12.010000   ; qtot 0.668899
 1236          c     49    bbb     C8   1236 0.72110000  12.010000   ; qtot 1.389999
 1237          o     49    bbb     O1   1237 -0.61950000  16.000000   ; qtot 0.770499
 1238          o     49    bbb     O2   1238 -0.61950000  16.000000   ; qtot 0.150999
 1239          n     49    bbb     N4   1239 -0.46580000  14.010000   ; qtot -0.314801
 1240         hn     49    bbb    H21   1240 0.31480000   1.008000   ; qtot -0.000001
; residue   50 bbb rtp bbb q -0.0
 1241         c3     50    bbb     C1   1241 0.44180000  12.010000   ; qtot 0.441799
 1242         h1     50    bbb     H1   1242 -0.03530000   1.008000   ; qtot 0.406499
 1243         h1     50    bbb     H2   1243 -0.03530000   1.008000   ; qtot 0.371199
 1244         c3     50    bbb     C2   1244 -0.28250000  12.010000   ; qtot 0.088699
 1245         h1     50    bbb     H3   1245 0.15710000   1.008000   ; qtot 0.245799
 1246         h1     50    bbb     H4   1246 0.15710000   1.008000   ; qtot 0.402899
 1247         n3     50    bbb     N1   1247 -0.74090000  14.010000   ; qtot -0.338001
 1248         c3     50    bbb     C3   1248 0.51680000  12.010000   ; qtot 0.178799
 1249         h1     50    bbb     H5   1249 -0.05230000   1.008000   ; qtot 0.126499
 1250         h1     50    bbb     H6   1250 -0.05230000   1.008000   ; qtot 0.074199
 1251         c3     50    bbb     C4   1251 0.51680000  12.010000   ; qtot 0.590999
 1252         h1     50    bbb     H7   1252 -0.05230000   1.008000   ; qtot 0.538699
 1253         h1     50    bbb     H8   1253 -0.05230000   1.008000   ; qtot 0.486399
 1254         c3     50    bbb     C5   1254 -0.60390000  12.010000   ; qtot -0.117501
 1255         hc     50    bbb     H9   1255 0.16730000   1.008000   ; qtot 0.049799
 1256         hc     50    bbb    H10   1256 0.16730000   1.008000   ; qtot 0.217099
 1257         c3     50    bbb     C6   1257 -0.60390000  12.010000   ; qtot -0.386801
 1258         hc     50    bbb    H11   1258 0.16730000   1.008000   ; qtot -0.219501
 1259         hc     50    bbb    H12   1259 0.16730000   1.008000   ; qtot -0.052201
 1260          c     50    bbb     C7   1260 0.72110000  12.010000   ; qtot 0.668899
 1261          c     50    bbb     C8   1261 0.72110000  12.010000   ; qtot 1.389999
 1262          o     50    bbb     O1   1262 -0.61950000  16.000000   ; qtot 0.770499
 1263          o     50    bbb     O2   1263 -0.61950000  16.000000   ; qtot 0.150999
 1264          n     50    bbb     N4   1264 -0.46580000  14.010000   ; qtot -0.314801
 1265         hn     50    bbb    H21   1265 0.31480000   1.008000   ; qtot -0.000001
; residue   51 bbb rtp bbb q -0.0
 1266         c3     51    bbb     C1   1266 0.44180000  12.010000   ; qtot 0.441799
 1267         h1     51    bbb     H1   1267 -0.03530000   1.008000   ; qtot 0.406499
 1268         h1     51    bbb     H2   1268 -0.03530000   1.008000   ; qtot 0.371199
 1269         c3     51    bbb     C2   1269 -0.28250000  12.010000   ; qtot 0.088699
 1270         h1     51    bbb     H3   1270 0.15710000   1.008000   ; qtot 0.245799
 1271         h1     51    bbb     H4   1271 0.15710000   1.008000   ; qtot 0.402899
 1272         n3     51    bbb     N1   1272 -0.74090000  14.010000   ; qtot -0.338001
 1273         c3     51    bbb     C3   1273 0.51680000  12.010000   ; qtot 0.178799
 1274         h1     51    bbb     H5   1274 -0.05230000   1.008000   ; qtot 0.126499
 1275         h1     51    bbb     H6   1275 -0.05230000   1.008000   ; qtot 0.074199
 1276         c3     51    bbb     C4   1276 0.51680000  12.010000   ; qtot 0.590999
 1277         h1     51    bbb     H7   1277 -0.05230000   1.008000   ; qtot 0.538699
 1278         h1     51    bbb     H8   1278 -0.05230000   1.008000   ; qtot 0.486399
 1279         c3     51    bbb     C5   1279 -0.60390000  12.010000   ; qtot -0.117501
 1280         hc     51    bbb     H9   1280 0.16730000   1.008000   ; qtot 0.049799
 1281         hc     51    bbb    H10   1281 0.16730000   1.008000   ; qtot 0.217099
 1282         c3     51    bbb     C6   1282 -0.60390000  12.010000   ; qtot -0.386801
 1283         hc     51    bbb    H11   1283 0.16730000   1.008000   ; qtot -0.219501
 1284         hc     51    bbb    H12   1284 0.16730000   1.008000   ; qtot -0.052201
 1285          c     51    bbb     C7   1285 0.72110000  12.010000   ; qtot 0.668899
 1286          c     51    bbb     C8   1286 0.72110000  12.010000   ; qtot 1.389999
 1287          o     51    bbb     O1   1287 -0.61950000  16.000000   ; qtot 0.770499
 1288          o     51    bbb     O2   1288 -0.61950000  16.000000   ; qtot 0.150999
 1289          n     51    bbb     N4   1289 -0.46580000  14.010000   ; qtot -0.314801
 1290         hn     51    bbb    H21   1290 0.31480000   1.008000   ; qtot -0.000001
; residue   52 bbb rtp bbb q -0.0
 1291         c3     52    bbb     C1   1291 0.44180000  12.010000   ; qtot 0.441799
 1292         h1     52    bbb     H1   1292 -0.03530000   1.008000   ; qtot 0.406499
 1293         h1     52    bbb     H2   1293 -0.03530000   1.008000   ; qtot 0.371199
 1294         c3     52    bbb     C2   1294 -0.28250000  12.010000   ; qtot 0.088699
 1295         h1     52    bbb     H3   1295 0.15710000   1.008000   ; qtot 0.245799
 1296         h1     52    bbb     H4   1296 0.15710000   1.008000   ; qtot 0.402899
 1297         n3     52    bbb     N1   1297 -0.74090000  14.010000   ; qtot -0.338001
 1298         c3     52    bbb     C3   1298 0.51680000  12.010000   ; qtot 0.178799
 1299         h1     52    bbb     H5   1299 -0.05230000   1.008000   ; qtot 0.126499
 1300         h1     52    bbb     H6   1300 -0.05230000   1.008000   ; qtot 0.074199
 1301         c3     52    bbb     C4   1301 0.51680000  12.010000   ; qtot 0.590999
 1302         h1     52    bbb     H7   1302 -0.05230000   1.008000   ; qtot 0.538699
 1303         h1     52    bbb     H8   1303 -0.05230000   1.008000   ; qtot 0.486399
 1304         c3     52    bbb     C5   1304 -0.60390000  12.010000   ; qtot -0.117501
 1305         hc     52    bbb     H9   1305 0.16730000   1.008000   ; qtot 0.049799
 1306         hc     52    bbb    H10   1306 0.16730000   1.008000   ; qtot 0.217099
 1307         c3     52    bbb     C6   1307 -0.60390000  12.010000   ; qtot -0.386801
 1308         hc     52    bbb    H11   1308 0.16730000   1.008000   ; qtot -0.219501
 1309         hc     52    bbb    H12   1309 0.16730000   1.008000   ; qtot -0.052201
 1310          c     52    bbb     C7   1310 0.72110000  12.010000   ; qtot 0.668899
 1311          c     52    bbb     C8   1311 0.72110000  12.010000   ; qtot 1.389999
 1312          o     52    bbb     O1   1312 -0.61950000  16.000000   ; qtot 0.770499
 1313          o     52    bbb     O2   1313 -0.61950000  16.000000   ; qtot 0.150999
 1314          n     52    bbb     N4   1314 -0.46580000  14.010000   ; qtot -0.314801
 1315         hn     52    bbb    H21   1315 0.31480000   1.008000   ; qtot -0.000001
; residue   53 bbb rtp bbb q -0.0
 1316         c3     53    bbb     C1   1316 0.44180000  12.010000   ; qtot 0.441799
 1317         h1     53    bbb     H1   1317 -0.03530000   1.008000   ; qtot 0.406499
 1318         h1     53    bbb     H2   1318 -0.03530000   1.008000   ; qtot 0.371199
 1319         c3     53    bbb     C2   1319 -0.28250000  12.010000   ; qtot 0.088699
 1320         h1     53    bbb     H3   1320 0.15710000   1.008000   ; qtot 0.245799
 1321         h1     53    bbb     H4   1321 0.15710000   1.008000   ; qtot 0.402899
 1322         n3     53    bbb     N1   1322 -0.74090000  14.010000   ; qtot -0.338001
 1323         c3     53    bbb     C3   1323 0.51680000  12.010000   ; qtot 0.178799
 1324         h1     53    bbb     H5   1324 -0.05230000   1.008000   ; qtot 0.126499
 1325         h1     53    bbb     H6   1325 -0.05230000   1.008000   ; qtot 0.074199
 1326         c3     53    bbb     C4   1326 0.51680000  12.010000   ; qtot 0.590999
 1327         h1     53    bbb     H7   1327 -0.05230000   1.008000   ; qtot 0.538699
 1328         h1     53    bbb     H8   1328 -0.05230000   1.008000   ; qtot 0.486399
 1329         c3     53    bbb     C5   1329 -0.60390000  12.010000   ; qtot -0.117501
 1330         hc     53    bbb     H9   1330 0.16730000   1.008000   ; qtot 0.049799
 1331         hc     53    bbb    H10   1331 0.16730000   1.008000   ; qtot 0.217099
 1332         c3     53    bbb     C6   1332 -0.60390000  12.010000   ; qtot -0.386801
 1333         hc     53    bbb    H11   1333 0.16730000   1.008000   ; qtot -0.219501
 1334         hc     53    bbb    H12   1334 0.16730000   1.008000   ; qtot -0.052201
 1335          c     53    bbb     C7   1335 0.72110000  12.010000   ; qtot 0.668899
 1336          c     53    bbb     C8   1336 0.72110000  12.010000   ; qtot 1.389999
 1337          o     53    bbb     O1   1337 -0.61950000  16.000000   ; qtot 0.770499
 1338          o     53    bbb     O2   1338 -0.61950000  16.000000   ; qtot 0.150999
 1339          n     53    bbb     N4   1339 -0.46580000  14.010000   ; qtot -0.314801
 1340         hn     53    bbb    H21   1340 0.31480000   1.008000   ; qtot -0.000001
; residue   54 bbb rtp bbb q -0.0
 1341         c3     54    bbb     C1   1341 0.44180000  12.010000   ; qtot 0.441799
 1342         h1     54    bbb     H1   1342 -0.03530000   1.008000   ; qtot 0.406499
 1343         h1     54    bbb     H2   1343 -0.03530000   1.008000   ; qtot 0.371199
 1344         c3     54    bbb     C2   1344 -0.28250000  12.010000   ; qtot 0.088699
 1345         h1     54    bbb     H3   1345 0.15710000   1.008000   ; qtot 0.245799
 1346         h1     54    bbb     H4   1346 0.15710000   1.008000   ; qtot 0.402899
 1347         n3     54    bbb     N1   1347 -0.74090000  14.010000   ; qtot -0.338001
 1348         c3     54    bbb     C3   1348 0.51680000  12.010000   ; qtot 0.178799
 1349         h1     54    bbb     H5   1349 -0.05230000   1.008000   ; qtot 0.126499
 1350         h1     54    bbb     H6   1350 -0.05230000   1.008000   ; qtot 0.074199
 1351         c3     54    bbb     C4   1351 0.51680000  12.010000   ; qtot 0.590999
 1352         h1     54    bbb     H7   1352 -0.05230000   1.008000   ; qtot 0.538699
 1353         h1     54    bbb     H8   1353 -0.05230000   1.008000   ; qtot 0.486399
 1354         c3     54    bbb     C5   1354 -0.60390000  12.010000   ; qtot -0.117501
 1355         hc     54    bbb     H9   1355 0.16730000   1.008000   ; qtot 0.049799
 1356         hc     54    bbb    H10   1356 0.16730000   1.008000   ; qtot 0.217099
 1357         c3     54    bbb     C6   1357 -0.60390000  12.010000   ; qtot -0.386801
 1358         hc     54    bbb    H11   1358 0.16730000   1.008000   ; qtot -0.219501
 1359         hc     54    bbb    H12   1359 0.16730000   1.008000   ; qtot -0.052201
 1360          c     54    bbb     C7   1360 0.72110000  12.010000   ; qtot 0.668899
 1361          c     54    bbb     C8   1361 0.72110000  12.010000   ; qtot 1.389999
 1362          o     54    bbb     O1   1362 -0.61950000  16.000000   ; qtot 0.770499
 1363          o     54    bbb     O2   1363 -0.61950000  16.000000   ; qtot 0.150999
 1364          n     54    bbb     N4   1364 -0.46580000  14.010000   ; qtot -0.314801
 1365         hn     54    bbb    H21   1365 0.31480000   1.008000   ; qtot -0.000001
; residue   55 bbb rtp bbb q -0.0
 1366         c3     55    bbb     C1   1366 0.44180000  12.010000   ; qtot 0.441799
 1367         h1     55    bbb     H1   1367 -0.03530000   1.008000   ; qtot 0.406499
 1368         h1     55    bbb     H2   1368 -0.03530000   1.008000   ; qtot 0.371199
 1369         c3     55    bbb     C2   1369 -0.28250000  12.010000   ; qtot 0.088699
 1370         h1     55    bbb     H3   1370 0.15710000   1.008000   ; qtot 0.245799
 1371         h1     55    bbb     H4   1371 0.15710000   1.008000   ; qtot 0.402899
 1372         n3     55    bbb     N1   1372 -0.74090000  14.010000   ; qtot -0.338001
 1373         c3     55    bbb     C3   1373 0.51680000  12.010000   ; qtot 0.178799
 1374         h1     55    bbb     H5   1374 -0.05230000   1.008000   ; qtot 0.126499
 1375         h1     55    bbb     H6   1375 -0.05230000   1.008000   ; qtot 0.074199
 1376         c3     55    bbb     C4   1376 0.51680000  12.010000   ; qtot 0.590999
 1377         h1     55    bbb     H7   1377 -0.05230000   1.008000   ; qtot 0.538699
 1378         h1     55    bbb     H8   1378 -0.05230000   1.008000   ; qtot 0.486399
 1379         c3     55    bbb     C5   1379 -0.60390000  12.010000   ; qtot -0.117501
 1380         hc     55    bbb     H9   1380 0.16730000   1.008000   ; qtot 0.049799
 1381         hc     55    bbb    H10   1381 0.16730000   1.008000   ; qtot 0.217099
 1382         c3     55    bbb     C6   1382 -0.60390000  12.010000   ; qtot -0.386801
 1383         hc     55    bbb    H11   1383 0.16730000   1.008000   ; qtot -0.219501
 1384         hc     55    bbb    H12   1384 0.16730000   1.008000   ; qtot -0.052201
 1385          c     55    bbb     C7   1385 0.72110000  12.010000   ; qtot 0.668899
 1386          c     55    bbb     C8   1386 0.72110000  12.010000   ; qtot 1.389999
 1387          o     55    bbb     O1   1387 -0.61950000  16.000000   ; qtot 0.770499
 1388          o     55    bbb     O2   1388 -0.61950000  16.000000   ; qtot 0.150999
 1389          n     55    bbb     N4   1389 -0.46580000  14.010000   ; qtot -0.314801
 1390         hn     55    bbb    H21   1390 0.31480000   1.008000   ; qtot -0.000001
; residue   56 bbb rtp bbb q -0.0
 1391         c3     56    bbb     C1   1391 0.44180000  12.010000   ; qtot 0.441799
 1392         h1     56    bbb     H1   1392 -0.03530000   1.008000   ; qtot 0.406499
 1393         h1     56    bbb     H2   1393 -0.03530000   1.008000   ; qtot 0.371199
 1394         c3     56    bbb     C2   1394 -0.28250000  12.010000   ; qtot 0.088699
 1395         h1     56    bbb     H3   1395 0.15710000   1.008000   ; qtot 0.245799
 1396         h1     56    bbb     H4   1396 0.15710000   1.008000   ; qtot 0.402899
 1397         n3     56    bbb     N1   1397 -0.74090000  14.010000   ; qtot -0.338001
 1398         c3     56    bbb     C3   1398 0.51680000  12.010000   ; qtot 0.178799
 1399         h1     56    bbb     H5   1399 -0.05230000   1.008000   ; qtot 0.126499
 1400         h1     56    bbb     H6   1400 -0.05230000   1.008000   ; qtot 0.074199
 1401         c3     56    bbb     C4   1401 0.51680000  12.010000   ; qtot 0.590999
 1402         h1     56    bbb     H7   1402 -0.05230000   1.008000   ; qtot 0.538699
 1403         h1     56    bbb     H8   1403 -0.05230000   1.008000   ; qtot 0.486399
 1404         c3     56    bbb     C5   1404 -0.60390000  12.010000   ; qtot -0.117501
 1405         hc     56    bbb     H9   1405 0.16730000   1.008000   ; qtot 0.049799
 1406         hc     56    bbb    H10   1406 0.16730000   1.008000   ; qtot 0.217099
 1407         c3     56    bbb     C6   1407 -0.60390000  12.010000   ; qtot -0.386801
 1408         hc     56    bbb    H11   1408 0.16730000   1.008000   ; qtot -0.219501
 1409         hc     56    bbb    H12   1409 0.16730000   1.008000   ; qtot -0.052201
 1410          c     56    bbb     C7   1410 0.72110000  12.010000   ; qtot 0.668899
 1411          c     56    bbb     C8   1411 0.72110000  12.010000   ; qtot 1.389999
 1412          o     56    bbb     O1   1412 -0.61950000  16.000000   ; qtot 0.770499
 1413          o     56    bbb     O2   1413 -0.61950000  16.000000   ; qtot 0.150999
 1414          n     56    bbb     N4   1414 -0.46580000  14.010000   ; qtot -0.314801
 1415         hn     56    bbb    H21   1415 0.31480000   1.008000   ; qtot -0.000001
; residue   57 bbb rtp bbb q -0.0
 1416         c3     57    bbb     C1   1416 0.44180000  12.010000   ; qtot 0.441799
 1417         h1     57    bbb     H1   1417 -0.03530000   1.008000   ; qtot 0.406499
 1418         h1     57    bbb     H2   1418 -0.03530000   1.008000   ; qtot 0.371199
 1419         c3     57    bbb     C2   1419 -0.28250000  12.010000   ; qtot 0.088699
 1420         h1     57    bbb     H3   1420 0.15710000   1.008000   ; qtot 0.245799
 1421         h1     57    bbb     H4   1421 0.15710000   1.008000   ; qtot 0.402899
 1422         n3     57    bbb     N1   1422 -0.74090000  14.010000   ; qtot -0.338001
 1423         c3     57    bbb     C3   1423 0.51680000  12.010000   ; qtot 0.178799
 1424         h1     57    bbb     H5   1424 -0.05230000   1.008000   ; qtot 0.126499
 1425         h1     57    bbb     H6   1425 -0.05230000   1.008000   ; qtot 0.074199
 1426         c3     57    bbb     C4   1426 0.51680000  12.010000   ; qtot 0.590999
 1427         h1     57    bbb     H7   1427 -0.05230000   1.008000   ; qtot 0.538699
 1428         h1     57    bbb     H8   1428 -0.05230000   1.008000   ; qtot 0.486399
 1429         c3     57    bbb     C5   1429 -0.60390000  12.010000   ; qtot -0.117501
 1430         hc     57    bbb     H9   1430 0.16730000   1.008000   ; qtot 0.049799
 1431         hc     57    bbb    H10   1431 0.16730000   1.008000   ; qtot 0.217099
 1432         c3     57    bbb     C6   1432 -0.60390000  12.010000   ; qtot -0.386801
 1433         hc     57    bbb    H11   1433 0.16730000   1.008000   ; qtot -0.219501
 1434         hc     57    bbb    H12   1434 0.16730000   1.008000   ; qtot -0.052201
 1435          c     57    bbb     C7   1435 0.72110000  12.010000   ; qtot 0.668899
 1436          c     57    bbb     C8   1436 0.72110000  12.010000   ; qtot 1.389999
 1437          o     57    bbb     O1   1437 -0.61950000  16.000000   ; qtot 0.770499
 1438          o     57    bbb     O2   1438 -0.61950000  16.000000   ; qtot 0.150999
 1439          n     57    bbb     N4   1439 -0.46580000  14.010000   ; qtot -0.314801
 1440         hn     57    bbb    H21   1440 0.31480000   1.008000   ; qtot -0.000001
; residue   58 bbb rtp bbb q -0.0
 1441         c3     58    bbb     C1   1441 0.44180000  12.010000   ; qtot 0.441799
 1442         h1     58    bbb     H1   1442 -0.03530000   1.008000   ; qtot 0.406499
 1443         h1     58    bbb     H2   1443 -0.03530000   1.008000   ; qtot 0.371199
 1444         c3     58    bbb     C2   1444 -0.28250000  12.010000   ; qtot 0.088699
 1445         h1     58    bbb     H3   1445 0.15710000   1.008000   ; qtot 0.245799
 1446         h1     58    bbb     H4   1446 0.15710000   1.008000   ; qtot 0.402899
 1447         n3     58    bbb     N1   1447 -0.74090000  14.010000   ; qtot -0.338001
 1448         c3     58    bbb     C3   1448 0.51680000  12.010000   ; qtot 0.178799
 1449         h1     58    bbb     H5   1449 -0.05230000   1.008000   ; qtot 0.126499
 1450         h1     58    bbb     H6   1450 -0.05230000   1.008000   ; qtot 0.074199
 1451         c3     58    bbb     C4   1451 0.51680000  12.010000   ; qtot 0.590999
 1452         h1     58    bbb     H7   1452 -0.05230000   1.008000   ; qtot 0.538699
 1453         h1     58    bbb     H8   1453 -0.05230000   1.008000   ; qtot 0.486399
 1454         c3     58    bbb     C5   1454 -0.60390000  12.010000   ; qtot -0.117501
 1455         hc     58    bbb     H9   1455 0.16730000   1.008000   ; qtot 0.049799
 1456         hc     58    bbb    H10   1456 0.16730000   1.008000   ; qtot 0.217099
 1457         c3     58    bbb     C6   1457 -0.60390000  12.010000   ; qtot -0.386801
 1458         hc     58    bbb    H11   1458 0.16730000   1.008000   ; qtot -0.219501
 1459         hc     58    bbb    H12   1459 0.16730000   1.008000   ; qtot -0.052201
 1460          c     58    bbb     C7   1460 0.72110000  12.010000   ; qtot 0.668899
 1461          c     58    bbb     C8   1461 0.72110000  12.010000   ; qtot 1.389999
 1462          o     58    bbb     O1   1462 -0.61950000  16.000000   ; qtot 0.770499
 1463          o     58    bbb     O2   1463 -0.61950000  16.000000   ; qtot 0.150999
 1464          n     58    bbb     N4   1464 -0.46580000  14.010000   ; qtot -0.314801
 1465         hn     58    bbb    H21   1465 0.31480000   1.008000   ; qtot -0.000001
; residue   59 bbb rtp bbb q -0.0
 1466         c3     59    bbb     C1   1466 0.44180000  12.010000   ; qtot 0.441799
 1467         h1     59    bbb     H1   1467 -0.03530000   1.008000   ; qtot 0.406499
 1468         h1     59    bbb     H2   1468 -0.03530000   1.008000   ; qtot 0.371199
 1469         c3     59    bbb     C2   1469 -0.28250000  12.010000   ; qtot 0.088699
 1470         h1     59    bbb     H3   1470 0.15710000   1.008000   ; qtot 0.245799
 1471         h1     59    bbb     H4   1471 0.15710000   1.008000   ; qtot 0.402899
 1472         n3     59    bbb     N1   1472 -0.74090000  14.010000   ; qtot -0.338001
 1473         c3     59    bbb     C3   1473 0.51680000  12.010000   ; qtot 0.178799
 1474         h1     59    bbb     H5   1474 -0.05230000   1.008000   ; qtot 0.126499
 1475         h1     59    bbb     H6   1475 -0.05230000   1.008000   ; qtot 0.074199
 1476         c3     59    bbb     C4   1476 0.51680000  12.010000   ; qtot 0.590999
 1477         h1     59    bbb     H7   1477 -0.05230000   1.008000   ; qtot 0.538699
 1478         h1     59    bbb     H8   1478 -0.05230000   1.008000   ; qtot 0.486399
 1479         c3     59    bbb     C5   1479 -0.60390000  12.010000   ; qtot -0.117501
 1480         hc     59    bbb     H9   1480 0.16730000   1.008000   ; qtot 0.049799
 1481         hc     59    bbb    H10   1481 0.16730000   1.008000   ; qtot 0.217099
 1482         c3     59    bbb     C6   1482 -0.60390000  12.010000   ; qtot -0.386801
 1483         hc     59    bbb    H11   1483 0.16730000   1.008000   ; qtot -0.219501
 1484         hc     59    bbb    H12   1484 0.16730000   1.008000   ; qtot -0.052201
 1485          c     59    bbb     C7   1485 0.72110000  12.010000   ; qtot 0.668899
 1486          c     59    bbb     C8   1486 0.72110000  12.010000   ; qtot 1.389999
 1487          o     59    bbb     O1   1487 -0.61950000  16.000000   ; qtot 0.770499
 1488          o     59    bbb     O2   1488 -0.61950000  16.000000   ; qtot 0.150999
 1489          n     59    bbb     N4   1489 -0.46580000  14.010000   ; qtot -0.314801
 1490         hn     59    bbb    H21   1490 0.31480000   1.008000   ; qtot -0.000001
; residue   60 bbb rtp bbb q -0.0
 1491         c3     60    bbb     C1   1491 0.44180000  12.010000   ; qtot 0.441799
 1492         h1     60    bbb     H1   1492 -0.03530000   1.008000   ; qtot 0.406499
 1493         h1     60    bbb     H2   1493 -0.03530000   1.008000   ; qtot 0.371199
 1494         c3     60    bbb     C2   1494 -0.28250000  12.010000   ; qtot 0.088699
 1495         h1     60    bbb     H3   1495 0.15710000   1.008000   ; qtot 0.245799
 1496         h1     60    bbb     H4   1496 0.15710000   1.008000   ; qtot 0.402899
 1497         n3     60    bbb     N1   1497 -0.74090000  14.010000   ; qtot -0.338001
 1498         c3     60    bbb     C3   1498 0.51680000  12.010000   ; qtot 0.178799
 1499         h1     60    bbb     H5   1499 -0.05230000   1.008000   ; qtot 0.126499
 1500         h1     60    bbb     H6   1500 -0.05230000   1.008000   ; qtot 0.074199
 1501         c3     60    bbb     C4   1501 0.51680000  12.010000   ; qtot 0.590999
 1502         h1     60    bbb     H7   1502 -0.05230000   1.008000   ; qtot 0.538699
 1503         h1     60    bbb     H8   1503 -0.05230000   1.008000   ; qtot 0.486399
 1504         c3     60    bbb     C5   1504 -0.60390000  12.010000   ; qtot -0.117501
 1505         hc     60    bbb     H9   1505 0.16730000   1.008000   ; qtot 0.049799
 1506         hc     60    bbb    H10   1506 0.16730000   1.008000   ; qtot 0.217099
 1507         c3     60    bbb     C6   1507 -0.60390000  12.010000   ; qtot -0.386801
 1508         hc     60    bbb    H11   1508 0.16730000   1.008000   ; qtot -0.219501
 1509         hc     60    bbb    H12   1509 0.16730000   1.008000   ; qtot -0.052201
 1510          c     60    bbb     C7   1510 0.72110000  12.010000   ; qtot 0.668899
 1511          c     60    bbb     C8   1511 0.72110000  12.010000   ; qtot 1.389999
 1512          o     60    bbb     O1   1512 -0.61950000  16.000000   ; qtot 0.770499
 1513          o     60    bbb     O2   1513 -0.61950000  16.000000   ; qtot 0.150999
 1514          n     60    bbb     N4   1514 -0.46580000  14.010000   ; qtot -0.314801
 1515         hn     60    bbb    H21   1515 0.31480000   1.008000   ; qtot -0.000001
; residue   61 bbb rtp bbb q -0.0
 1516         c3     61    bbb     C1   1516 0.44180000  12.010000   ; qtot 0.441799
 1517         h1     61    bbb     H1   1517 -0.03530000   1.008000   ; qtot 0.406499
 1518         h1     61    bbb     H2   1518 -0.03530000   1.008000   ; qtot 0.371199
 1519         c3     61    bbb     C2   1519 -0.28250000  12.010000   ; qtot 0.088699
 1520         h1     61    bbb     H3   1520 0.15710000   1.008000   ; qtot 0.245799
 1521         h1     61    bbb     H4   1521 0.15710000   1.008000   ; qtot 0.402899
 1522         n3     61    bbb     N1   1522 -0.74090000  14.010000   ; qtot -0.338001
 1523         c3     61    bbb     C3   1523 0.51680000  12.010000   ; qtot 0.178799
 1524         h1     61    bbb     H5   1524 -0.05230000   1.008000   ; qtot 0.126499
 1525         h1     61    bbb     H6   1525 -0.05230000   1.008000   ; qtot 0.074199
 1526         c3     61    bbb     C4   1526 0.51680000  12.010000   ; qtot 0.590999
 1527         h1     61    bbb     H7   1527 -0.05230000   1.008000   ; qtot 0.538699
 1528         h1     61    bbb     H8   1528 -0.05230000   1.008000   ; qtot 0.486399
 1529         c3     61    bbb     C5   1529 -0.60390000  12.010000   ; qtot -0.117501
 1530         hc     61    bbb     H9   1530 0.16730000   1.008000   ; qtot 0.049799
 1531         hc     61    bbb    H10   1531 0.16730000   1.008000   ; qtot 0.217099
 1532         c3     61    bbb     C6   1532 -0.60390000  12.010000   ; qtot -0.386801
 1533         hc     61    bbb    H11   1533 0.16730000   1.008000   ; qtot -0.219501
 1534         hc     61    bbb    H12   1534 0.16730000   1.008000   ; qtot -0.052201
 1535          c     61    bbb     C7   1535 0.72110000  12.010000   ; qtot 0.668899
 1536          c     61    bbb     C8   1536 0.72110000  12.010000   ; qtot 1.389999
 1537          o     61    bbb     O1   1537 -0.61950000  16.000000   ; qtot 0.770499
 1538          o     61    bbb     O2   1538 -0.61950000  16.000000   ; qtot 0.150999
 1539          n     61    bbb     N4   1539 -0.46580000  14.010000   ; qtot -0.314801
 1540         hn     61    bbb    H21   1540 0.31480000   1.008000   ; qtot -0.000001
; residue   62 ccc rtp ccc q -2.0
 1541          n     62    ccc     N1   1541 -0.63700000  14.010000   ; qtot -0.637001
 1542         hn     62    ccc     H4   1542 0.34234400   1.008000   ; qtot -0.294657
 1543         c3     62    ccc     C3   1543 0.01091100  12.010000   ; qtot -0.283746
 1544         h1     62    ccc     H5   1544 0.11190000   1.008000   ; qtot -0.171846
 1545         c3     62    ccc     C4   1545 -0.06161800  12.010000   ; qtot -0.233464
 1546         h1     62    ccc     H6   1546 0.11190000   1.008000   ; qtot -0.121564
 1547         h1     62    ccc     H7   1547 0.11248000   1.008000   ; qtot -0.009084
 1548         h1     62    ccc     H8   1548 0.11248000   1.008000   ; qtot 0.103396
 1549         n3     62    ccc     N2   1549 -0.49292700  14.010000   ; qtot -0.389531
 1550         c3     62    ccc     C5   1550 0.00117700  12.010000   ; qtot -0.388354
 1551         c3     62    ccc     C6   1551 0.00117700  12.010000   ; qtot -0.387177
 1552         h1     62    ccc     H9   1552 0.05345200   1.008000   ; qtot -0.333725
 1553         c3     62    ccc     C7   1553 0.03104100  12.010000   ; qtot -0.302684
 1554         h1     62    ccc    H10   1554 0.05345200   1.008000   ; qtot -0.249232
 1555         hc     62    ccc    H11   1555 -0.03377200   1.008000   ; qtot -0.283004
 1556         hc     62    ccc    H12   1556 -0.03377200   1.008000   ; qtot -0.316776
 1557          c     62    ccc     C8   1557 0.93072900  12.010000   ; qtot 0.613953
 1558          o     62    ccc     O2   1558 -0.90377100  16.000000   ; qtot -0.289818
 1559          o     62    ccc     O3   1559 -0.90377100  16.000000   ; qtot -1.193589
 1560         h1     62    ccc    H13   1560 0.05345200   1.008000   ; qtot -1.140137
 1561         h1     62    ccc    H14   1561 0.05345200   1.008000   ; qtot -1.086685
 1562         c3     62    ccc     C9   1562 0.03104100  12.010000   ; qtot -1.055644
 1563         hc     62    ccc    H15   1563 -0.03377200   1.008000   ; qtot -1.089416
 1564         hc     62    ccc    H16   1564 -0.03377200   1.008000   ; qtot -1.123188
 1565          c     62    ccc    C10   1565 0.93072900  12.010000   ; qtot -0.192459
 1566          o     62    ccc     O4   1566 -0.90377100  16.000000   ; qtot -1.096230
 1567          o     62    ccc     O5   1567 -0.90377100  16.000000   ; qtot -2.000001
; residue   63 ccc rtp ccc q -2.0
 1568          n     63    ccc     N1   1568 -0.63700000  14.010000   ; qtot -2.637001
 1569         hn     63    ccc     H4   1569 0.34234400   1.008000   ; qtot -2.294657
 1570         c3     63    ccc     C3   1570 0.01091100  12.010000   ; qtot -2.283746
 1571         h1     63    ccc     H5   1571 0.11190000   1.008000   ; qtot -2.171846
 1572         c3     63    ccc     C4   1572 -0.06161800  12.010000   ; qtot -2.233464
 1573         h1     63    ccc     H6   1573 0.11190000   1.008000   ; qtot -2.121564
 1574         h1     63    ccc     H7   1574 0.11248000   1.008000   ; qtot -2.009084
 1575         h1     63    ccc     H8   1575 0.11248000   1.008000   ; qtot -1.896604
 1576         n3     63    ccc     N2   1576 -0.49292700  14.010000   ; qtot -2.389531
 1577         c3     63    ccc     C5   1577 0.00117700  12.010000   ; qtot -2.388354
 1578         c3     63    ccc     C6   1578 0.00117700  12.010000   ; qtot -2.387177
 1579         h1     63    ccc     H9   1579 0.05345200   1.008000   ; qtot -2.333725
 1580         c3     63    ccc     C7   1580 0.03104100  12.010000   ; qtot -2.302684
 1581         h1     63    ccc    H10   1581 0.05345200   1.008000   ; qtot -2.249232
 1582         hc     63    ccc    H11   1582 -0.03377200   1.008000   ; qtot -2.283004
 1583         hc     63    ccc    H12   1583 -0.03377200   1.008000   ; qtot -2.316776
 1584          c     63    ccc     C8   1584 0.93072900  12.010000   ; qtot -1.386047
 1585          o     63    ccc     O2   1585 -0.90377100  16.000000   ; qtot -2.289818
 1586          o     63    ccc     O3   1586 -0.90377100  16.000000   ; qtot -3.193589
 1587         h1     63    ccc    H13   1587 0.05345200   1.008000   ; qtot -3.140137
 1588         h1     63    ccc    H14   1588 0.05345200   1.008000   ; qtot -3.086685
 1589         c3     63    ccc     C9   1589 0.03104100  12.010000   ; qtot -3.055644
 1590         hc     63    ccc    H15   1590 -0.03377200   1.008000   ; qtot -3.089416
 1591         hc     63    ccc    H16   1591 -0.03377200   1.008000   ; qtot -3.123188
 1592          c     63    ccc    C10   1592 0.93072900  12.010000   ; qtot -2.192459
 1593          o     63    ccc     O4   1593 -0.90377100  16.000000   ; qtot -3.096230
 1594          o     63    ccc     O5   1594 -0.90377100  16.000000   ; qtot -4.000001
; residue   64 ccc rtp ccc q -2.0
 1595          n     64    ccc     N1   1595 -0.63700000  14.010000   ; qtot -4.637001
 1596         hn     64    ccc     H4   1596 0.34234400   1.008000   ; qtot -4.294657
 1597         c3     64    ccc     C3   1597 0.01091100  12.010000   ; qtot -4.283746
 1598         h1     64    ccc     H5   1598 0.11190000   1.008000   ; qtot -4.171846
 1599         c3     64    ccc     C4   1599 -0.06161800  12.010000   ; qtot -4.233464
 1600         h1     64    ccc     H6   1600 0.11190000   1.008000   ; qtot -4.121564
 1601         h1     64    ccc     H7   1601 0.11248000   1.008000   ; qtot -4.009084
 1602         h1     64    ccc     H8   1602 0.11248000   1.008000   ; qtot -3.896604
 1603         n3     64    ccc     N2   1603 -0.49292700  14.010000   ; qtot -4.389531
 1604         c3     64    ccc     C5   1604 0.00117700  12.010000   ; qtot -4.388354
 1605         c3     64    ccc     C6   1605 0.00117700  12.010000   ; qtot -4.387177
 1606         h1     64    ccc     H9   1606 0.05345200   1.008000   ; qtot -4.333725
 1607         c3     64    ccc     C7   1607 0.03104100  12.010000   ; qtot -4.302684
 1608         h1     64    ccc    H10   1608 0.05345200   1.008000   ; qtot -4.249232
 1609         hc     64    ccc    H11   1609 -0.03377200   1.008000   ; qtot -4.283004
 1610         hc     64    ccc    H12   1610 -0.03377200   1.008000   ; qtot -4.316776
 1611          c     64    ccc     C8   1611 0.93072900  12.010000   ; qtot -3.386047
 1612          o     64    ccc     O2   1612 -0.90377100  16.000000   ; qtot -4.289818
 1613          o     64    ccc     O3   1613 -0.90377100  16.000000   ; qtot -5.193589
 1614         h1     64    ccc    H13   1614 0.05345200   1.008000   ; qtot -5.140137
 1615         h1     64    ccc    H14   1615 0.05345200   1.008000   ; qtot -5.086685
 1616         c3     64    ccc     C9   1616 0.03104100  12.010000   ; qtot -5.055644
 1617         hc     64    ccc    H15   1617 -0.03377200   1.008000   ; qtot -5.089416
 1618         hc     64    ccc    H16   1618 -0.03377200   1.008000   ; qtot -5.123188
 1619          c     64    ccc    C10   1619 0.93072900  12.010000   ; qtot -4.192459
 1620          o     64    ccc     O4   1620 -0.90377100  16.000000   ; qtot -5.096230
 1621          o     64    ccc     O5   1621 -0.90377100  16.000000   ; qtot -6.000001
; residue   65 ccc rtp ccc q -2.0
 1622          n     65    ccc     N1   1622 -0.63700000  14.010000   ; qtot -6.637001
 1623         hn     65    ccc     H4   1623 0.34234400   1.008000   ; qtot -6.294657
 1624         c3     65    ccc     C3   1624 0.01091100  12.010000   ; qtot -6.283746
 1625         h1     65    ccc     H5   1625 0.11190000   1.008000   ; qtot -6.171846
 1626         c3     65    ccc     C4   1626 -0.06161800  12.010000   ; qtot -6.233464
 1627         h1     65    ccc     H6   1627 0.11190000   1.008000   ; qtot -6.121564
 1628         h1     65    ccc     H7   1628 0.11248000   1.008000   ; qtot -6.009084
 1629         h1     65    ccc     H8   1629 0.11248000   1.008000   ; qtot -5.896604
 1630         n3     65    ccc     N2   1630 -0.49292700  14.010000   ; qtot -6.389531
 1631         c3     65    ccc     C5   1631 0.00117700  12.010000   ; qtot -6.388354
 1632         c3     65    ccc     C6   1632 0.00117700  12.010000   ; qtot -6.387177
 1633         h1     65    ccc     H9   1633 0.05345200   1.008000   ; qtot -6.333725
 1634         c3     65    ccc     C7   1634 0.03104100  12.010000   ; qtot -6.302684
 1635         h1     65    ccc    H10   1635 0.05345200   1.008000   ; qtot -6.249232
 1636         hc     65    ccc    H11   1636 -0.03377200   1.008000   ; qtot -6.283004
 1637         hc     65    ccc    H12   1637 -0.03377200   1.008000   ; qtot -6.316776
 1638          c     65    ccc     C8   1638 0.93072900  12.010000   ; qtot -5.386047
 1639          o     65    ccc     O2   1639 -0.90377100  16.000000   ; qtot -6.289818
 1640          o     65    ccc     O3   1640 -0.90377100  16.000000   ; qtot -7.193589
 1641         h1     65    ccc    H13   1641 0.05345200   1.008000   ; qtot -7.140137
 1642         h1     65    ccc    H14   1642 0.05345200   1.008000   ; qtot -7.086685
 1643         c3     65    ccc     C9   1643 0.03104100  12.010000   ; qtot -7.055644
 1644         hc     65    ccc    H15   1644 -0.03377200   1.008000   ; qtot -7.089416
 1645         hc     65    ccc    H16   1645 -0.03377200   1.008000   ; qtot -7.123188
 1646          c     65    ccc    C10   1646 0.93072900  12.010000   ; qtot -6.192459
 1647          o     65    ccc     O4   1647 -0.90377100  16.000000   ; qtot -7.096230
 1648          o     65    ccc     O5   1648 -0.90377100  16.000000   ; qtot -8.000001
; residue   66 ccc rtp ccc q -2.0
 1649          n     66    ccc     N1   1649 -0.63700000  14.010000   ; qtot -8.637001
 1650         hn     66    ccc     H4   1650 0.34234400   1.008000   ; qtot -8.294657
 1651         c3     66    ccc     C3   1651 0.01091100  12.010000   ; qtot -8.283746
 1652         h1     66    ccc     H5   1652 0.11190000   1.008000   ; qtot -8.171846
 1653         c3     66    ccc     C4   1653 -0.06161800  12.010000   ; qtot -8.233464
 1654         h1     66    ccc     H6   1654 0.11190000   1.008000   ; qtot -8.121564
 1655         h1     66    ccc     H7   1655 0.11248000   1.008000   ; qtot -8.009084
 1656         h1     66    ccc     H8   1656 0.11248000   1.008000   ; qtot -7.896604
 1657         n3     66    ccc     N2   1657 -0.49292700  14.010000   ; qtot -8.389531
 1658         c3     66    ccc     C5   1658 0.00117700  12.010000   ; qtot -8.388354
 1659         c3     66    ccc     C6   1659 0.00117700  12.010000   ; qtot -8.387177
 1660         h1     66    ccc     H9   1660 0.05345200   1.008000   ; qtot -8.333725
 1661         c3     66    ccc     C7   1661 0.03104100  12.010000   ; qtot -8.302684
 1662         h1     66    ccc    H10   1662 0.05345200   1.008000   ; qtot -8.249232
 1663         hc     66    ccc    H11   1663 -0.03377200   1.008000   ; qtot -8.283004
 1664         hc     66    ccc    H12   1664 -0.03377200   1.008000   ; qtot -8.316776
 1665          c     66    ccc     C8   1665 0.93072900  12.010000   ; qtot -7.386047
 1666          o     66    ccc     O2   1666 -0.90377100  16.000000   ; qtot -8.289818
 1667          o     66    ccc     O3   1667 -0.90377100  16.000000   ; qtot -9.193589
 1668         h1     66    ccc    H13   1668 0.05345200   1.008000   ; qtot -9.140137
 1669         h1     66    ccc    H14   1669 0.05345200   1.008000   ; qtot -9.086685
 1670         c3     66    ccc     C9   1670 0.03104100  12.010000   ; qtot -9.055644
 1671         hc     66    ccc    H15   1671 -0.03377200   1.008000   ; qtot -9.089416
 1672         hc     66    ccc    H16   1672 -0.03377200   1.008000   ; qtot -9.123188
 1673          c     66    ccc    C10   1673 0.93072900  12.010000   ; qtot -8.192459
 1674          o     66    ccc     O4   1674 -0.90377100  16.000000   ; qtot -9.096230
 1675          o     66    ccc     O5   1675 -0.90377100  16.000000   ; qtot -10.000001
; residue   67 ccc rtp ccc q -2.0
 1676          n     67    ccc     N1   1676 -0.63700000  14.010000   ; qtot -10.637001
 1677         hn     67    ccc     H4   1677 0.34234400   1.008000   ; qtot -10.294657
 1678         c3     67    ccc     C3   1678 0.01091100  12.010000   ; qtot -10.283746
 1679         h1     67    ccc     H5   1679 0.11190000   1.008000   ; qtot -10.171846
 1680         c3     67    ccc     C4   1680 -0.06161800  12.010000   ; qtot -10.233464
 1681         h1     67    ccc     H6   1681 0.11190000   1.008000   ; qtot -10.121564
 1682         h1     67    ccc     H7   1682 0.11248000   1.008000   ; qtot -10.009084
 1683         h1     67    ccc     H8   1683 0.11248000   1.008000   ; qtot -9.896604
 1684         n3     67    ccc     N2   1684 -0.49292700  14.010000   ; qtot -10.389531
 1685         c3     67    ccc     C5   1685 0.00117700  12.010000   ; qtot -10.388354
 1686         c3     67    ccc     C6   1686 0.00117700  12.010000   ; qtot -10.387177
 1687         h1     67    ccc     H9   1687 0.05345200   1.008000   ; qtot -10.333725
 1688         c3     67    ccc     C7   1688 0.03104100  12.010000   ; qtot -10.302684
 1689         h1     67    ccc    H10   1689 0.05345200   1.008000   ; qtot -10.249232
 1690         hc     67    ccc    H11   1690 -0.03377200   1.008000   ; qtot -10.283004
 1691         hc     67    ccc    H12   1691 -0.03377200   1.008000   ; qtot -10.316776
 1692          c     67    ccc     C8   1692 0.93072900  12.010000   ; qtot -9.386047
 1693          o     67    ccc     O2   1693 -0.90377100  16.000000   ; qtot -10.289818
 1694          o     67    ccc     O3   1694 -0.90377100  16.000000   ; qtot -11.193589
 1695         h1     67    ccc    H13   1695 0.05345200   1.008000   ; qtot -11.140137
 1696         h1     67    ccc    H14   1696 0.05345200   1.008000   ; qtot -11.086685
 1697         c3     67    ccc     C9   1697 0.03104100  12.010000   ; qtot -11.055644
 1698         hc     67    ccc    H15   1698 -0.03377200   1.008000   ; qtot -11.089416
 1699         hc     67    ccc    H16   1699 -0.03377200   1.008000   ; qtot -11.123188
 1700          c     67    ccc    C10   1700 0.93072900  12.010000   ; qtot -10.192459
 1701          o     67    ccc     O4   1701 -0.90377100  16.000000   ; qtot -11.096230
 1702          o     67    ccc     O5   1702 -0.90377100  16.000000   ; qtot -12.000001
; residue   68 ccc rtp ccc q -2.0
 1703          n     68    ccc     N1   1703 -0.63700000  14.010000   ; qtot -12.637001
 1704         hn     68    ccc     H4   1704 0.34234400   1.008000   ; qtot -12.294657
 1705         c3     68    ccc     C3   1705 0.01091100  12.010000   ; qtot -12.283746
 1706         h1     68    ccc     H5   1706 0.11190000   1.008000   ; qtot -12.171846
 1707         c3     68    ccc     C4   1707 -0.06161800  12.010000   ; qtot -12.233464
 1708         h1     68    ccc     H6   1708 0.11190000   1.008000   ; qtot -12.121564
 1709         h1     68    ccc     H7   1709 0.11248000   1.008000   ; qtot -12.009084
 1710         h1     68    ccc     H8   1710 0.11248000   1.008000   ; qtot -11.896604
 1711         n3     68    ccc     N2   1711 -0.49292700  14.010000   ; qtot -12.389531
 1712         c3     68    ccc     C5   1712 0.00117700  12.010000   ; qtot -12.388354
 1713         c3     68    ccc     C6   1713 0.00117700  12.010000   ; qtot -12.387177
 1714         h1     68    ccc     H9   1714 0.05345200   1.008000   ; qtot -12.333725
 1715         c3     68    ccc     C7   1715 0.03104100  12.010000   ; qtot -12.302684
 1716         h1     68    ccc    H10   1716 0.05345200   1.008000   ; qtot -12.249232
 1717         hc     68    ccc    H11   1717 -0.03377200   1.008000   ; qtot -12.283004
 1718         hc     68    ccc    H12   1718 -0.03377200   1.008000   ; qtot -12.316776
 1719          c     68    ccc     C8   1719 0.93072900  12.010000   ; qtot -11.386047
 1720          o     68    ccc     O2   1720 -0.90377100  16.000000   ; qtot -12.289818
 1721          o     68    ccc     O3   1721 -0.90377100  16.000000   ; qtot -13.193589
 1722         h1     68    ccc    H13   1722 0.05345200   1.008000   ; qtot -13.140137
 1723         h1     68    ccc    H14   1723 0.05345200   1.008000   ; qtot -13.086685
 1724         c3     68    ccc     C9   1724 0.03104100  12.010000   ; qtot -13.055644
 1725         hc     68    ccc    H15   1725 -0.03377200   1.008000   ; qtot -13.089416
 1726         hc     68    ccc    H16   1726 -0.03377200   1.008000   ; qtot -13.123188
 1727          c     68    ccc    C10   1727 0.93072900  12.010000   ; qtot -12.192459
 1728          o     68    ccc     O4   1728 -0.90377100  16.000000   ; qtot -13.096230
 1729          o     68    ccc     O5   1729 -0.90377100  16.000000   ; qtot -14.000001
; residue   69 ccc rtp ccc q -2.0
 1730          n     69    ccc     N1   1730 -0.63700000  14.010000   ; qtot -14.637001
 1731         hn     69    ccc     H4   1731 0.34234400   1.008000   ; qtot -14.294657
 1732         c3     69    ccc     C3   1732 0.01091100  12.010000   ; qtot -14.283746
 1733         h1     69    ccc     H5   1733 0.11190000   1.008000   ; qtot -14.171846
 1734         c3     69    ccc     C4   1734 -0.06161800  12.010000   ; qtot -14.233464
 1735         h1     69    ccc     H6   1735 0.11190000   1.008000   ; qtot -14.121564
 1736         h1     69    ccc     H7   1736 0.11248000   1.008000   ; qtot -14.009084
 1737         h1     69    ccc     H8   1737 0.11248000   1.008000   ; qtot -13.896604
 1738         n3     69    ccc     N2   1738 -0.49292700  14.010000   ; qtot -14.389531
 1739         c3     69    ccc     C5   1739 0.00117700  12.010000   ; qtot -14.388354
 1740         c3     69    ccc     C6   1740 0.00117700  12.010000   ; qtot -14.387177
 1741         h1     69    ccc     H9   1741 0.05345200   1.008000   ; qtot -14.333725
 1742         c3     69    ccc     C7   1742 0.03104100  12.010000   ; qtot -14.302684
 1743         h1     69    ccc    H10   1743 0.05345200   1.008000   ; qtot -14.249232
 1744         hc     69    ccc    H11   1744 -0.03377200   1.008000   ; qtot -14.283004
 1745         hc     69    ccc    H12   1745 -0.03377200   1.008000   ; qtot -14.316776
 1746          c     69    ccc     C8   1746 0.93072900  12.010000   ; qtot -13.386047
 1747          o     69    ccc     O2   1747 -0.90377100  16.000000   ; qtot -14.289818
 1748          o     69    ccc     O3   1748 -0.90377100  16.000000   ; qtot -15.193589
 1749         h1     69    ccc    H13   1749 0.05345200   1.008000   ; qtot -15.140137
 1750         h1     69    ccc    H14   1750 0.05345200   1.008000   ; qtot -15.086685
 1751         c3     69    ccc     C9   1751 0.03104100  12.010000   ; qtot -15.055644
 1752         hc     69    ccc    H15   1752 -0.03377200   1.008000   ; qtot -15.089416
 1753         hc     69    ccc    H16   1753 -0.03377200   1.008000   ; qtot -15.123188
 1754          c     69    ccc    C10   1754 0.93072900  12.010000   ; qtot -14.192459
 1755          o     69    ccc     O4   1755 -0.90377100  16.000000   ; qtot -15.096230
 1756          o     69    ccc     O5   1756 -0.90377100  16.000000   ; qtot -16.000001
; residue   70 ccc rtp ccc q -2.0
 1757          n     70    ccc     N1   1757 -0.63700000  14.010000   ; qtot -16.637001
 1758         hn     70    ccc     H4   1758 0.34234400   1.008000   ; qtot -16.294657
 1759         c3     70    ccc     C3   1759 0.01091100  12.010000   ; qtot -16.283746
 1760         h1     70    ccc     H5   1760 0.11190000   1.008000   ; qtot -16.171846
 1761         c3     70    ccc     C4   1761 -0.06161800  12.010000   ; qtot -16.233464
 1762         h1     70    ccc     H6   1762 0.11190000   1.008000   ; qtot -16.121564
 1763         h1     70    ccc     H7   1763 0.11248000   1.008000   ; qtot -16.009084
 1764         h1     70    ccc     H8   1764 0.11248000   1.008000   ; qtot -15.896604
 1765         n3     70    ccc     N2   1765 -0.49292700  14.010000   ; qtot -16.389531
 1766         c3     70    ccc     C5   1766 0.00117700  12.010000   ; qtot -16.388354
 1767         c3     70    ccc     C6   1767 0.00117700  12.010000   ; qtot -16.387177
 1768         h1     70    ccc     H9   1768 0.05345200   1.008000   ; qtot -16.333725
 1769         c3     70    ccc     C7   1769 0.03104100  12.010000   ; qtot -16.302684
 1770         h1     70    ccc    H10   1770 0.05345200   1.008000   ; qtot -16.249232
 1771         hc     70    ccc    H11   1771 -0.03377200   1.008000   ; qtot -16.283004
 1772         hc     70    ccc    H12   1772 -0.03377200   1.008000   ; qtot -16.316776
 1773          c     70    ccc     C8   1773 0.93072900  12.010000   ; qtot -15.386047
 1774          o     70    ccc     O2   1774 -0.90377100  16.000000   ; qtot -16.289818
 1775          o     70    ccc     O3   1775 -0.90377100  16.000000   ; qtot -17.193589
 1776         h1     70    ccc    H13   1776 0.05345200   1.008000   ; qtot -17.140137
 1777         h1     70    ccc    H14   1777 0.05345200   1.008000   ; qtot -17.086685
 1778         c3     70    ccc     C9   1778 0.03104100  12.010000   ; qtot -17.055644
 1779         hc     70    ccc    H15   1779 -0.03377200   1.008000   ; qtot -17.089416
 1780         hc     70    ccc    H16   1780 -0.03377200   1.008000   ; qtot -17.123188
 1781          c     70    ccc    C10   1781 0.93072900  12.010000   ; qtot -16.192459
 1782          o     70    ccc     O4   1782 -0.90377100  16.000000   ; qtot -17.096230
 1783          o     70    ccc     O5   1783 -0.90377100  16.000000   ; qtot -18.000001
; residue   71 ccc rtp ccc q -2.0
 1784          n     71    ccc     N1   1784 -0.63700000  14.010000   ; qtot -18.637001
 1785         hn     71    ccc     H4   1785 0.34234400   1.008000   ; qtot -18.294657
 1786         c3     71    ccc     C3   1786 0.01091100  12.010000   ; qtot -18.283746
 1787         h1     71    ccc     H5   1787 0.11190000   1.008000   ; qtot -18.171846
 1788         c3     71    ccc     C4   1788 -0.06161800  12.010000   ; qtot -18.233464
 1789         h1     71    ccc     H6   1789 0.11190000   1.008000   ; qtot -18.121564
 1790         h1     71    ccc     H7   1790 0.11248000   1.008000   ; qtot -18.009084
 1791         h1     71    ccc     H8   1791 0.11248000   1.008000   ; qtot -17.896604
 1792         n3     71    ccc     N2   1792 -0.49292700  14.010000   ; qtot -18.389531
 1793         c3     71    ccc     C5   1793 0.00117700  12.010000   ; qtot -18.388354
 1794         c3     71    ccc     C6   1794 0.00117700  12.010000   ; qtot -18.387177
 1795         h1     71    ccc     H9   1795 0.05345200   1.008000   ; qtot -18.333725
 1796         c3     71    ccc     C7   1796 0.03104100  12.010000   ; qtot -18.302684
 1797         h1     71    ccc    H10   1797 0.05345200   1.008000   ; qtot -18.249232
 1798         hc     71    ccc    H11   1798 -0.03377200   1.008000   ; qtot -18.283004
 1799         hc     71    ccc    H12   1799 -0.03377200   1.008000   ; qtot -18.316776
 1800          c     71    ccc     C8   1800 0.93072900  12.010000   ; qtot -17.386047
 1801          o     71    ccc     O2   1801 -0.90377100  16.000000   ; qtot -18.289818
 1802          o     71    ccc     O3   1802 -0.90377100  16.000000   ; qtot -19.193589
 1803         h1     71    ccc    H13   1803 0.05345200   1.008000   ; qtot -19.140137
 1804         h1     71    ccc    H14   1804 0.05345200   1.008000   ; qtot -19.086685
 1805         c3     71    ccc     C9   1805 0.03104100  12.010000   ; qtot -19.055644
 1806         hc     71    ccc    H15   1806 -0.03377200   1.008000   ; qtot -19.089416
 1807         hc     71    ccc    H16   1807 -0.03377200   1.008000   ; qtot -19.123188
 1808          c     71    ccc    C10   1808 0.93072900  12.010000   ; qtot -18.192459
 1809          o     71    ccc     O4   1809 -0.90377100  16.000000   ; qtot -19.096230
 1810          o     71    ccc     O5   1810 -0.90377100  16.000000   ; qtot -20.000001
; residue   72 ccc rtp ccc q -2.0
 1811          n     72    ccc     N1   1811 -0.63700000  14.010000   ; qtot -20.637001
 1812         hn     72    ccc     H4   1812 0.34234400   1.008000   ; qtot -20.294657
 1813         c3     72    ccc     C3   1813 0.01091100  12.010000   ; qtot -20.283746
 1814         h1     72    ccc     H5   1814 0.11190000   1.008000   ; qtot -20.171846
 1815         c3     72    ccc     C4   1815 -0.06161800  12.010000   ; qtot -20.233464
 1816         h1     72    ccc     H6   1816 0.11190000   1.008000   ; qtot -20.121564
 1817         h1     72    ccc     H7   1817 0.11248000   1.008000   ; qtot -20.009084
 1818         h1     72    ccc     H8   1818 0.11248000   1.008000   ; qtot -19.896604
 1819         n3     72    ccc     N2   1819 -0.49292700  14.010000   ; qtot -20.389531
 1820         c3     72    ccc     C5   1820 0.00117700  12.010000   ; qtot -20.388354
 1821         c3     72    ccc     C6   1821 0.00117700  12.010000   ; qtot -20.387177
 1822         h1     72    ccc     H9   1822 0.05345200   1.008000   ; qtot -20.333725
 1823         c3     72    ccc     C7   1823 0.03104100  12.010000   ; qtot -20.302684
 1824         h1     72    ccc    H10   1824 0.05345200   1.008000   ; qtot -20.249232
 1825         hc     72    ccc    H11   1825 -0.03377200   1.008000   ; qtot -20.283004
 1826         hc     72    ccc    H12   1826 -0.03377200   1.008000   ; qtot -20.316776
 1827          c     72    ccc     C8   1827 0.93072900  12.010000   ; qtot -19.386047
 1828          o     72    ccc     O2   1828 -0.90377100  16.000000   ; qtot -20.289818
 1829          o     72    ccc     O3   1829 -0.90377100  16.000000   ; qtot -21.193589
 1830         h1     72    ccc    H13   1830 0.05345200   1.008000   ; qtot -21.140137
 1831         h1     72    ccc    H14   1831 0.05345200   1.008000   ; qtot -21.086685
 1832         c3     72    ccc     C9   1832 0.03104100  12.010000   ; qtot -21.055644
 1833         hc     72    ccc    H15   1833 -0.03377200   1.008000   ; qtot -21.089416
 1834         hc     72    ccc    H16   1834 -0.03377200   1.008000   ; qtot -21.123188
 1835          c     72    ccc    C10   1835 0.93072900  12.010000   ; qtot -20.192459
 1836          o     72    ccc     O4   1836 -0.90377100  16.000000   ; qtot -21.096230
 1837          o     72    ccc     O5   1837 -0.90377100  16.000000   ; qtot -22.000001
; residue   73 ccc rtp ccc q -2.0
 1838          n     73    ccc     N1   1838 -0.63700000  14.010000   ; qtot -22.637001
 1839         hn     73    ccc     H4   1839 0.34234400   1.008000   ; qtot -22.294657
 1840         c3     73    ccc     C3   1840 0.01091100  12.010000   ; qtot -22.283746
 1841         h1     73    ccc     H5   1841 0.11190000   1.008000   ; qtot -22.171846
 1842         c3     73    ccc     C4   1842 -0.06161800  12.010000   ; qtot -22.233464
 1843         h1     73    ccc     H6   1843 0.11190000   1.008000   ; qtot -22.121564
 1844         h1     73    ccc     H7   1844 0.11248000   1.008000   ; qtot -22.009084
 1845         h1     73    ccc     H8   1845 0.11248000   1.008000   ; qtot -21.896604
 1846         n3     73    ccc     N2   1846 -0.49292700  14.010000   ; qtot -22.389531
 1847         c3     73    ccc     C5   1847 0.00117700  12.010000   ; qtot -22.388354
 1848         c3     73    ccc     C6   1848 0.00117700  12.010000   ; qtot -22.387177
 1849         h1     73    ccc     H9   1849 0.05345200   1.008000   ; qtot -22.333725
 1850         c3     73    ccc     C7   1850 0.03104100  12.010000   ; qtot -22.302684
 1851         h1     73    ccc    H10   1851 0.05345200   1.008000   ; qtot -22.249232
 1852         hc     73    ccc    H11   1852 -0.03377200   1.008000   ; qtot -22.283004
 1853         hc     73    ccc    H12   1853 -0.03377200   1.008000   ; qtot -22.316776
 1854          c     73    ccc     C8   1854 0.93072900  12.010000   ; qtot -21.386047
 1855          o     73    ccc     O2   1855 -0.90377100  16.000000   ; qtot -22.289818
 1856          o     73    ccc     O3   1856 -0.90377100  16.000000   ; qtot -23.193589
 1857         h1     73    ccc    H13   1857 0.05345200   1.008000   ; qtot -23.140137
 1858         h1     73    ccc    H14   1858 0.05345200   1.008000   ; qtot -23.086685
 1859         c3     73    ccc     C9   1859 0.03104100  12.010000   ; qtot -23.055644
 1860         hc     73    ccc    H15   1860 -0.03377200   1.008000   ; qtot -23.089416
 1861         hc     73    ccc    H16   1861 -0.03377200   1.008000   ; qtot -23.123188
 1862          c     73    ccc    C10   1862 0.93072900  12.010000   ; qtot -22.192459
 1863          o     73    ccc     O4   1863 -0.90377100  16.000000   ; qtot -23.096230
 1864          o     73    ccc     O5   1864 -0.90377100  16.000000   ; qtot -24.000001
; residue   74 ccc rtp ccc q -2.0
 1865          n     74    ccc     N1   1865 -0.63700000  14.010000   ; qtot -24.637001
 1866         hn     74    ccc     H4   1866 0.34234400   1.008000   ; qtot -24.294657
 1867         c3     74    ccc     C3   1867 0.01091100  12.010000   ; qtot -24.283746
 1868         h1     74    ccc     H5   1868 0.11190000   1.008000   ; qtot -24.171846
 1869         c3     74    ccc     C4   1869 -0.06161800  12.010000   ; qtot -24.233464
 1870         h1     74    ccc     H6   1870 0.11190000   1.008000   ; qtot -24.121564
 1871         h1     74    ccc     H7   1871 0.11248000   1.008000   ; qtot -24.009084
 1872         h1     74    ccc     H8   1872 0.11248000   1.008000   ; qtot -23.896604
 1873         n3     74    ccc     N2   1873 -0.49292700  14.010000   ; qtot -24.389531
 1874         c3     74    ccc     C5   1874 0.00117700  12.010000   ; qtot -24.388354
 1875         c3     74    ccc     C6   1875 0.00117700  12.010000   ; qtot -24.387177
 1876         h1     74    ccc     H9   1876 0.05345200   1.008000   ; qtot -24.333725
 1877         c3     74    ccc     C7   1877 0.03104100  12.010000   ; qtot -24.302684
 1878         h1     74    ccc    H10   1878 0.05345200   1.008000   ; qtot -24.249232
 1879         hc     74    ccc    H11   1879 -0.03377200   1.008000   ; qtot -24.283004
 1880         hc     74    ccc    H12   1880 -0.03377200   1.008000   ; qtot -24.316776
 1881          c     74    ccc     C8   1881 0.93072900  12.010000   ; qtot -23.386047
 1882          o     74    ccc     O2   1882 -0.90377100  16.000000   ; qtot -24.289818
 1883          o     74    ccc     O3   1883 -0.90377100  16.000000   ; qtot -25.193589
 1884         h1     74    ccc    H13   1884 0.05345200   1.008000   ; qtot -25.140137
 1885         h1     74    ccc    H14   1885 0.05345200   1.008000   ; qtot -25.086685
 1886         c3     74    ccc     C9   1886 0.03104100  12.010000   ; qtot -25.055644
 1887         hc     74    ccc    H15   1887 -0.03377200   1.008000   ; qtot -25.089416
 1888         hc     74    ccc    H16   1888 -0.03377200   1.008000   ; qtot -25.123188
 1889          c     74    ccc    C10   1889 0.93072900  12.010000   ; qtot -24.192459
 1890          o     74    ccc     O4   1890 -0.90377100  16.000000   ; qtot -25.096230
 1891          o     74    ccc     O5   1891 -0.90377100  16.000000   ; qtot -26.000001
; residue   75 ccc rtp ccc q -2.0
 1892          n     75    ccc     N1   1892 -0.63700000  14.010000   ; qtot -26.637001
 1893         hn     75    ccc     H4   1893 0.34234400   1.008000   ; qtot -26.294657
 1894         c3     75    ccc     C3   1894 0.01091100  12.010000   ; qtot -26.283746
 1895         h1     75    ccc     H5   1895 0.11190000   1.008000   ; qtot -26.171846
 1896         c3     75    ccc     C4   1896 -0.06161800  12.010000   ; qtot -26.233464
 1897         h1     75    ccc     H6   1897 0.11190000   1.008000   ; qtot -26.121564
 1898         h1     75    ccc     H7   1898 0.11248000   1.008000   ; qtot -26.009084
 1899         h1     75    ccc     H8   1899 0.11248000   1.008000   ; qtot -25.896604
 1900         n3     75    ccc     N2   1900 -0.49292700  14.010000   ; qtot -26.389531
 1901         c3     75    ccc     C5   1901 0.00117700  12.010000   ; qtot -26.388354
 1902         c3     75    ccc     C6   1902 0.00117700  12.010000   ; qtot -26.387177
 1903         h1     75    ccc     H9   1903 0.05345200   1.008000   ; qtot -26.333725
 1904         c3     75    ccc     C7   1904 0.03104100  12.010000   ; qtot -26.302684
 1905         h1     75    ccc    H10   1905 0.05345200   1.008000   ; qtot -26.249232
 1906         hc     75    ccc    H11   1906 -0.03377200   1.008000   ; qtot -26.283004
 1907         hc     75    ccc    H12   1907 -0.03377200   1.008000   ; qtot -26.316776
 1908          c     75    ccc     C8   1908 0.93072900  12.010000   ; qtot -25.386047
 1909          o     75    ccc     O2   1909 -0.90377100  16.000000   ; qtot -26.289818
 1910          o     75    ccc     O3   1910 -0.90377100  16.000000   ; qtot -27.193589
 1911         h1     75    ccc    H13   1911 0.05345200   1.008000   ; qtot -27.140137
 1912         h1     75    ccc    H14   1912 0.05345200   1.008000   ; qtot -27.086685
 1913         c3     75    ccc     C9   1913 0.03104100  12.010000   ; qtot -27.055644
 1914         hc     75    ccc    H15   1914 -0.03377200   1.008000   ; qtot -27.089416
 1915         hc     75    ccc    H16   1915 -0.03377200   1.008000   ; qtot -27.123188
 1916          c     75    ccc    C10   1916 0.93072900  12.010000   ; qtot -26.192459
 1917          o     75    ccc     O4   1917 -0.90377100  16.000000   ; qtot -27.096230
 1918          o     75    ccc     O5   1918 -0.90377100  16.000000   ; qtot -28.000001
; residue   76 ccc rtp ccc q -2.0
 1919          n     76    ccc     N1   1919 -0.63700000  14.010000   ; qtot -28.637001
 1920         hn     76    ccc     H4   1920 0.34234400   1.008000   ; qtot -28.294657
 1921         c3     76    ccc     C3   1921 0.01091100  12.010000   ; qtot -28.283746
 1922         h1     76    ccc     H5   1922 0.11190000   1.008000   ; qtot -28.171846
 1923         c3     76    ccc     C4   1923 -0.06161800  12.010000   ; qtot -28.233464
 1924         h1     76    ccc     H6   1924 0.11190000   1.008000   ; qtot -28.121564
 1925         h1     76    ccc     H7   1925 0.11248000   1.008000   ; qtot -28.009084
 1926         h1     76    ccc     H8   1926 0.11248000   1.008000   ; qtot -27.896604
 1927         n3     76    ccc     N2   1927 -0.49292700  14.010000   ; qtot -28.389531
 1928         c3     76    ccc     C5   1928 0.00117700  12.010000   ; qtot -28.388354
 1929         c3     76    ccc     C6   1929 0.00117700  12.010000   ; qtot -28.387177
 1930         h1     76    ccc     H9   1930 0.05345200   1.008000   ; qtot -28.333725
 1931         c3     76    ccc     C7   1931 0.03104100  12.010000   ; qtot -28.302684
 1932         h1     76    ccc    H10   1932 0.05345200   1.008000   ; qtot -28.249232
 1933         hc     76    ccc    H11   1933 -0.03377200   1.008000   ; qtot -28.283004
 1934         hc     76    ccc    H12   1934 -0.03377200   1.008000   ; qtot -28.316776
 1935          c     76    ccc     C8   1935 0.93072900  12.010000   ; qtot -27.386047
 1936          o     76    ccc     O2   1936 -0.90377100  16.000000   ; qtot -28.289818
 1937          o     76    ccc     O3   1937 -0.90377100  16.000000   ; qtot -29.193589
 1938         h1     76    ccc    H13   1938 0.05345200   1.008000   ; qtot -29.140137
 1939         h1     76    ccc    H14   1939 0.05345200   1.008000   ; qtot -29.086685
 1940         c3     76    ccc     C9   1940 0.03104100  12.010000   ; qtot -29.055644
 1941         hc     76    ccc    H15   1941 -0.03377200   1.008000   ; qtot -29.089416
 1942         hc     76    ccc    H16   1942 -0.03377200   1.008000   ; qtot -29.123188
 1943          c     76    ccc    C10   1943 0.93072900  12.010000   ; qtot -28.192459
 1944          o     76    ccc     O4   1944 -0.90377100  16.000000   ; qtot -29.096230
 1945          o     76    ccc     O5   1945 -0.90377100  16.000000   ; qtot -30.000001
; residue   77 ccc rtp ccc q -2.0
 1946          n     77    ccc     N1   1946 -0.63700000  14.010000   ; qtot -30.637001
 1947         hn     77    ccc     H4   1947 0.34234400   1.008000   ; qtot -30.294657
 1948         c3     77    ccc     C3   1948 0.01091100  12.010000   ; qtot -30.283746
 1949         h1     77    ccc     H5   1949 0.11190000   1.008000   ; qtot -30.171846
 1950         c3     77    ccc     C4   1950 -0.06161800  12.010000   ; qtot -30.233464
 1951         h1     77    ccc     H6   1951 0.11190000   1.008000   ; qtot -30.121564
 1952         h1     77    ccc     H7   1952 0.11248000   1.008000   ; qtot -30.009084
 1953         h1     77    ccc     H8   1953 0.11248000   1.008000   ; qtot -29.896604
 1954         n3     77    ccc     N2   1954 -0.49292700  14.010000   ; qtot -30.389531
 1955         c3     77    ccc     C5   1955 0.00117700  12.010000   ; qtot -30.388354
 1956         c3     77    ccc     C6   1956 0.00117700  12.010000   ; qtot -30.387177
 1957         h1     77    ccc     H9   1957 0.05345200   1.008000   ; qtot -30.333725
 1958         c3     77    ccc     C7   1958 0.03104100  12.010000   ; qtot -30.302684
 1959         h1     77    ccc    H10   1959 0.05345200   1.008000   ; qtot -30.249232
 1960         hc     77    ccc    H11   1960 -0.03377200   1.008000   ; qtot -30.283004
 1961         hc     77    ccc    H12   1961 -0.03377200   1.008000   ; qtot -30.316776
 1962          c     77    ccc     C8   1962 0.93072900  12.010000   ; qtot -29.386047
 1963          o     77    ccc     O2   1963 -0.90377100  16.000000   ; qtot -30.289818
 1964          o     77    ccc     O3   1964 -0.90377100  16.000000   ; qtot -31.193589
 1965         h1     77    ccc    H13   1965 0.05345200   1.008000   ; qtot -31.140137
 1966         h1     77    ccc    H14   1966 0.05345200   1.008000   ; qtot -31.086685
 1967         c3     77    ccc     C9   1967 0.03104100  12.010000   ; qtot -31.055644
 1968         hc     77    ccc    H15   1968 -0.03377200   1.008000   ; qtot -31.089416
 1969         hc     77    ccc    H16   1969 -0.03377200   1.008000   ; qtot -31.123188
 1970          c     77    ccc    C10   1970 0.93072900  12.010000   ; qtot -30.192459
 1971          o     77    ccc     O4   1971 -0.90377100  16.000000   ; qtot -31.096230
 1972          o     77    ccc     O5   1972 -0.90377100  16.000000   ; qtot -32.000001
; residue   78 ccc rtp ccc q -2.0
 1973          n     78    ccc     N1   1973 -0.63700000  14.010000   ; qtot -32.637001
 1974         hn     78    ccc     H4   1974 0.34234400   1.008000   ; qtot -32.294657
 1975         c3     78    ccc     C3   1975 0.01091100  12.010000   ; qtot -32.283746
 1976         h1     78    ccc     H5   1976 0.11190000   1.008000   ; qtot -32.171846
 1977         c3     78    ccc     C4   1977 -0.06161800  12.010000   ; qtot -32.233464
 1978         h1     78    ccc     H6   1978 0.11190000   1.008000   ; qtot -32.121564
 1979         h1     78    ccc     H7   1979 0.11248000   1.008000   ; qtot -32.009084
 1980         h1     78    ccc     H8   1980 0.11248000   1.008000   ; qtot -31.896604
 1981         n3     78    ccc     N2   1981 -0.49292700  14.010000   ; qtot -32.389531
 1982         c3     78    ccc     C5   1982 0.00117700  12.010000   ; qtot -32.388354
 1983         c3     78    ccc     C6   1983 0.00117700  12.010000   ; qtot -32.387177
 1984         h1     78    ccc     H9   1984 0.05345200   1.008000   ; qtot -32.333725
 1985         c3     78    ccc     C7   1985 0.03104100  12.010000   ; qtot -32.302684
 1986         h1     78    ccc    H10   1986 0.05345200   1.008000   ; qtot -32.249232
 1987         hc     78    ccc    H11   1987 -0.03377200   1.008000   ; qtot -32.283004
 1988         hc     78    ccc    H12   1988 -0.03377200   1.008000   ; qtot -32.316776
 1989          c     78    ccc     C8   1989 0.93072900  12.010000   ; qtot -31.386047
 1990          o     78    ccc     O2   1990 -0.90377100  16.000000   ; qtot -32.289818
 1991          o     78    ccc     O3   1991 -0.90377100  16.000000   ; qtot -33.193589
 1992         h1     78    ccc    H13   1992 0.05345200   1.008000   ; qtot -33.140137
 1993         h1     78    ccc    H14   1993 0.05345200   1.008000   ; qtot -33.086685
 1994         c3     78    ccc     C9   1994 0.03104100  12.010000   ; qtot -33.055644
 1995         hc     78    ccc    H15   1995 -0.03377200   1.008000   ; qtot -33.089416
 1996         hc     78    ccc    H16   1996 -0.03377200   1.008000   ; qtot -33.123188
 1997          c     78    ccc    C10   1997 0.93072900  12.010000   ; qtot -32.192459
 1998          o     78    ccc     O4   1998 -0.90377100  16.000000   ; qtot -33.096230
 1999          o     78    ccc     O5   1999 -0.90377100  16.000000   ; qtot -34.000001
; residue   79 ccc rtp ccc q -2.0
 2000          n     79    ccc     N1   2000 -0.63700000  14.010000   ; qtot -34.637001
 2001         hn     79    ccc     H4   2001 0.34234400   1.008000   ; qtot -34.294657
 2002         c3     79    ccc     C3   2002 0.01091100  12.010000   ; qtot -34.283746
 2003         h1     79    ccc     H5   2003 0.11190000   1.008000   ; qtot -34.171846
 2004         c3     79    ccc     C4   2004 -0.06161800  12.010000   ; qtot -34.233464
 2005         h1     79    ccc     H6   2005 0.11190000   1.008000   ; qtot -34.121564
 2006         h1     79    ccc     H7   2006 0.11248000   1.008000   ; qtot -34.009084
 2007         h1     79    ccc     H8   2007 0.11248000   1.008000   ; qtot -33.896604
 2008         n3     79    ccc     N2   2008 -0.49292700  14.010000   ; qtot -34.389531
 2009         c3     79    ccc     C5   2009 0.00117700  12.010000   ; qtot -34.388354
 2010         c3     79    ccc     C6   2010 0.00117700  12.010000   ; qtot -34.387177
 2011         h1     79    ccc     H9   2011 0.05345200   1.008000   ; qtot -34.333725
 2012         c3     79    ccc     C7   2012 0.03104100  12.010000   ; qtot -34.302684
 2013         h1     79    ccc    H10   2013 0.05345200   1.008000   ; qtot -34.249232
 2014         hc     79    ccc    H11   2014 -0.03377200   1.008000   ; qtot -34.283004
 2015         hc     79    ccc    H12   2015 -0.03377200   1.008000   ; qtot -34.316776
 2016          c     79    ccc     C8   2016 0.93072900  12.010000   ; qtot -33.386047
 2017          o     79    ccc     O2   2017 -0.90377100  16.000000   ; qtot -34.289818
 2018          o     79    ccc     O3   2018 -0.90377100  16.000000   ; qtot -35.193589
 2019         h1     79    ccc    H13   2019 0.05345200   1.008000   ; qtot -35.140137
 2020         h1     79    ccc    H14   2020 0.05345200   1.008000   ; qtot -35.086685
 2021         c3     79    ccc     C9   2021 0.03104100  12.010000   ; qtot -35.055644
 2022         hc     79    ccc    H15   2022 -0.03377200   1.008000   ; qtot -35.089416
 2023         hc     79    ccc    H16   2023 -0.03377200   1.008000   ; qtot -35.123188
 2024          c     79    ccc    C10   2024 0.93072900  12.010000   ; qtot -34.192459
 2025          o     79    ccc     O4   2025 -0.90377100  16.000000   ; qtot -35.096230
 2026          o     79    ccc     O5   2026 -0.90377100  16.000000   ; qtot -36.000001
; residue   80 ccc rtp ccc q -2.0
 2027          n     80    ccc     N1   2027 -0.63700000  14.010000   ; qtot -36.637001
 2028         hn     80    ccc     H4   2028 0.34234400   1.008000   ; qtot -36.294657
 2029         c3     80    ccc     C3   2029 0.01091100  12.010000   ; qtot -36.283746
 2030         h1     80    ccc     H5   2030 0.11190000   1.008000   ; qtot -36.171846
 2031         c3     80    ccc     C4   2031 -0.06161800  12.010000   ; qtot -36.233464
 2032         h1     80    ccc     H6   2032 0.11190000   1.008000   ; qtot -36.121564
 2033         h1     80    ccc     H7   2033 0.11248000   1.008000   ; qtot -36.009084
 2034         h1     80    ccc     H8   2034 0.11248000   1.008000   ; qtot -35.896604
 2035         n3     80    ccc     N2   2035 -0.49292700  14.010000   ; qtot -36.389531
 2036         c3     80    ccc     C5   2036 0.00117700  12.010000   ; qtot -36.388354
 2037         c3     80    ccc     C6   2037 0.00117700  12.010000   ; qtot -36.387177
 2038         h1     80    ccc     H9   2038 0.05345200   1.008000   ; qtot -36.333725
 2039         c3     80    ccc     C7   2039 0.03104100  12.010000   ; qtot -36.302684
 2040         h1     80    ccc    H10   2040 0.05345200   1.008000   ; qtot -36.249232
 2041         hc     80    ccc    H11   2041 -0.03377200   1.008000   ; qtot -36.283004
 2042         hc     80    ccc    H12   2042 -0.03377200   1.008000   ; qtot -36.316776
 2043          c     80    ccc     C8   2043 0.93072900  12.010000   ; qtot -35.386047
 2044          o     80    ccc     O2   2044 -0.90377100  16.000000   ; qtot -36.289818
 2045          o     80    ccc     O3   2045 -0.90377100  16.000000   ; qtot -37.193589
 2046         h1     80    ccc    H13   2046 0.05345200   1.008000   ; qtot -37.140137
 2047         h1     80    ccc    H14   2047 0.05345200   1.008000   ; qtot -37.086685
 2048         c3     80    ccc     C9   2048 0.03104100  12.010000   ; qtot -37.055644
 2049         hc     80    ccc    H15   2049 -0.03377200   1.008000   ; qtot -37.089416
 2050         hc     80    ccc    H16   2050 -0.03377200   1.008000   ; qtot -37.123188
 2051          c     80    ccc    C10   2051 0.93072900  12.010000   ; qtot -36.192459
 2052          o     80    ccc     O4   2052 -0.90377100  16.000000   ; qtot -37.096230
 2053          o     80    ccc     O5   2053 -0.90377100  16.000000   ; qtot -38.000001
; residue   81 ccc rtp ccc q -2.0
 2054          n     81    ccc     N1   2054 -0.63700000  14.010000   ; qtot -38.637001
 2055         hn     81    ccc     H4   2055 0.34234400   1.008000   ; qtot -38.294657
 2056         c3     81    ccc     C3   2056 0.01091100  12.010000   ; qtot -38.283746
 2057         h1     81    ccc     H5   2057 0.11190000   1.008000   ; qtot -38.171846
 2058         c3     81    ccc     C4   2058 -0.06161800  12.010000   ; qtot -38.233464
 2059         h1     81    ccc     H6   2059 0.11190000   1.008000   ; qtot -38.121564
 2060         h1     81    ccc     H7   2060 0.11248000   1.008000   ; qtot -38.009084
 2061         h1     81    ccc     H8   2061 0.11248000   1.008000   ; qtot -37.896604
 2062         n3     81    ccc     N2   2062 -0.49292700  14.010000   ; qtot -38.389531
 2063         c3     81    ccc     C5   2063 0.00117700  12.010000   ; qtot -38.388354
 2064         c3     81    ccc     C6   2064 0.00117700  12.010000   ; qtot -38.387177
 2065         h1     81    ccc     H9   2065 0.05345200   1.008000   ; qtot -38.333725
 2066         c3     81    ccc     C7   2066 0.03104100  12.010000   ; qtot -38.302684
 2067         h1     81    ccc    H10   2067 0.05345200   1.008000   ; qtot -38.249232
 2068         hc     81    ccc    H11   2068 -0.03377200   1.008000   ; qtot -38.283004
 2069         hc     81    ccc    H12   2069 -0.03377200   1.008000   ; qtot -38.316776
 2070          c     81    ccc     C8   2070 0.93072900  12.010000   ; qtot -37.386047
 2071          o     81    ccc     O2   2071 -0.90377100  16.000000   ; qtot -38.289818
 2072          o     81    ccc     O3   2072 -0.90377100  16.000000   ; qtot -39.193589
 2073         h1     81    ccc    H13   2073 0.05345200   1.008000   ; qtot -39.140137
 2074         h1     81    ccc    H14   2074 0.05345200   1.008000   ; qtot -39.086685
 2075         c3     81    ccc     C9   2075 0.03104100  12.010000   ; qtot -39.055644
 2076         hc     81    ccc    H15   2076 -0.03377200   1.008000   ; qtot -39.089416
 2077         hc     81    ccc    H16   2077 -0.03377200   1.008000   ; qtot -39.123188
 2078          c     81    ccc    C10   2078 0.93072900  12.010000   ; qtot -38.192459
 2079          o     81    ccc     O4   2079 -0.90377100  16.000000   ; qtot -39.096230
 2080          o     81    ccc     O5   2080 -0.90377100  16.000000   ; qtot -40.000001
; residue   82 ccc rtp ccc q -2.0
 2081          n     82    ccc     N1   2081 -0.63700000  14.010000   ; qtot -40.637001
 2082         hn     82    ccc     H4   2082 0.34234400   1.008000   ; qtot -40.294657
 2083         c3     82    ccc     C3   2083 0.01091100  12.010000   ; qtot -40.283746
 2084         h1     82    ccc     H5   2084 0.11190000   1.008000   ; qtot -40.171846
 2085         c3     82    ccc     C4   2085 -0.06161800  12.010000   ; qtot -40.233464
 2086         h1     82    ccc     H6   2086 0.11190000   1.008000   ; qtot -40.121564
 2087         h1     82    ccc     H7   2087 0.11248000   1.008000   ; qtot -40.009084
 2088         h1     82    ccc     H8   2088 0.11248000   1.008000   ; qtot -39.896604
 2089         n3     82    ccc     N2   2089 -0.49292700  14.010000   ; qtot -40.389531
 2090         c3     82    ccc     C5   2090 0.00117700  12.010000   ; qtot -40.388354
 2091         c3     82    ccc     C6   2091 0.00117700  12.010000   ; qtot -40.387177
 2092         h1     82    ccc     H9   2092 0.05345200   1.008000   ; qtot -40.333725
 2093         c3     82    ccc     C7   2093 0.03104100  12.010000   ; qtot -40.302684
 2094         h1     82    ccc    H10   2094 0.05345200   1.008000   ; qtot -40.249232
 2095         hc     82    ccc    H11   2095 -0.03377200   1.008000   ; qtot -40.283004
 2096         hc     82    ccc    H12   2096 -0.03377200   1.008000   ; qtot -40.316776
 2097          c     82    ccc     C8   2097 0.93072900  12.010000   ; qtot -39.386047
 2098          o     82    ccc     O2   2098 -0.90377100  16.000000   ; qtot -40.289818
 2099          o     82    ccc     O3   2099 -0.90377100  16.000000   ; qtot -41.193589
 2100         h1     82    ccc    H13   2100 0.05345200   1.008000   ; qtot -41.140137
 2101         h1     82    ccc    H14   2101 0.05345200   1.008000   ; qtot -41.086685
 2102         c3     82    ccc     C9   2102 0.03104100  12.010000   ; qtot -41.055644
 2103         hc     82    ccc    H15   2103 -0.03377200   1.008000   ; qtot -41.089416
 2104         hc     82    ccc    H16   2104 -0.03377200   1.008000   ; qtot -41.123188
 2105          c     82    ccc    C10   2105 0.93072900  12.010000   ; qtot -40.192459
 2106          o     82    ccc     O4   2106 -0.90377100  16.000000   ; qtot -41.096230
 2107          o     82    ccc     O5   2107 -0.90377100  16.000000   ; qtot -42.000001
; residue   83 ccc rtp ccc q -2.0
 2108          n     83    ccc     N1   2108 -0.63700000  14.010000   ; qtot -42.637001
 2109         hn     83    ccc     H4   2109 0.34234400   1.008000   ; qtot -42.294657
 2110         c3     83    ccc     C3   2110 0.01091100  12.010000   ; qtot -42.283746
 2111         h1     83    ccc     H5   2111 0.11190000   1.008000   ; qtot -42.171846
 2112         c3     83    ccc     C4   2112 -0.06161800  12.010000   ; qtot -42.233464
 2113         h1     83    ccc     H6   2113 0.11190000   1.008000   ; qtot -42.121564
 2114         h1     83    ccc     H7   2114 0.11248000   1.008000   ; qtot -42.009084
 2115         h1     83    ccc     H8   2115 0.11248000   1.008000   ; qtot -41.896604
 2116         n3     83    ccc     N2   2116 -0.49292700  14.010000   ; qtot -42.389531
 2117         c3     83    ccc     C5   2117 0.00117700  12.010000   ; qtot -42.388354
 2118         c3     83    ccc     C6   2118 0.00117700  12.010000   ; qtot -42.387177
 2119         h1     83    ccc     H9   2119 0.05345200   1.008000   ; qtot -42.333725
 2120         c3     83    ccc     C7   2120 0.03104100  12.010000   ; qtot -42.302684
 2121         h1     83    ccc    H10   2121 0.05345200   1.008000   ; qtot -42.249232
 2122         hc     83    ccc    H11   2122 -0.03377200   1.008000   ; qtot -42.283004
 2123         hc     83    ccc    H12   2123 -0.03377200   1.008000   ; qtot -42.316776
 2124          c     83    ccc     C8   2124 0.93072900  12.010000   ; qtot -41.386047
 2125          o     83    ccc     O2   2125 -0.90377100  16.000000   ; qtot -42.289818
 2126          o     83    ccc     O3   2126 -0.90377100  16.000000   ; qtot -43.193589
 2127         h1     83    ccc    H13   2127 0.05345200   1.008000   ; qtot -43.140137
 2128         h1     83    ccc    H14   2128 0.05345200   1.008000   ; qtot -43.086685
 2129         c3     83    ccc     C9   2129 0.03104100  12.010000   ; qtot -43.055644
 2130         hc     83    ccc    H15   2130 -0.03377200   1.008000   ; qtot -43.089416
 2131         hc     83    ccc    H16   2131 -0.03377200   1.008000   ; qtot -43.123188
 2132          c     83    ccc    C10   2132 0.93072900  12.010000   ; qtot -42.192459
 2133          o     83    ccc     O4   2133 -0.90377100  16.000000   ; qtot -43.096230
 2134          o     83    ccc     O5   2134 -0.90377100  16.000000   ; qtot -44.000001
; residue   84 ccc rtp ccc q -2.0
 2135          n     84    ccc     N1   2135 -0.63700000  14.010000   ; qtot -44.637001
 2136         hn     84    ccc     H4   2136 0.34234400   1.008000   ; qtot -44.294657
 2137         c3     84    ccc     C3   2137 0.01091100  12.010000   ; qtot -44.283746
 2138         h1     84    ccc     H5   2138 0.11190000   1.008000   ; qtot -44.171846
 2139         c3     84    ccc     C4   2139 -0.06161800  12.010000   ; qtot -44.233464
 2140         h1     84    ccc     H6   2140 0.11190000   1.008000   ; qtot -44.121564
 2141         h1     84    ccc     H7   2141 0.11248000   1.008000   ; qtot -44.009084
 2142         h1     84    ccc     H8   2142 0.11248000   1.008000   ; qtot -43.896604
 2143         n3     84    ccc     N2   2143 -0.49292700  14.010000   ; qtot -44.389531
 2144         c3     84    ccc     C5   2144 0.00117700  12.010000   ; qtot -44.388354
 2145         c3     84    ccc     C6   2145 0.00117700  12.010000   ; qtot -44.387177
 2146         h1     84    ccc     H9   2146 0.05345200   1.008000   ; qtot -44.333725
 2147         c3     84    ccc     C7   2147 0.03104100  12.010000   ; qtot -44.302684
 2148         h1     84    ccc    H10   2148 0.05345200   1.008000   ; qtot -44.249232
 2149         hc     84    ccc    H11   2149 -0.03377200   1.008000   ; qtot -44.283004
 2150         hc     84    ccc    H12   2150 -0.03377200   1.008000   ; qtot -44.316776
 2151          c     84    ccc     C8   2151 0.93072900  12.010000   ; qtot -43.386047
 2152          o     84    ccc     O2   2152 -0.90377100  16.000000   ; qtot -44.289818
 2153          o     84    ccc     O3   2153 -0.90377100  16.000000   ; qtot -45.193589
 2154         h1     84    ccc    H13   2154 0.05345200   1.008000   ; qtot -45.140137
 2155         h1     84    ccc    H14   2155 0.05345200   1.008000   ; qtot -45.086685
 2156         c3     84    ccc     C9   2156 0.03104100  12.010000   ; qtot -45.055644
 2157         hc     84    ccc    H15   2157 -0.03377200   1.008000   ; qtot -45.089416
 2158         hc     84    ccc    H16   2158 -0.03377200   1.008000   ; qtot -45.123188
 2159          c     84    ccc    C10   2159 0.93072900  12.010000   ; qtot -44.192459
 2160          o     84    ccc     O4   2160 -0.90377100  16.000000   ; qtot -45.096230
 2161          o     84    ccc     O5   2161 -0.90377100  16.000000   ; qtot -46.000001
; residue   85 ccc rtp ccc q -2.0
 2162          n     85    ccc     N1   2162 -0.63700000  14.010000   ; qtot -46.637001
 2163         hn     85    ccc     H4   2163 0.34234400   1.008000   ; qtot -46.294657
 2164         c3     85    ccc     C3   2164 0.01091100  12.010000   ; qtot -46.283746
 2165         h1     85    ccc     H5   2165 0.11190000   1.008000   ; qtot -46.171846
 2166         c3     85    ccc     C4   2166 -0.06161800  12.010000   ; qtot -46.233464
 2167         h1     85    ccc     H6   2167 0.11190000   1.008000   ; qtot -46.121564
 2168         h1     85    ccc     H7   2168 0.11248000   1.008000   ; qtot -46.009084
 2169         h1     85    ccc     H8   2169 0.11248000   1.008000   ; qtot -45.896604
 2170         n3     85    ccc     N2   2170 -0.49292700  14.010000   ; qtot -46.389531
 2171         c3     85    ccc     C5   2171 0.00117700  12.010000   ; qtot -46.388354
 2172         c3     85    ccc     C6   2172 0.00117700  12.010000   ; qtot -46.387177
 2173         h1     85    ccc     H9   2173 0.05345200   1.008000   ; qtot -46.333725
 2174         c3     85    ccc     C7   2174 0.03104100  12.010000   ; qtot -46.302684
 2175         h1     85    ccc    H10   2175 0.05345200   1.008000   ; qtot -46.249232
 2176         hc     85    ccc    H11   2176 -0.03377200   1.008000   ; qtot -46.283004
 2177         hc     85    ccc    H12   2177 -0.03377200   1.008000   ; qtot -46.316776
 2178          c     85    ccc     C8   2178 0.93072900  12.010000   ; qtot -45.386047
 2179          o     85    ccc     O2   2179 -0.90377100  16.000000   ; qtot -46.289818
 2180          o     85    ccc     O3   2180 -0.90377100  16.000000   ; qtot -47.193589
 2181         h1     85    ccc    H13   2181 0.05345200   1.008000   ; qtot -47.140137
 2182         h1     85    ccc    H14   2182 0.05345200   1.008000   ; qtot -47.086685
 2183         c3     85    ccc     C9   2183 0.03104100  12.010000   ; qtot -47.055644
 2184         hc     85    ccc    H15   2184 -0.03377200   1.008000   ; qtot -47.089416
 2185         hc     85    ccc    H16   2185 -0.03377200   1.008000   ; qtot -47.123188
 2186          c     85    ccc    C10   2186 0.93072900  12.010000   ; qtot -46.192459
 2187          o     85    ccc     O4   2187 -0.90377100  16.000000   ; qtot -47.096230
 2188          o     85    ccc     O5   2188 -0.90377100  16.000000   ; qtot -48.000001
; residue   86 ccc rtp ccc q -2.0
 2189          n     86    ccc     N1   2189 -0.63700000  14.010000   ; qtot -48.637001
 2190         hn     86    ccc     H4   2190 0.34234400   1.008000   ; qtot -48.294657
 2191         c3     86    ccc     C3   2191 0.01091100  12.010000   ; qtot -48.283746
 2192         h1     86    ccc     H5   2192 0.11190000   1.008000   ; qtot -48.171846
 2193         c3     86    ccc     C4   2193 -0.06161800  12.010000   ; qtot -48.233464
 2194         h1     86    ccc     H6   2194 0.11190000   1.008000   ; qtot -48.121564
 2195         h1     86    ccc     H7   2195 0.11248000   1.008000   ; qtot -48.009084
 2196         h1     86    ccc     H8   2196 0.11248000   1.008000   ; qtot -47.896604
 2197         n3     86    ccc     N2   2197 -0.49292700  14.010000   ; qtot -48.389531
 2198         c3     86    ccc     C5   2198 0.00117700  12.010000   ; qtot -48.388354
 2199         c3     86    ccc     C6   2199 0.00117700  12.010000   ; qtot -48.387177
 2200         h1     86    ccc     H9   2200 0.05345200   1.008000   ; qtot -48.333725
 2201         c3     86    ccc     C7   2201 0.03104100  12.010000   ; qtot -48.302684
 2202         h1     86    ccc    H10   2202 0.05345200   1.008000   ; qtot -48.249232
 2203         hc     86    ccc    H11   2203 -0.03377200   1.008000   ; qtot -48.283004
 2204         hc     86    ccc    H12   2204 -0.03377200   1.008000   ; qtot -48.316776
 2205          c     86    ccc     C8   2205 0.93072900  12.010000   ; qtot -47.386047
 2206          o     86    ccc     O2   2206 -0.90377100  16.000000   ; qtot -48.289818
 2207          o     86    ccc     O3   2207 -0.90377100  16.000000   ; qtot -49.193589
 2208         h1     86    ccc    H13   2208 0.05345200   1.008000   ; qtot -49.140137
 2209         h1     86    ccc    H14   2209 0.05345200   1.008000   ; qtot -49.086685
 2210         c3     86    ccc     C9   2210 0.03104100  12.010000   ; qtot -49.055644
 2211         hc     86    ccc    H15   2211 -0.03377200   1.008000   ; qtot -49.089416
 2212         hc     86    ccc    H16   2212 -0.03377200   1.008000   ; qtot -49.123188
 2213          c     86    ccc    C10   2213 0.93072900  12.010000   ; qtot -48.192459
 2214          o     86    ccc     O4   2214 -0.90377100  16.000000   ; qtot -49.096230
 2215          o     86    ccc     O5   2215 -0.90377100  16.000000   ; qtot -50.000001
; residue   87 ccc rtp ccc q -2.0
 2216          n     87    ccc     N1   2216 -0.63700000  14.010000   ; qtot -50.637001
 2217         hn     87    ccc     H4   2217 0.34234400   1.008000   ; qtot -50.294657
 2218         c3     87    ccc     C3   2218 0.01091100  12.010000   ; qtot -50.283746
 2219         h1     87    ccc     H5   2219 0.11190000   1.008000   ; qtot -50.171846
 2220         c3     87    ccc     C4   2220 -0.06161800  12.010000   ; qtot -50.233464
 2221         h1     87    ccc     H6   2221 0.11190000   1.008000   ; qtot -50.121564
 2222         h1     87    ccc     H7   2222 0.11248000   1.008000   ; qtot -50.009084
 2223         h1     87    ccc     H8   2223 0.11248000   1.008000   ; qtot -49.896604
 2224         n3     87    ccc     N2   2224 -0.49292700  14.010000   ; qtot -50.389531
 2225         c3     87    ccc     C5   2225 0.00117700  12.010000   ; qtot -50.388354
 2226         c3     87    ccc     C6   2226 0.00117700  12.010000   ; qtot -50.387177
 2227         h1     87    ccc     H9   2227 0.05345200   1.008000   ; qtot -50.333725
 2228         c3     87    ccc     C7   2228 0.03104100  12.010000   ; qtot -50.302684
 2229         h1     87    ccc    H10   2229 0.05345200   1.008000   ; qtot -50.249232
 2230         hc     87    ccc    H11   2230 -0.03377200   1.008000   ; qtot -50.283004
 2231         hc     87    ccc    H12   2231 -0.03377200   1.008000   ; qtot -50.316776
 2232          c     87    ccc     C8   2232 0.93072900  12.010000   ; qtot -49.386047
 2233          o     87    ccc     O2   2233 -0.90377100  16.000000   ; qtot -50.289818
 2234          o     87    ccc     O3   2234 -0.90377100  16.000000   ; qtot -51.193589
 2235         h1     87    ccc    H13   2235 0.05345200   1.008000   ; qtot -51.140137
 2236         h1     87    ccc    H14   2236 0.05345200   1.008000   ; qtot -51.086685
 2237         c3     87    ccc     C9   2237 0.03104100  12.010000   ; qtot -51.055644
 2238         hc     87    ccc    H15   2238 -0.03377200   1.008000   ; qtot -51.089416
 2239         hc     87    ccc    H16   2239 -0.03377200   1.008000   ; qtot -51.123188
 2240          c     87    ccc    C10   2240 0.93072900  12.010000   ; qtot -50.192459
 2241          o     87    ccc     O4   2241 -0.90377100  16.000000   ; qtot -51.096230
 2242          o     87    ccc     O5   2242 -0.90377100  16.000000   ; qtot -52.000001
; residue   88 ccc rtp ccc q -2.0
 2243          n     88    ccc     N1   2243 -0.63700000  14.010000   ; qtot -52.637001
 2244         hn     88    ccc     H4   2244 0.34234400   1.008000   ; qtot -52.294657
 2245         c3     88    ccc     C3   2245 0.01091100  12.010000   ; qtot -52.283746
 2246         h1     88    ccc     H5   2246 0.11190000   1.008000   ; qtot -52.171846
 2247         c3     88    ccc     C4   2247 -0.06161800  12.010000   ; qtot -52.233464
 2248         h1     88    ccc     H6   2248 0.11190000   1.008000   ; qtot -52.121564
 2249         h1     88    ccc     H7   2249 0.11248000   1.008000   ; qtot -52.009084
 2250         h1     88    ccc     H8   2250 0.11248000   1.008000   ; qtot -51.896604
 2251         n3     88    ccc     N2   2251 -0.49292700  14.010000   ; qtot -52.389531
 2252         c3     88    ccc     C5   2252 0.00117700  12.010000   ; qtot -52.388354
 2253         c3     88    ccc     C6   2253 0.00117700  12.010000   ; qtot -52.387177
 2254         h1     88    ccc     H9   2254 0.05345200   1.008000   ; qtot -52.333725
 2255         c3     88    ccc     C7   2255 0.03104100  12.010000   ; qtot -52.302684
 2256         h1     88    ccc    H10   2256 0.05345200   1.008000   ; qtot -52.249232
 2257         hc     88    ccc    H11   2257 -0.03377200   1.008000   ; qtot -52.283004
 2258         hc     88    ccc    H12   2258 -0.03377200   1.008000   ; qtot -52.316776
 2259          c     88    ccc     C8   2259 0.93072900  12.010000   ; qtot -51.386047
 2260          o     88    ccc     O2   2260 -0.90377100  16.000000   ; qtot -52.289818
 2261          o     88    ccc     O3   2261 -0.90377100  16.000000   ; qtot -53.193589
 2262         h1     88    ccc    H13   2262 0.05345200   1.008000   ; qtot -53.140137
 2263         h1     88    ccc    H14   2263 0.05345200   1.008000   ; qtot -53.086685
 2264         c3     88    ccc     C9   2264 0.03104100  12.010000   ; qtot -53.055644
 2265         hc     88    ccc    H15   2265 -0.03377200   1.008000   ; qtot -53.089416
 2266         hc     88    ccc    H16   2266 -0.03377200   1.008000   ; qtot -53.123188
 2267          c     88    ccc    C10   2267 0.93072900  12.010000   ; qtot -52.192459
 2268          o     88    ccc     O4   2268 -0.90377100  16.000000   ; qtot -53.096230
 2269          o     88    ccc     O5   2269 -0.90377100  16.000000   ; qtot -54.000001
; residue   89 ccc rtp ccc q -2.0
 2270          n     89    ccc     N1   2270 -0.63700000  14.010000   ; qtot -54.637001
 2271         hn     89    ccc     H4   2271 0.34234400   1.008000   ; qtot -54.294657
 2272         c3     89    ccc     C3   2272 0.01091100  12.010000   ; qtot -54.283746
 2273         h1     89    ccc     H5   2273 0.11190000   1.008000   ; qtot -54.171846
 2274         c3     89    ccc     C4   2274 -0.06161800  12.010000   ; qtot -54.233464
 2275         h1     89    ccc     H6   2275 0.11190000   1.008000   ; qtot -54.121564
 2276         h1     89    ccc     H7   2276 0.11248000   1.008000   ; qtot -54.009084
 2277         h1     89    ccc     H8   2277 0.11248000   1.008000   ; qtot -53.896604
 2278         n3     89    ccc     N2   2278 -0.49292700  14.010000   ; qtot -54.389531
 2279         c3     89    ccc     C5   2279 0.00117700  12.010000   ; qtot -54.388354
 2280         c3     89    ccc     C6   2280 0.00117700  12.010000   ; qtot -54.387177
 2281         h1     89    ccc     H9   2281 0.05345200   1.008000   ; qtot -54.333725
 2282         c3     89    ccc     C7   2282 0.03104100  12.010000   ; qtot -54.302684
 2283         h1     89    ccc    H10   2283 0.05345200   1.008000   ; qtot -54.249232
 2284         hc     89    ccc    H11   2284 -0.03377200   1.008000   ; qtot -54.283004
 2285         hc     89    ccc    H12   2285 -0.03377200   1.008000   ; qtot -54.316776
 2286          c     89    ccc     C8   2286 0.93072900  12.010000   ; qtot -53.386047
 2287          o     89    ccc     O2   2287 -0.90377100  16.000000   ; qtot -54.289818
 2288          o     89    ccc     O3   2288 -0.90377100  16.000000   ; qtot -55.193589
 2289         h1     89    ccc    H13   2289 0.05345200   1.008000   ; qtot -55.140137
 2290         h1     89    ccc    H14   2290 0.05345200   1.008000   ; qtot -55.086685
 2291         c3     89    ccc     C9   2291 0.03104100  12.010000   ; qtot -55.055644
 2292         hc     89    ccc    H15   2292 -0.03377200   1.008000   ; qtot -55.089416
 2293         hc     89    ccc    H16   2293 -0.03377200   1.008000   ; qtot -55.123188
 2294          c     89    ccc    C10   2294 0.93072900  12.010000   ; qtot -54.192459
 2295          o     89    ccc     O4   2295 -0.90377100  16.000000   ; qtot -55.096230
 2296          o     89    ccc     O5   2296 -0.90377100  16.000000   ; qtot -56.000001
; residue   90 ccc rtp ccc q -2.0
 2297          n     90    ccc     N1   2297 -0.63700000  14.010000   ; qtot -56.637001
 2298         hn     90    ccc     H4   2298 0.34234400   1.008000   ; qtot -56.294657
 2299         c3     90    ccc     C3   2299 0.01091100  12.010000   ; qtot -56.283746
 2300         h1     90    ccc     H5   2300 0.11190000   1.008000   ; qtot -56.171846
 2301         c3     90    ccc     C4   2301 -0.06161800  12.010000   ; qtot -56.233464
 2302         h1     90    ccc     H6   2302 0.11190000   1.008000   ; qtot -56.121564
 2303         h1     90    ccc     H7   2303 0.11248000   1.008000   ; qtot -56.009084
 2304         h1     90    ccc     H8   2304 0.11248000   1.008000   ; qtot -55.896604
 2305         n3     90    ccc     N2   2305 -0.49292700  14.010000   ; qtot -56.389531
 2306         c3     90    ccc     C5   2306 0.00117700  12.010000   ; qtot -56.388354
 2307         c3     90    ccc     C6   2307 0.00117700  12.010000   ; qtot -56.387177
 2308         h1     90    ccc     H9   2308 0.05345200   1.008000   ; qtot -56.333725
 2309         c3     90    ccc     C7   2309 0.03104100  12.010000   ; qtot -56.302684
 2310         h1     90    ccc    H10   2310 0.05345200   1.008000   ; qtot -56.249232
 2311         hc     90    ccc    H11   2311 -0.03377200   1.008000   ; qtot -56.283004
 2312         hc     90    ccc    H12   2312 -0.03377200   1.008000   ; qtot -56.316776
 2313          c     90    ccc     C8   2313 0.93072900  12.010000   ; qtot -55.386047
 2314          o     90    ccc     O2   2314 -0.90377100  16.000000   ; qtot -56.289818
 2315          o     90    ccc     O3   2315 -0.90377100  16.000000   ; qtot -57.193589
 2316         h1     90    ccc    H13   2316 0.05345200   1.008000   ; qtot -57.140137
 2317         h1     90    ccc    H14   2317 0.05345200   1.008000   ; qtot -57.086685
 2318         c3     90    ccc     C9   2318 0.03104100  12.010000   ; qtot -57.055644
 2319         hc     90    ccc    H15   2319 -0.03377200   1.008000   ; qtot -57.089416
 2320         hc     90    ccc    H16   2320 -0.03377200   1.008000   ; qtot -57.123188
 2321          c     90    ccc    C10   2321 0.93072900  12.010000   ; qtot -56.192459
 2322          o     90    ccc     O4   2322 -0.90377100  16.000000   ; qtot -57.096230
 2323          o     90    ccc     O5   2323 -0.90377100  16.000000   ; qtot -58.000001
; residue   91 ccc rtp ccc q -2.0
 2324          n     91    ccc     N1   2324 -0.63700000  14.010000   ; qtot -58.637001
 2325         hn     91    ccc     H4   2325 0.34234400   1.008000   ; qtot -58.294657
 2326         c3     91    ccc     C3   2326 0.01091100  12.010000   ; qtot -58.283746
 2327         h1     91    ccc     H5   2327 0.11190000   1.008000   ; qtot -58.171846
 2328         c3     91    ccc     C4   2328 -0.06161800  12.010000   ; qtot -58.233464
 2329         h1     91    ccc     H6   2329 0.11190000   1.008000   ; qtot -58.121564
 2330         h1     91    ccc     H7   2330 0.11248000   1.008000   ; qtot -58.009084
 2331         h1     91    ccc     H8   2331 0.11248000   1.008000   ; qtot -57.896604
 2332         n3     91    ccc     N2   2332 -0.49292700  14.010000   ; qtot -58.389531
 2333         c3     91    ccc     C5   2333 0.00117700  12.010000   ; qtot -58.388354
 2334         c3     91    ccc     C6   2334 0.00117700  12.010000   ; qtot -58.387177
 2335         h1     91    ccc     H9   2335 0.05345200   1.008000   ; qtot -58.333725
 2336         c3     91    ccc     C7   2336 0.03104100  12.010000   ; qtot -58.302684
 2337         h1     91    ccc    H10   2337 0.05345200   1.008000   ; qtot -58.249232
 2338         hc     91    ccc    H11   2338 -0.03377200   1.008000   ; qtot -58.283004
 2339         hc     91    ccc    H12   2339 -0.03377200   1.008000   ; qtot -58.316776
 2340          c     91    ccc     C8   2340 0.93072900  12.010000   ; qtot -57.386047
 2341          o     91    ccc     O2   2341 -0.90377100  16.000000   ; qtot -58.289818
 2342          o     91    ccc     O3   2342 -0.90377100  16.000000   ; qtot -59.193589
 2343         h1     91    ccc    H13   2343 0.05345200   1.008000   ; qtot -59.140137
 2344         h1     91    ccc    H14   2344 0.05345200   1.008000   ; qtot -59.086685
 2345         c3     91    ccc     C9   2345 0.03104100  12.010000   ; qtot -59.055644
 2346         hc     91    ccc    H15   2346 -0.03377200   1.008000   ; qtot -59.089416
 2347         hc     91    ccc    H16   2347 -0.03377200   1.008000   ; qtot -59.123188
 2348          c     91    ccc    C10   2348 0.93072900  12.010000   ; qtot -58.192459
 2349          o     91    ccc     O4   2349 -0.90377100  16.000000   ; qtot -59.096230
 2350          o     91    ccc     O5   2350 -0.90377100  16.000000   ; qtot -60.000001
; residue   92 ccc rtp ccc q -2.0
 2351          n     92    ccc     N1   2351 -0.63700000  14.010000   ; qtot -60.637001
 2352         hn     92    ccc     H4   2352 0.34234400   1.008000   ; qtot -60.294657
 2353         c3     92    ccc     C3   2353 0.01091100  12.010000   ; qtot -60.283746
 2354         h1     92    ccc     H5   2354 0.11190000   1.008000   ; qtot -60.171846
 2355         c3     92    ccc     C4   2355 -0.06161800  12.010000   ; qtot -60.233464
 2356         h1     92    ccc     H6   2356 0.11190000   1.008000   ; qtot -60.121564
 2357         h1     92    ccc     H7   2357 0.11248000   1.008000   ; qtot -60.009084
 2358         h1     92    ccc     H8   2358 0.11248000   1.008000   ; qtot -59.896604
 2359         n3     92    ccc     N2   2359 -0.49292700  14.010000   ; qtot -60.389531
 2360         c3     92    ccc     C5   2360 0.00117700  12.010000   ; qtot -60.388354
 2361         c3     92    ccc     C6   2361 0.00117700  12.010000   ; qtot -60.387177
 2362         h1     92    ccc     H9   2362 0.05345200   1.008000   ; qtot -60.333725
 2363         c3     92    ccc     C7   2363 0.03104100  12.010000   ; qtot -60.302684
 2364         h1     92    ccc    H10   2364 0.05345200   1.008000   ; qtot -60.249232
 2365         hc     92    ccc    H11   2365 -0.03377200   1.008000   ; qtot -60.283004
 2366         hc     92    ccc    H12   2366 -0.03377200   1.008000   ; qtot -60.316776
 2367          c     92    ccc     C8   2367 0.93072900  12.010000   ; qtot -59.386047
 2368          o     92    ccc     O2   2368 -0.90377100  16.000000   ; qtot -60.289818
 2369          o     92    ccc     O3   2369 -0.90377100  16.000000   ; qtot -61.193589
 2370         h1     92    ccc    H13   2370 0.05345200   1.008000   ; qtot -61.140137
 2371         h1     92    ccc    H14   2371 0.05345200   1.008000   ; qtot -61.086685
 2372         c3     92    ccc     C9   2372 0.03104100  12.010000   ; qtot -61.055644
 2373         hc     92    ccc    H15   2373 -0.03377200   1.008000   ; qtot -61.089416
 2374         hc     92    ccc    H16   2374 -0.03377200   1.008000   ; qtot -61.123188
 2375          c     92    ccc    C10   2375 0.93072900  12.010000   ; qtot -60.192459
 2376          o     92    ccc     O4   2376 -0.90377100  16.000000   ; qtot -61.096230
 2377          o     92    ccc     O5   2377 -0.90377100  16.000000   ; qtot -62.000001
; residue   93 ccc rtp ccc q -2.0
 2378          n     93    ccc     N1   2378 -0.63700000  14.010000   ; qtot -62.637001
 2379         hn     93    ccc     H4   2379 0.34234400   1.008000   ; qtot -62.294657
 2380         c3     93    ccc     C3   2380 0.01091100  12.010000   ; qtot -62.283746
 2381         h1     93    ccc     H5   2381 0.11190000   1.008000   ; qtot -62.171846
 2382         c3     93    ccc     C4   2382 -0.06161800  12.010000   ; qtot -62.233464
 2383         h1     93    ccc     H6   2383 0.11190000   1.008000   ; qtot -62.121564
 2384         h1     93    ccc     H7   2384 0.11248000   1.008000   ; qtot -62.009084
 2385         h1     93    ccc     H8   2385 0.11248000   1.008000   ; qtot -61.896604
 2386         n3     93    ccc     N2   2386 -0.49292700  14.010000   ; qtot -62.389531
 2387         c3     93    ccc     C5   2387 0.00117700  12.010000   ; qtot -62.388354
 2388         c3     93    ccc     C6   2388 0.00117700  12.010000   ; qtot -62.387177
 2389         h1     93    ccc     H9   2389 0.05345200   1.008000   ; qtot -62.333725
 2390         c3     93    ccc     C7   2390 0.03104100  12.010000   ; qtot -62.302684
 2391         h1     93    ccc    H10   2391 0.05345200   1.008000   ; qtot -62.249232
 2392         hc     93    ccc    H11   2392 -0.03377200   1.008000   ; qtot -62.283004
 2393         hc     93    ccc    H12   2393 -0.03377200   1.008000   ; qtot -62.316776
 2394          c     93    ccc     C8   2394 0.93072900  12.010000   ; qtot -61.386047
 2395          o     93    ccc     O2   2395 -0.90377100  16.000000   ; qtot -62.289818
 2396          o     93    ccc     O3   2396 -0.90377100  16.000000   ; qtot -63.193589
 2397         h1     93    ccc    H13   2397 0.05345200   1.008000   ; qtot -63.140137
 2398         h1     93    ccc    H14   2398 0.05345200   1.008000   ; qtot -63.086685
 2399         c3     93    ccc     C9   2399 0.03104100  12.010000   ; qtot -63.055644
 2400         hc     93    ccc    H15   2400 -0.03377200   1.008000   ; qtot -63.089416
 2401         hc     93    ccc    H16   2401 -0.03377200   1.008000   ; qtot -63.123188
 2402          c     93    ccc    C10   2402 0.93072900  12.010000   ; qtot -62.192459
 2403          o     93    ccc     O4   2403 -0.90377100  16.000000   ; qtot -63.096230
 2404          o     93    ccc     O5   2404 -0.90377100  16.000000   ; qtot -64.000001
; residue   94 ccc rtp ccc q -2.0
 2405          n     94    ccc     N1   2405 -0.63700000  14.010000   ; qtot -64.637001
 2406         hn     94    ccc     H4   2406 0.34234400   1.008000   ; qtot -64.294657
 2407         c3     94    ccc     C3   2407 0.01091100  12.010000   ; qtot -64.283746
 2408         h1     94    ccc     H5   2408 0.11190000   1.008000   ; qtot -64.171846
 2409         c3     94    ccc     C4   2409 -0.06161800  12.010000   ; qtot -64.233464
 2410         h1     94    ccc     H6   2410 0.11190000   1.008000   ; qtot -64.121564
 2411         h1     94    ccc     H7   2411 0.11248000   1.008000   ; qtot -64.009084
 2412         h1     94    ccc     H8   2412 0.11248000   1.008000   ; qtot -63.896604
 2413         n3     94    ccc     N2   2413 -0.49292700  14.010000   ; qtot -64.389531
 2414         c3     94    ccc     C5   2414 0.00117700  12.010000   ; qtot -64.388354
 2415         c3     94    ccc     C6   2415 0.00117700  12.010000   ; qtot -64.387177
 2416         h1     94    ccc     H9   2416 0.05345200   1.008000   ; qtot -64.333725
 2417         c3     94    ccc     C7   2417 0.03104100  12.010000   ; qtot -64.302684
 2418         h1     94    ccc    H10   2418 0.05345200   1.008000   ; qtot -64.249232
 2419         hc     94    ccc    H11   2419 -0.03377200   1.008000   ; qtot -64.283004
 2420         hc     94    ccc    H12   2420 -0.03377200   1.008000   ; qtot -64.316776
 2421          c     94    ccc     C8   2421 0.93072900  12.010000   ; qtot -63.386047
 2422          o     94    ccc     O2   2422 -0.90377100  16.000000   ; qtot -64.289818
 2423          o     94    ccc     O3   2423 -0.90377100  16.000000   ; qtot -65.193589
 2424         h1     94    ccc    H13   2424 0.05345200   1.008000   ; qtot -65.140137
 2425         h1     94    ccc    H14   2425 0.05345200   1.008000   ; qtot -65.086685
 2426         c3     94    ccc     C9   2426 0.03104100  12.010000   ; qtot -65.055644
 2427         hc     94    ccc    H15   2427 -0.03377200   1.008000   ; qtot -65.089416
 2428         hc     94    ccc    H16   2428 -0.03377200   1.008000   ; qtot -65.123188
 2429          c     94    ccc    C10   2429 0.93072900  12.010000   ; qtot -64.192459
 2430          o     94    ccc     O4   2430 -0.90377100  16.000000   ; qtot -65.096230
 2431          o     94    ccc     O5   2431 -0.90377100  16.000000   ; qtot -66.000001
; residue   95 ccc rtp ccc q -2.0
 2432          n     95    ccc     N1   2432 -0.63700000  14.010000   ; qtot -66.637001
 2433         hn     95    ccc     H4   2433 0.34234400   1.008000   ; qtot -66.294657
 2434         c3     95    ccc     C3   2434 0.01091100  12.010000   ; qtot -66.283746
 2435         h1     95    ccc     H5   2435 0.11190000   1.008000   ; qtot -66.171846
 2436         c3     95    ccc     C4   2436 -0.06161800  12.010000   ; qtot -66.233464
 2437         h1     95    ccc     H6   2437 0.11190000   1.008000   ; qtot -66.121564
 2438         h1     95    ccc     H7   2438 0.11248000   1.008000   ; qtot -66.009084
 2439         h1     95    ccc     H8   2439 0.11248000   1.008000   ; qtot -65.896604
 2440         n3     95    ccc     N2   2440 -0.49292700  14.010000   ; qtot -66.389531
 2441         c3     95    ccc     C5   2441 0.00117700  12.010000   ; qtot -66.388354
 2442         c3     95    ccc     C6   2442 0.00117700  12.010000   ; qtot -66.387177
 2443         h1     95    ccc     H9   2443 0.05345200   1.008000   ; qtot -66.333725
 2444         c3     95    ccc     C7   2444 0.03104100  12.010000   ; qtot -66.302684
 2445         h1     95    ccc    H10   2445 0.05345200   1.008000   ; qtot -66.249232
 2446         hc     95    ccc    H11   2446 -0.03377200   1.008000   ; qtot -66.283004
 2447         hc     95    ccc    H12   2447 -0.03377200   1.008000   ; qtot -66.316776
 2448          c     95    ccc     C8   2448 0.93072900  12.010000   ; qtot -65.386047
 2449          o     95    ccc     O2   2449 -0.90377100  16.000000   ; qtot -66.289818
 2450          o     95    ccc     O3   2450 -0.90377100  16.000000   ; qtot -67.193589
 2451         h1     95    ccc    H13   2451 0.05345200   1.008000   ; qtot -67.140137
 2452         h1     95    ccc    H14   2452 0.05345200   1.008000   ; qtot -67.086685
 2453         c3     95    ccc     C9   2453 0.03104100  12.010000   ; qtot -67.055644
 2454         hc     95    ccc    H15   2454 -0.03377200   1.008000   ; qtot -67.089416
 2455         hc     95    ccc    H16   2455 -0.03377200   1.008000   ; qtot -67.123188
 2456          c     95    ccc    C10   2456 0.93072900  12.010000   ; qtot -66.192459
 2457          o     95    ccc     O4   2457 -0.90377100  16.000000   ; qtot -67.096230
 2458          o     95    ccc     O5   2458 -0.90377100  16.000000   ; qtot -68.000001
; residue   96 ccc rtp ccc q -2.0
 2459          n     96    ccc     N1   2459 -0.63700000  14.010000   ; qtot -68.637001
 2460         hn     96    ccc     H4   2460 0.34234400   1.008000   ; qtot -68.294657
 2461         c3     96    ccc     C3   2461 0.01091100  12.010000   ; qtot -68.283746
 2462         h1     96    ccc     H5   2462 0.11190000   1.008000   ; qtot -68.171846
 2463         c3     96    ccc     C4   2463 -0.06161800  12.010000   ; qtot -68.233464
 2464         h1     96    ccc     H6   2464 0.11190000   1.008000   ; qtot -68.121564
 2465         h1     96    ccc     H7   2465 0.11248000   1.008000   ; qtot -68.009084
 2466         h1     96    ccc     H8   2466 0.11248000   1.008000   ; qtot -67.896604
 2467         n3     96    ccc     N2   2467 -0.49292700  14.010000   ; qtot -68.389531
 2468         c3     96    ccc     C5   2468 0.00117700  12.010000   ; qtot -68.388354
 2469         c3     96    ccc     C6   2469 0.00117700  12.010000   ; qtot -68.387177
 2470         h1     96    ccc     H9   2470 0.05345200   1.008000   ; qtot -68.333725
 2471         c3     96    ccc     C7   2471 0.03104100  12.010000   ; qtot -68.302684
 2472         h1     96    ccc    H10   2472 0.05345200   1.008000   ; qtot -68.249232
 2473         hc     96    ccc    H11   2473 -0.03377200   1.008000   ; qtot -68.283004
 2474         hc     96    ccc    H12   2474 -0.03377200   1.008000   ; qtot -68.316776
 2475          c     96    ccc     C8   2475 0.93072900  12.010000   ; qtot -67.386047
 2476          o     96    ccc     O2   2476 -0.90377100  16.000000   ; qtot -68.289818
 2477          o     96    ccc     O3   2477 -0.90377100  16.000000   ; qtot -69.193589
 2478         h1     96    ccc    H13   2478 0.05345200   1.008000   ; qtot -69.140137
 2479         h1     96    ccc    H14   2479 0.05345200   1.008000   ; qtot -69.086685
 2480         c3     96    ccc     C9   2480 0.03104100  12.010000   ; qtot -69.055644
 2481         hc     96    ccc    H15   2481 -0.03377200   1.008000   ; qtot -69.089416
 2482         hc     96    ccc    H16   2482 -0.03377200   1.008000   ; qtot -69.123188
 2483          c     96    ccc    C10   2483 0.93072900  12.010000   ; qtot -68.192459
 2484          o     96    ccc     O4   2484 -0.90377100  16.000000   ; qtot -69.096230
 2485          o     96    ccc     O5   2485 -0.90377100  16.000000   ; qtot -70.000001
; residue   97 ccc rtp ccc q -2.0
 2486          n     97    ccc     N1   2486 -0.63700000  14.010000   ; qtot -70.637001
 2487         hn     97    ccc     H4   2487 0.34234400   1.008000   ; qtot -70.294657
 2488         c3     97    ccc     C3   2488 0.01091100  12.010000   ; qtot -70.283746
 2489         h1     97    ccc     H5   2489 0.11190000   1.008000   ; qtot -70.171846
 2490         c3     97    ccc     C4   2490 -0.06161800  12.010000   ; qtot -70.233464
 2491         h1     97    ccc     H6   2491 0.11190000   1.008000   ; qtot -70.121564
 2492         h1     97    ccc     H7   2492 0.11248000   1.008000   ; qtot -70.009084
 2493         h1     97    ccc     H8   2493 0.11248000   1.008000   ; qtot -69.896604
 2494         n3     97    ccc     N2   2494 -0.49292700  14.010000   ; qtot -70.389531
 2495         c3     97    ccc     C5   2495 0.00117700  12.010000   ; qtot -70.388354
 2496         c3     97    ccc     C6   2496 0.00117700  12.010000   ; qtot -70.387177
 2497         h1     97    ccc     H9   2497 0.05345200   1.008000   ; qtot -70.333725
 2498         c3     97    ccc     C7   2498 0.03104100  12.010000   ; qtot -70.302684
 2499         h1     97    ccc    H10   2499 0.05345200   1.008000   ; qtot -70.249232
 2500         hc     97    ccc    H11   2500 -0.03377200   1.008000   ; qtot -70.283004
 2501         hc     97    ccc    H12   2501 -0.03377200   1.008000   ; qtot -70.316776
 2502          c     97    ccc     C8   2502 0.93072900  12.010000   ; qtot -69.386047
 2503          o     97    ccc     O2   2503 -0.90377100  16.000000   ; qtot -70.289818
 2504          o     97    ccc     O3   2504 -0.90377100  16.000000   ; qtot -71.193589
 2505         h1     97    ccc    H13   2505 0.05345200   1.008000   ; qtot -71.140137
 2506         h1     97    ccc    H14   2506 0.05345200   1.008000   ; qtot -71.086685
 2507         c3     97    ccc     C9   2507 0.03104100  12.010000   ; qtot -71.055644
 2508         hc     97    ccc    H15   2508 -0.03377200   1.008000   ; qtot -71.089416
 2509         hc     97    ccc    H16   2509 -0.03377200   1.008000   ; qtot -71.123188
 2510          c     97    ccc    C10   2510 0.93072900  12.010000   ; qtot -70.192459
 2511          o     97    ccc     O4   2511 -0.90377100  16.000000   ; qtot -71.096230
 2512          o     97    ccc     O5   2512 -0.90377100  16.000000   ; qtot -72.000001
; residue   98 ccc rtp ccc q -2.0
 2513          n     98    ccc     N1   2513 -0.63700000  14.010000   ; qtot -72.637001
 2514         hn     98    ccc     H4   2514 0.34234400   1.008000   ; qtot -72.294657
 2515         c3     98    ccc     C3   2515 0.01091100  12.010000   ; qtot -72.283746
 2516         h1     98    ccc     H5   2516 0.11190000   1.008000   ; qtot -72.171846
 2517         c3     98    ccc     C4   2517 -0.06161800  12.010000   ; qtot -72.233464
 2518         h1     98    ccc     H6   2518 0.11190000   1.008000   ; qtot -72.121564
 2519         h1     98    ccc     H7   2519 0.11248000   1.008000   ; qtot -72.009084
 2520         h1     98    ccc     H8   2520 0.11248000   1.008000   ; qtot -71.896604
 2521         n3     98    ccc     N2   2521 -0.49292700  14.010000   ; qtot -72.389531
 2522         c3     98    ccc     C5   2522 0.00117700  12.010000   ; qtot -72.388354
 2523         c3     98    ccc     C6   2523 0.00117700  12.010000   ; qtot -72.387177
 2524         h1     98    ccc     H9   2524 0.05345200   1.008000   ; qtot -72.333725
 2525         c3     98    ccc     C7   2525 0.03104100  12.010000   ; qtot -72.302684
 2526         h1     98    ccc    H10   2526 0.05345200   1.008000   ; qtot -72.249232
 2527         hc     98    ccc    H11   2527 -0.03377200   1.008000   ; qtot -72.283004
 2528         hc     98    ccc    H12   2528 -0.03377200   1.008000   ; qtot -72.316776
 2529          c     98    ccc     C8   2529 0.93072900  12.010000   ; qtot -71.386047
 2530          o     98    ccc     O2   2530 -0.90377100  16.000000   ; qtot -72.289818
 2531          o     98    ccc     O3   2531 -0.90377100  16.000000   ; qtot -73.193589
 2532         h1     98    ccc    H13   2532 0.05345200   1.008000   ; qtot -73.140137
 2533         h1     98    ccc    H14   2533 0.05345200   1.008000   ; qtot -73.086685
 2534         c3     98    ccc     C9   2534 0.03104100  12.010000   ; qtot -73.055644
 2535         hc     98    ccc    H15   2535 -0.03377200   1.008000   ; qtot -73.089416
 2536         hc     98    ccc    H16   2536 -0.03377200   1.008000   ; qtot -73.123188
 2537          c     98    ccc    C10   2537 0.93072900  12.010000   ; qtot -72.192459
 2538          o     98    ccc     O4   2538 -0.90377100  16.000000   ; qtot -73.096230
 2539          o     98    ccc     O5   2539 -0.90377100  16.000000   ; qtot -74.000001
; residue   99 ccc rtp ccc q -2.0
 2540          n     99    ccc     N1   2540 -0.63700000  14.010000   ; qtot -74.637001
 2541         hn     99    ccc     H4   2541 0.34234400   1.008000   ; qtot -74.294657
 2542         c3     99    ccc     C3   2542 0.01091100  12.010000   ; qtot -74.283746
 2543         h1     99    ccc     H5   2543 0.11190000   1.008000   ; qtot -74.171846
 2544         c3     99    ccc     C4   2544 -0.06161800  12.010000   ; qtot -74.233464
 2545         h1     99    ccc     H6   2545 0.11190000   1.008000   ; qtot -74.121564
 2546         h1     99    ccc     H7   2546 0.11248000   1.008000   ; qtot -74.009084
 2547         h1     99    ccc     H8   2547 0.11248000   1.008000   ; qtot -73.896604
 2548         n3     99    ccc     N2   2548 -0.49292700  14.010000   ; qtot -74.389531
 2549         c3     99    ccc     C5   2549 0.00117700  12.010000   ; qtot -74.388354
 2550         c3     99    ccc     C6   2550 0.00117700  12.010000   ; qtot -74.387177
 2551         h1     99    ccc     H9   2551 0.05345200   1.008000   ; qtot -74.333725
 2552         c3     99    ccc     C7   2552 0.03104100  12.010000   ; qtot -74.302684
 2553         h1     99    ccc    H10   2553 0.05345200   1.008000   ; qtot -74.249232
 2554         hc     99    ccc    H11   2554 -0.03377200   1.008000   ; qtot -74.283004
 2555         hc     99    ccc    H12   2555 -0.03377200   1.008000   ; qtot -74.316776
 2556          c     99    ccc     C8   2556 0.93072900  12.010000   ; qtot -73.386047
 2557          o     99    ccc     O2   2557 -0.90377100  16.000000   ; qtot -74.289818
 2558          o     99    ccc     O3   2558 -0.90377100  16.000000   ; qtot -75.193589
 2559         h1     99    ccc    H13   2559 0.05345200   1.008000   ; qtot -75.140137
 2560         h1     99    ccc    H14   2560 0.05345200   1.008000   ; qtot -75.086685
 2561         c3     99    ccc     C9   2561 0.03104100  12.010000   ; qtot -75.055644
 2562         hc     99    ccc    H15   2562 -0.03377200   1.008000   ; qtot -75.089416
 2563         hc     99    ccc    H16   2563 -0.03377200   1.008000   ; qtot -75.123188
 2564          c     99    ccc    C10   2564 0.93072900  12.010000   ; qtot -74.192459
 2565          o     99    ccc     O4   2565 -0.90377100  16.000000   ; qtot -75.096230
 2566          o     99    ccc     O5   2566 -0.90377100  16.000000   ; qtot -76.000001
; residue  100 ccc rtp ccc q -2.0
 2567          n    100    ccc     N1   2567 -0.63700000  14.010000   ; qtot -76.637001
 2568         hn    100    ccc     H4   2568 0.34234400   1.008000   ; qtot -76.294657
 2569         c3    100    ccc     C3   2569 0.01091100  12.010000   ; qtot -76.283746
 2570         h1    100    ccc     H5   2570 0.11190000   1.008000   ; qtot -76.171846
 2571         c3    100    ccc     C4   2571 -0.06161800  12.010000   ; qtot -76.233464
 2572         h1    100    ccc     H6   2572 0.11190000   1.008000   ; qtot -76.121564
 2573         h1    100    ccc     H7   2573 0.11248000   1.008000   ; qtot -76.009084
 2574         h1    100    ccc     H8   2574 0.11248000   1.008000   ; qtot -75.896604
 2575         n3    100    ccc     N2   2575 -0.49292700  14.010000   ; qtot -76.389531
 2576         c3    100    ccc     C5   2576 0.00117700  12.010000   ; qtot -76.388354
 2577         c3    100    ccc     C6   2577 0.00117700  12.010000   ; qtot -76.387177
 2578         h1    100    ccc     H9   2578 0.05345200   1.008000   ; qtot -76.333725
 2579         c3    100    ccc     C7   2579 0.03104100  12.010000   ; qtot -76.302684
 2580         h1    100    ccc    H10   2580 0.05345200   1.008000   ; qtot -76.249232
 2581         hc    100    ccc    H11   2581 -0.03377200   1.008000   ; qtot -76.283004
 2582         hc    100    ccc    H12   2582 -0.03377200   1.008000   ; qtot -76.316776
 2583          c    100    ccc     C8   2583 0.93072900  12.010000   ; qtot -75.386047
 2584          o    100    ccc     O2   2584 -0.90377100  16.000000   ; qtot -76.289818
 2585          o    100    ccc     O3   2585 -0.90377100  16.000000   ; qtot -77.193589
 2586         h1    100    ccc    H13   2586 0.05345200   1.008000   ; qtot -77.140137
 2587         h1    100    ccc    H14   2587 0.05345200   1.008000   ; qtot -77.086685
 2588         c3    100    ccc     C9   2588 0.03104100  12.010000   ; qtot -77.055644
 2589         hc    100    ccc    H15   2589 -0.03377200   1.008000   ; qtot -77.089416
 2590         hc    100    ccc    H16   2590 -0.03377200   1.008000   ; qtot -77.123188
 2591          c    100    ccc    C10   2591 0.93072900  12.010000   ; qtot -76.192459
 2592          o    100    ccc     O4   2592 -0.90377100  16.000000   ; qtot -77.096230
 2593          o    100    ccc     O5   2593 -0.90377100  16.000000   ; qtot -78.000001
; residue  101 ccc rtp ccc q -2.0
 2594          n    101    ccc     N1   2594 -0.63700000  14.010000   ; qtot -78.637001
 2595         hn    101    ccc     H4   2595 0.34234400   1.008000   ; qtot -78.294657
 2596         c3    101    ccc     C3   2596 0.01091100  12.010000   ; qtot -78.283746
 2597         h1    101    ccc     H5   2597 0.11190000   1.008000   ; qtot -78.171846
 2598         c3    101    ccc     C4   2598 -0.06161800  12.010000   ; qtot -78.233464
 2599         h1    101    ccc     H6   2599 0.11190000   1.008000   ; qtot -78.121564
 2600         h1    101    ccc     H7   2600 0.11248000   1.008000   ; qtot -78.009084
 2601         h1    101    ccc     H8   2601 0.11248000   1.008000   ; qtot -77.896604
 2602         n3    101    ccc     N2   2602 -0.49292700  14.010000   ; qtot -78.389531
 2603         c3    101    ccc     C5   2603 0.00117700  12.010000   ; qtot -78.388354
 2604         c3    101    ccc     C6   2604 0.00117700  12.010000   ; qtot -78.387177
 2605         h1    101    ccc     H9   2605 0.05345200   1.008000   ; qtot -78.333725
 2606         c3    101    ccc     C7   2606 0.03104100  12.010000   ; qtot -78.302684
 2607         h1    101    ccc    H10   2607 0.05345200   1.008000   ; qtot -78.249232
 2608         hc    101    ccc    H11   2608 -0.03377200   1.008000   ; qtot -78.283004
 2609         hc    101    ccc    H12   2609 -0.03377200   1.008000   ; qtot -78.316776
 2610          c    101    ccc     C8   2610 0.93072900  12.010000   ; qtot -77.386047
 2611          o    101    ccc     O2   2611 -0.90377100  16.000000   ; qtot -78.289818
 2612          o    101    ccc     O3   2612 -0.90377100  16.000000   ; qtot -79.193589
 2613         h1    101    ccc    H13   2613 0.05345200   1.008000   ; qtot -79.140137
 2614         h1    101    ccc    H14   2614 0.05345200   1.008000   ; qtot -79.086685
 2615         c3    101    ccc     C9   2615 0.03104100  12.010000   ; qtot -79.055644
 2616         hc    101    ccc    H15   2616 -0.03377200   1.008000   ; qtot -79.089416
 2617         hc    101    ccc    H16   2617 -0.03377200   1.008000   ; qtot -79.123188
 2618          c    101    ccc    C10   2618 0.93072900  12.010000   ; qtot -78.192459
 2619          o    101    ccc     O4   2619 -0.90377100  16.000000   ; qtot -79.096230
 2620          o    101    ccc     O5   2620 -0.90377100  16.000000   ; qtot -80.000001
; residue  102 ccc rtp ccc q -2.0
 2621          n    102    ccc     N1   2621 -0.63700000  14.010000   ; qtot -80.637001
 2622         hn    102    ccc     H4   2622 0.34234400   1.008000   ; qtot -80.294657
 2623         c3    102    ccc     C3   2623 0.01091100  12.010000   ; qtot -80.283746
 2624         h1    102    ccc     H5   2624 0.11190000   1.008000   ; qtot -80.171846
 2625         c3    102    ccc     C4   2625 -0.06161800  12.010000   ; qtot -80.233464
 2626         h1    102    ccc     H6   2626 0.11190000   1.008000   ; qtot -80.121564
 2627         h1    102    ccc     H7   2627 0.11248000   1.008000   ; qtot -80.009084
 2628         h1    102    ccc     H8   2628 0.11248000   1.008000   ; qtot -79.896604
 2629         n3    102    ccc     N2   2629 -0.49292700  14.010000   ; qtot -80.389531
 2630         c3    102    ccc     C5   2630 0.00117700  12.010000   ; qtot -80.388354
 2631         c3    102    ccc     C6   2631 0.00117700  12.010000   ; qtot -80.387177
 2632         h1    102    ccc     H9   2632 0.05345200   1.008000   ; qtot -80.333725
 2633         c3    102    ccc     C7   2633 0.03104100  12.010000   ; qtot -80.302684
 2634         h1    102    ccc    H10   2634 0.05345200   1.008000   ; qtot -80.249232
 2635         hc    102    ccc    H11   2635 -0.03377200   1.008000   ; qtot -80.283004
 2636         hc    102    ccc    H12   2636 -0.03377200   1.008000   ; qtot -80.316776
 2637          c    102    ccc     C8   2637 0.93072900  12.010000   ; qtot -79.386047
 2638          o    102    ccc     O2   2638 -0.90377100  16.000000   ; qtot -80.289818
 2639          o    102    ccc     O3   2639 -0.90377100  16.000000   ; qtot -81.193589
 2640         h1    102    ccc    H13   2640 0.05345200   1.008000   ; qtot -81.140137
 2641         h1    102    ccc    H14   2641 0.05345200   1.008000   ; qtot -81.086685
 2642         c3    102    ccc     C9   2642 0.03104100  12.010000   ; qtot -81.055644
 2643         hc    102    ccc    H15   2643 -0.03377200   1.008000   ; qtot -81.089416
 2644         hc    102    ccc    H16   2644 -0.03377200   1.008000   ; qtot -81.123188
 2645          c    102    ccc    C10   2645 0.93072900  12.010000   ; qtot -80.192459
 2646          o    102    ccc     O4   2646 -0.90377100  16.000000   ; qtot -81.096230
 2647          o    102    ccc     O5   2647 -0.90377100  16.000000   ; qtot -82.000001
; residue  103 ccc rtp ccc q -2.0
 2648          n    103    ccc     N1   2648 -0.63700000  14.010000   ; qtot -82.637001
 2649         hn    103    ccc     H4   2649 0.34234400   1.008000   ; qtot -82.294657
 2650         c3    103    ccc     C3   2650 0.01091100  12.010000   ; qtot -82.283746
 2651         h1    103    ccc     H5   2651 0.11190000   1.008000   ; qtot -82.171846
 2652         c3    103    ccc     C4   2652 -0.06161800  12.010000   ; qtot -82.233464
 2653         h1    103    ccc     H6   2653 0.11190000   1.008000   ; qtot -82.121564
 2654         h1    103    ccc     H7   2654 0.11248000   1.008000   ; qtot -82.009084
 2655         h1    103    ccc     H8   2655 0.11248000   1.008000   ; qtot -81.896604
 2656         n3    103    ccc     N2   2656 -0.49292700  14.010000   ; qtot -82.389531
 2657         c3    103    ccc     C5   2657 0.00117700  12.010000   ; qtot -82.388354
 2658         c3    103    ccc     C6   2658 0.00117700  12.010000   ; qtot -82.387177
 2659         h1    103    ccc     H9   2659 0.05345200   1.008000   ; qtot -82.333725
 2660         c3    103    ccc     C7   2660 0.03104100  12.010000   ; qtot -82.302684
 2661         h1    103    ccc    H10   2661 0.05345200   1.008000   ; qtot -82.249232
 2662         hc    103    ccc    H11   2662 -0.03377200   1.008000   ; qtot -82.283004
 2663         hc    103    ccc    H12   2663 -0.03377200   1.008000   ; qtot -82.316776
 2664          c    103    ccc     C8   2664 0.93072900  12.010000   ; qtot -81.386047
 2665          o    103    ccc     O2   2665 -0.90377100  16.000000   ; qtot -82.289818
 2666          o    103    ccc     O3   2666 -0.90377100  16.000000   ; qtot -83.193589
 2667         h1    103    ccc    H13   2667 0.05345200   1.008000   ; qtot -83.140137
 2668         h1    103    ccc    H14   2668 0.05345200   1.008000   ; qtot -83.086685
 2669         c3    103    ccc     C9   2669 0.03104100  12.010000   ; qtot -83.055644
 2670         hc    103    ccc    H15   2670 -0.03377200   1.008000   ; qtot -83.089416
 2671         hc    103    ccc    H16   2671 -0.03377200   1.008000   ; qtot -83.123188
 2672          c    103    ccc    C10   2672 0.93072900  12.010000   ; qtot -82.192459
 2673          o    103    ccc     O4   2673 -0.90377100  16.000000   ; qtot -83.096230
 2674          o    103    ccc     O5   2674 -0.90377100  16.000000   ; qtot -84.000001
; residue  104 ccc rtp ccc q -2.0
 2675          n    104    ccc     N1   2675 -0.63700000  14.010000   ; qtot -84.637001
 2676         hn    104    ccc     H4   2676 0.34234400   1.008000   ; qtot -84.294657
 2677         c3    104    ccc     C3   2677 0.01091100  12.010000   ; qtot -84.283746
 2678         h1    104    ccc     H5   2678 0.11190000   1.008000   ; qtot -84.171846
 2679         c3    104    ccc     C4   2679 -0.06161800  12.010000   ; qtot -84.233464
 2680         h1    104    ccc     H6   2680 0.11190000   1.008000   ; qtot -84.121564
 2681         h1    104    ccc     H7   2681 0.11248000   1.008000   ; qtot -84.009084
 2682         h1    104    ccc     H8   2682 0.11248000   1.008000   ; qtot -83.896604
 2683         n3    104    ccc     N2   2683 -0.49292700  14.010000   ; qtot -84.389531
 2684         c3    104    ccc     C5   2684 0.00117700  12.010000   ; qtot -84.388354
 2685         c3    104    ccc     C6   2685 0.00117700  12.010000   ; qtot -84.387177
 2686         h1    104    ccc     H9   2686 0.05345200   1.008000   ; qtot -84.333725
 2687         c3    104    ccc     C7   2687 0.03104100  12.010000   ; qtot -84.302684
 2688         h1    104    ccc    H10   2688 0.05345200   1.008000   ; qtot -84.249232
 2689         hc    104    ccc    H11   2689 -0.03377200   1.008000   ; qtot -84.283004
 2690         hc    104    ccc    H12   2690 -0.03377200   1.008000   ; qtot -84.316776
 2691          c    104    ccc     C8   2691 0.93072900  12.010000   ; qtot -83.386047
 2692          o    104    ccc     O2   2692 -0.90377100  16.000000   ; qtot -84.289818
 2693          o    104    ccc     O3   2693 -0.90377100  16.000000   ; qtot -85.193589
 2694         h1    104    ccc    H13   2694 0.05345200   1.008000   ; qtot -85.140137
 2695         h1    104    ccc    H14   2695 0.05345200   1.008000   ; qtot -85.086685
 2696         c3    104    ccc     C9   2696 0.03104100  12.010000   ; qtot -85.055644
 2697         hc    104    ccc    H15   2697 -0.03377200   1.008000   ; qtot -85.089416
 2698         hc    104    ccc    H16   2698 -0.03377200   1.008000   ; qtot -85.123188
 2699          c    104    ccc    C10   2699 0.93072900  12.010000   ; qtot -84.192459
 2700          o    104    ccc     O4   2700 -0.90377100  16.000000   ; qtot -85.096230
 2701          o    104    ccc     O5   2701 -0.90377100  16.000000   ; qtot -86.000001
; residue  105 ccc rtp ccc q -2.0
 2702          n    105    ccc     N1   2702 -0.63700000  14.010000   ; qtot -86.637001
 2703         hn    105    ccc     H4   2703 0.34234400   1.008000   ; qtot -86.294657
 2704         c3    105    ccc     C3   2704 0.01091100  12.010000   ; qtot -86.283746
 2705         h1    105    ccc     H5   2705 0.11190000   1.008000   ; qtot -86.171846
 2706         c3    105    ccc     C4   2706 -0.06161800  12.010000   ; qtot -86.233464
 2707         h1    105    ccc     H6   2707 0.11190000   1.008000   ; qtot -86.121564
 2708         h1    105    ccc     H7   2708 0.11248000   1.008000   ; qtot -86.009084
 2709         h1    105    ccc     H8   2709 0.11248000   1.008000   ; qtot -85.896604
 2710         n3    105    ccc     N2   2710 -0.49292700  14.010000   ; qtot -86.389531
 2711         c3    105    ccc     C5   2711 0.00117700  12.010000   ; qtot -86.388354
 2712         c3    105    ccc     C6   2712 0.00117700  12.010000   ; qtot -86.387177
 2713         h1    105    ccc     H9   2713 0.05345200   1.008000   ; qtot -86.333725
 2714         c3    105    ccc     C7   2714 0.03104100  12.010000   ; qtot -86.302684
 2715         h1    105    ccc    H10   2715 0.05345200   1.008000   ; qtot -86.249232
 2716         hc    105    ccc    H11   2716 -0.03377200   1.008000   ; qtot -86.283004
 2717         hc    105    ccc    H12   2717 -0.03377200   1.008000   ; qtot -86.316776
 2718          c    105    ccc     C8   2718 0.93072900  12.010000   ; qtot -85.386047
 2719          o    105    ccc     O2   2719 -0.90377100  16.000000   ; qtot -86.289818
 2720          o    105    ccc     O3   2720 -0.90377100  16.000000   ; qtot -87.193589
 2721         h1    105    ccc    H13   2721 0.05345200   1.008000   ; qtot -87.140137
 2722         h1    105    ccc    H14   2722 0.05345200   1.008000   ; qtot -87.086685
 2723         c3    105    ccc     C9   2723 0.03104100  12.010000   ; qtot -87.055644
 2724         hc    105    ccc    H15   2724 -0.03377200   1.008000   ; qtot -87.089416
 2725         hc    105    ccc    H16   2725 -0.03377200   1.008000   ; qtot -87.123188
 2726          c    105    ccc    C10   2726 0.93072900  12.010000   ; qtot -86.192459
 2727          o    105    ccc     O4   2727 -0.90377100  16.000000   ; qtot -87.096230
 2728          o    105    ccc     O5   2728 -0.90377100  16.000000   ; qtot -88.000001
; residue  106 ccc rtp ccc q -2.0
 2729          n    106    ccc     N1   2729 -0.63700000  14.010000   ; qtot -88.637001
 2730         hn    106    ccc     H4   2730 0.34234400   1.008000   ; qtot -88.294657
 2731         c3    106    ccc     C3   2731 0.01091100  12.010000   ; qtot -88.283746
 2732         h1    106    ccc     H5   2732 0.11190000   1.008000   ; qtot -88.171846
 2733         c3    106    ccc     C4   2733 -0.06161800  12.010000   ; qtot -88.233464
 2734         h1    106    ccc     H6   2734 0.11190000   1.008000   ; qtot -88.121564
 2735         h1    106    ccc     H7   2735 0.11248000   1.008000   ; qtot -88.009084
 2736         h1    106    ccc     H8   2736 0.11248000   1.008000   ; qtot -87.896604
 2737         n3    106    ccc     N2   2737 -0.49292700  14.010000   ; qtot -88.389531
 2738         c3    106    ccc     C5   2738 0.00117700  12.010000   ; qtot -88.388354
 2739         c3    106    ccc     C6   2739 0.00117700  12.010000   ; qtot -88.387177
 2740         h1    106    ccc     H9   2740 0.05345200   1.008000   ; qtot -88.333725
 2741         c3    106    ccc     C7   2741 0.03104100  12.010000   ; qtot -88.302684
 2742         h1    106    ccc    H10   2742 0.05345200   1.008000   ; qtot -88.249232
 2743         hc    106    ccc    H11   2743 -0.03377200   1.008000   ; qtot -88.283004
 2744         hc    106    ccc    H12   2744 -0.03377200   1.008000   ; qtot -88.316776
 2745          c    106    ccc     C8   2745 0.93072900  12.010000   ; qtot -87.386047
 2746          o    106    ccc     O2   2746 -0.90377100  16.000000   ; qtot -88.289818
 2747          o    106    ccc     O3   2747 -0.90377100  16.000000   ; qtot -89.193589
 2748         h1    106    ccc    H13   2748 0.05345200   1.008000   ; qtot -89.140137
 2749         h1    106    ccc    H14   2749 0.05345200   1.008000   ; qtot -89.086685
 2750         c3    106    ccc     C9   2750 0.03104100  12.010000   ; qtot -89.055644
 2751         hc    106    ccc    H15   2751 -0.03377200   1.008000   ; qtot -89.089416
 2752         hc    106    ccc    H16   2752 -0.03377200   1.008000   ; qtot -89.123188
 2753          c    106    ccc    C10   2753 0.93072900  12.010000   ; qtot -88.192459
 2754          o    106    ccc     O4   2754 -0.90377100  16.000000   ; qtot -89.096230
 2755          o    106    ccc     O5   2755 -0.90377100  16.000000   ; qtot -90.000001
; residue  107 ccc rtp ccc q -2.0
 2756          n    107    ccc     N1   2756 -0.63700000  14.010000   ; qtot -90.637001
 2757         hn    107    ccc     H4   2757 0.34234400   1.008000   ; qtot -90.294657
 2758         c3    107    ccc     C3   2758 0.01091100  12.010000   ; qtot -90.283746
 2759         h1    107    ccc     H5   2759 0.11190000   1.008000   ; qtot -90.171846
 2760         c3    107    ccc     C4   2760 -0.06161800  12.010000   ; qtot -90.233464
 2761         h1    107    ccc     H6   2761 0.11190000   1.008000   ; qtot -90.121564
 2762         h1    107    ccc     H7   2762 0.11248000   1.008000   ; qtot -90.009084
 2763         h1    107    ccc     H8   2763 0.11248000   1.008000   ; qtot -89.896604
 2764         n3    107    ccc     N2   2764 -0.49292700  14.010000   ; qtot -90.389531
 2765         c3    107    ccc     C5   2765 0.00117700  12.010000   ; qtot -90.388354
 2766         c3    107    ccc     C6   2766 0.00117700  12.010000   ; qtot -90.387177
 2767         h1    107    ccc     H9   2767 0.05345200   1.008000   ; qtot -90.333725
 2768         c3    107    ccc     C7   2768 0.03104100  12.010000   ; qtot -90.302684
 2769         h1    107    ccc    H10   2769 0.05345200   1.008000   ; qtot -90.249232
 2770         hc    107    ccc    H11   2770 -0.03377200   1.008000   ; qtot -90.283004
 2771         hc    107    ccc    H12   2771 -0.03377200   1.008000   ; qtot -90.316776
 2772          c    107    ccc     C8   2772 0.93072900  12.010000   ; qtot -89.386047
 2773          o    107    ccc     O2   2773 -0.90377100  16.000000   ; qtot -90.289818
 2774          o    107    ccc     O3   2774 -0.90377100  16.000000   ; qtot -91.193589
 2775         h1    107    ccc    H13   2775 0.05345200   1.008000   ; qtot -91.140137
 2776         h1    107    ccc    H14   2776 0.05345200   1.008000   ; qtot -91.086685
 2777         c3    107    ccc     C9   2777 0.03104100  12.010000   ; qtot -91.055644
 2778         hc    107    ccc    H15   2778 -0.03377200   1.008000   ; qtot -91.089416
 2779         hc    107    ccc    H16   2779 -0.03377200   1.008000   ; qtot -91.123188
 2780          c    107    ccc    C10   2780 0.93072900  12.010000   ; qtot -90.192459
 2781          o    107    ccc     O4   2781 -0.90377100  16.000000   ; qtot -91.096230
 2782          o    107    ccc     O5   2782 -0.90377100  16.000000   ; qtot -92.000001
; residue  108 ccc rtp ccc q -2.0
 2783          n    108    ccc     N1   2783 -0.63700000  14.010000   ; qtot -92.637001
 2784         hn    108    ccc     H4   2784 0.34234400   1.008000   ; qtot -92.294657
 2785         c3    108    ccc     C3   2785 0.01091100  12.010000   ; qtot -92.283746
 2786         h1    108    ccc     H5   2786 0.11190000   1.008000   ; qtot -92.171846
 2787         c3    108    ccc     C4   2787 -0.06161800  12.010000   ; qtot -92.233464
 2788         h1    108    ccc     H6   2788 0.11190000   1.008000   ; qtot -92.121564
 2789         h1    108    ccc     H7   2789 0.11248000   1.008000   ; qtot -92.009084
 2790         h1    108    ccc     H8   2790 0.11248000   1.008000   ; qtot -91.896604
 2791         n3    108    ccc     N2   2791 -0.49292700  14.010000   ; qtot -92.389531
 2792         c3    108    ccc     C5   2792 0.00117700  12.010000   ; qtot -92.388354
 2793         c3    108    ccc     C6   2793 0.00117700  12.010000   ; qtot -92.387177
 2794         h1    108    ccc     H9   2794 0.05345200   1.008000   ; qtot -92.333725
 2795         c3    108    ccc     C7   2795 0.03104100  12.010000   ; qtot -92.302684
 2796         h1    108    ccc    H10   2796 0.05345200   1.008000   ; qtot -92.249232
 2797         hc    108    ccc    H11   2797 -0.03377200   1.008000   ; qtot -92.283004
 2798         hc    108    ccc    H12   2798 -0.03377200   1.008000   ; qtot -92.316776
 2799          c    108    ccc     C8   2799 0.93072900  12.010000   ; qtot -91.386047
 2800          o    108    ccc     O2   2800 -0.90377100  16.000000   ; qtot -92.289818
 2801          o    108    ccc     O3   2801 -0.90377100  16.000000   ; qtot -93.193589
 2802         h1    108    ccc    H13   2802 0.05345200   1.008000   ; qtot -93.140137
 2803         h1    108    ccc    H14   2803 0.05345200   1.008000   ; qtot -93.086685
 2804         c3    108    ccc     C9   2804 0.03104100  12.010000   ; qtot -93.055644
 2805         hc    108    ccc    H15   2805 -0.03377200   1.008000   ; qtot -93.089416
 2806         hc    108    ccc    H16   2806 -0.03377200   1.008000   ; qtot -93.123188
 2807          c    108    ccc    C10   2807 0.93072900  12.010000   ; qtot -92.192459
 2808          o    108    ccc     O4   2808 -0.90377100  16.000000   ; qtot -93.096230
 2809          o    108    ccc     O5   2809 -0.90377100  16.000000   ; qtot -94.000001
; residue  109 ccc rtp ccc q -2.0
 2810          n    109    ccc     N1   2810 -0.63700000  14.010000   ; qtot -94.637001
 2811         hn    109    ccc     H4   2811 0.34234400   1.008000   ; qtot -94.294657
 2812         c3    109    ccc     C3   2812 0.01091100  12.010000   ; qtot -94.283746
 2813         h1    109    ccc     H5   2813 0.11190000   1.008000   ; qtot -94.171846
 2814         c3    109    ccc     C4   2814 -0.06161800  12.010000   ; qtot -94.233464
 2815         h1    109    ccc     H6   2815 0.11190000   1.008000   ; qtot -94.121564
 2816         h1    109    ccc     H7   2816 0.11248000   1.008000   ; qtot -94.009084
 2817         h1    109    ccc     H8   2817 0.11248000   1.008000   ; qtot -93.896604
 2818         n3    109    ccc     N2   2818 -0.49292700  14.010000   ; qtot -94.389531
 2819         c3    109    ccc     C5   2819 0.00117700  12.010000   ; qtot -94.388354
 2820         c3    109    ccc     C6   2820 0.00117700  12.010000   ; qtot -94.387177
 2821         h1    109    ccc     H9   2821 0.05345200   1.008000   ; qtot -94.333725
 2822         c3    109    ccc     C7   2822 0.03104100  12.010000   ; qtot -94.302684
 2823         h1    109    ccc    H10   2823 0.05345200   1.008000   ; qtot -94.249232
 2824         hc    109    ccc    H11   2824 -0.03377200   1.008000   ; qtot -94.283004
 2825         hc    109    ccc    H12   2825 -0.03377200   1.008000   ; qtot -94.316776
 2826          c    109    ccc     C8   2826 0.93072900  12.010000   ; qtot -93.386047
 2827          o    109    ccc     O2   2827 -0.90377100  16.000000   ; qtot -94.289818
 2828          o    109    ccc     O3   2828 -0.90377100  16.000000   ; qtot -95.193589
 2829         h1    109    ccc    H13   2829 0.05345200   1.008000   ; qtot -95.140137
 2830         h1    109    ccc    H14   2830 0.05345200   1.008000   ; qtot -95.086685
 2831         c3    109    ccc     C9   2831 0.03104100  12.010000   ; qtot -95.055644
 2832         hc    109    ccc    H15   2832 -0.03377200   1.008000   ; qtot -95.089416
 2833         hc    109    ccc    H16   2833 -0.03377200   1.008000   ; qtot -95.123188
 2834          c    109    ccc    C10   2834 0.93072900  12.010000   ; qtot -94.192459
 2835          o    109    ccc     O4   2835 -0.90377100  16.000000   ; qtot -95.096230
 2836          o    109    ccc     O5   2836 -0.90377100  16.000000   ; qtot -96.000001
; residue  110 ccc rtp ccc q -2.0
 2837          n    110    ccc     N1   2837 -0.63700000  14.010000   ; qtot -96.637001
 2838         hn    110    ccc     H4   2838 0.34234400   1.008000   ; qtot -96.294657
 2839         c3    110    ccc     C3   2839 0.01091100  12.010000   ; qtot -96.283746
 2840         h1    110    ccc     H5   2840 0.11190000   1.008000   ; qtot -96.171846
 2841         c3    110    ccc     C4   2841 -0.06161800  12.010000   ; qtot -96.233464
 2842         h1    110    ccc     H6   2842 0.11190000   1.008000   ; qtot -96.121564
 2843         h1    110    ccc     H7   2843 0.11248000   1.008000   ; qtot -96.009084
 2844         h1    110    ccc     H8   2844 0.11248000   1.008000   ; qtot -95.896604
 2845         n3    110    ccc     N2   2845 -0.49292700  14.010000   ; qtot -96.389531
 2846         c3    110    ccc     C5   2846 0.00117700  12.010000   ; qtot -96.388354
 2847         c3    110    ccc     C6   2847 0.00117700  12.010000   ; qtot -96.387177
 2848         h1    110    ccc     H9   2848 0.05345200   1.008000   ; qtot -96.333725
 2849         c3    110    ccc     C7   2849 0.03104100  12.010000   ; qtot -96.302684
 2850         h1    110    ccc    H10   2850 0.05345200   1.008000   ; qtot -96.249232
 2851         hc    110    ccc    H11   2851 -0.03377200   1.008000   ; qtot -96.283004
 2852         hc    110    ccc    H12   2852 -0.03377200   1.008000   ; qtot -96.316776
 2853          c    110    ccc     C8   2853 0.93072900  12.010000   ; qtot -95.386047
 2854          o    110    ccc     O2   2854 -0.90377100  16.000000   ; qtot -96.289818
 2855          o    110    ccc     O3   2855 -0.90377100  16.000000   ; qtot -97.193589
 2856         h1    110    ccc    H13   2856 0.05345200   1.008000   ; qtot -97.140137
 2857         h1    110    ccc    H14   2857 0.05345200   1.008000   ; qtot -97.086685
 2858         c3    110    ccc     C9   2858 0.03104100  12.010000   ; qtot -97.055644
 2859         hc    110    ccc    H15   2859 -0.03377200   1.008000   ; qtot -97.089416
 2860         hc    110    ccc    H16   2860 -0.03377200   1.008000   ; qtot -97.123188
 2861          c    110    ccc    C10   2861 0.93072900  12.010000   ; qtot -96.192459
 2862          o    110    ccc     O4   2862 -0.90377100  16.000000   ; qtot -97.096230
 2863          o    110    ccc     O5   2863 -0.90377100  16.000000   ; qtot -98.000001
; residue  111 ccc rtp ccc q -2.0
 2864          n    111    ccc     N1   2864 -0.63700000  14.010000   ; qtot -98.637001
 2865         hn    111    ccc     H4   2865 0.34234400   1.008000   ; qtot -98.294657
 2866         c3    111    ccc     C3   2866 0.01091100  12.010000   ; qtot -98.283746
 2867         h1    111    ccc     H5   2867 0.11190000   1.008000   ; qtot -98.171846
 2868         c3    111    ccc     C4   2868 -0.06161800  12.010000   ; qtot -98.233464
 2869         h1    111    ccc     H6   2869 0.11190000   1.008000   ; qtot -98.121564
 2870         h1    111    ccc     H7   2870 0.11248000   1.008000   ; qtot -98.009084
 2871         h1    111    ccc     H8   2871 0.11248000   1.008000   ; qtot -97.896604
 2872         n3    111    ccc     N2   2872 -0.49292700  14.010000   ; qtot -98.389531
 2873         c3    111    ccc     C5   2873 0.00117700  12.010000   ; qtot -98.388354
 2874         c3    111    ccc     C6   2874 0.00117700  12.010000   ; qtot -98.387177
 2875         h1    111    ccc     H9   2875 0.05345200   1.008000   ; qtot -98.333725
 2876         c3    111    ccc     C7   2876 0.03104100  12.010000   ; qtot -98.302684
 2877         h1    111    ccc    H10   2877 0.05345200   1.008000   ; qtot -98.249232
 2878         hc    111    ccc    H11   2878 -0.03377200   1.008000   ; qtot -98.283004
 2879         hc    111    ccc    H12   2879 -0.03377200   1.008000   ; qtot -98.316776
 2880          c    111    ccc     C8   2880 0.93072900  12.010000   ; qtot -97.386047
 2881          o    111    ccc     O2   2881 -0.90377100  16.000000   ; qtot -98.289818
 2882          o    111    ccc     O3   2882 -0.90377100  16.000000   ; qtot -99.193589
 2883         h1    111    ccc    H13   2883 0.05345200   1.008000   ; qtot -99.140137
 2884         h1    111    ccc    H14   2884 0.05345200   1.008000   ; qtot -99.086685
 2885         c3    111    ccc     C9   2885 0.03104100  12.010000   ; qtot -99.055644
 2886         hc    111    ccc    H15   2886 -0.03377200   1.008000   ; qtot -99.089416
 2887         hc    111    ccc    H16   2887 -0.03377200   1.008000   ; qtot -99.123188
 2888          c    111    ccc    C10   2888 0.93072900  12.010000   ; qtot -98.192459
 2889          o    111    ccc     O4   2889 -0.90377100  16.000000   ; qtot -99.096230
 2890          o    111    ccc     O5   2890 -0.90377100  16.000000   ; qtot -100.000001
; residue  112 ccc rtp ccc q -2.0
 2891          n    112    ccc     N1   2891 -0.63700000  14.010000   ; qtot -100.637001
 2892         hn    112    ccc     H4   2892 0.34234400   1.008000   ; qtot -100.294657
 2893         c3    112    ccc     C3   2893 0.01091100  12.010000   ; qtot -100.283746
 2894         h1    112    ccc     H5   2894 0.11190000   1.008000   ; qtot -100.171846
 2895         c3    112    ccc     C4   2895 -0.06161800  12.010000   ; qtot -100.233464
 2896         h1    112    ccc     H6   2896 0.11190000   1.008000   ; qtot -100.121564
 2897         h1    112    ccc     H7   2897 0.11248000   1.008000   ; qtot -100.009084
 2898         h1    112    ccc     H8   2898 0.11248000   1.008000   ; qtot -99.896604
 2899         n3    112    ccc     N2   2899 -0.49292700  14.010000   ; qtot -100.389531
 2900         c3    112    ccc     C5   2900 0.00117700  12.010000   ; qtot -100.388354
 2901         c3    112    ccc     C6   2901 0.00117700  12.010000   ; qtot -100.387177
 2902         h1    112    ccc     H9   2902 0.05345200   1.008000   ; qtot -100.333725
 2903         c3    112    ccc     C7   2903 0.03104100  12.010000   ; qtot -100.302684
 2904         h1    112    ccc    H10   2904 0.05345200   1.008000   ; qtot -100.249232
 2905         hc    112    ccc    H11   2905 -0.03377200   1.008000   ; qtot -100.283004
 2906         hc    112    ccc    H12   2906 -0.03377200   1.008000   ; qtot -100.316776
 2907          c    112    ccc     C8   2907 0.93072900  12.010000   ; qtot -99.386047
 2908          o    112    ccc     O2   2908 -0.90377100  16.000000   ; qtot -100.289818
 2909          o    112    ccc     O3   2909 -0.90377100  16.000000   ; qtot -101.193589
 2910         h1    112    ccc    H13   2910 0.05345200   1.008000   ; qtot -101.140137
 2911         h1    112    ccc    H14   2911 0.05345200   1.008000   ; qtot -101.086685
 2912         c3    112    ccc     C9   2912 0.03104100  12.010000   ; qtot -101.055644
 2913         hc    112    ccc    H15   2913 -0.03377200   1.008000   ; qtot -101.089416
 2914         hc    112    ccc    H16   2914 -0.03377200   1.008000   ; qtot -101.123188
 2915          c    112    ccc    C10   2915 0.93072900  12.010000   ; qtot -100.192459
 2916          o    112    ccc     O4   2916 -0.90377100  16.000000   ; qtot -101.096230
 2917          o    112    ccc     O5   2917 -0.90377100  16.000000   ; qtot -102.000001
; residue  113 ccc rtp ccc q -2.0
 2918          n    113    ccc     N1   2918 -0.63700000  14.010000   ; qtot -102.637001
 2919         hn    113    ccc     H4   2919 0.34234400   1.008000   ; qtot -102.294657
 2920         c3    113    ccc     C3   2920 0.01091100  12.010000   ; qtot -102.283746
 2921         h1    113    ccc     H5   2921 0.11190000   1.008000   ; qtot -102.171846
 2922         c3    113    ccc     C4   2922 -0.06161800  12.010000   ; qtot -102.233464
 2923         h1    113    ccc     H6   2923 0.11190000   1.008000   ; qtot -102.121564
 2924         h1    113    ccc     H7   2924 0.11248000   1.008000   ; qtot -102.009084
 2925         h1    113    ccc     H8   2925 0.11248000   1.008000   ; qtot -101.896604
 2926         n3    113    ccc     N2   2926 -0.49292700  14.010000   ; qtot -102.389531
 2927         c3    113    ccc     C5   2927 0.00117700  12.010000   ; qtot -102.388354
 2928         c3    113    ccc     C6   2928 0.00117700  12.010000   ; qtot -102.387177
 2929         h1    113    ccc     H9   2929 0.05345200   1.008000   ; qtot -102.333725
 2930         c3    113    ccc     C7   2930 0.03104100  12.010000   ; qtot -102.302684
 2931         h1    113    ccc    H10   2931 0.05345200   1.008000   ; qtot -102.249232
 2932         hc    113    ccc    H11   2932 -0.03377200   1.008000   ; qtot -102.283004
 2933         hc    113    ccc    H12   2933 -0.03377200   1.008000   ; qtot -102.316776
 2934          c    113    ccc     C8   2934 0.93072900  12.010000   ; qtot -101.386047
 2935          o    113    ccc     O2   2935 -0.90377100  16.000000   ; qtot -102.289818
 2936          o    113    ccc     O3   2936 -0.90377100  16.000000   ; qtot -103.193589
 2937         h1    113    ccc    H13   2937 0.05345200   1.008000   ; qtot -103.140137
 2938         h1    113    ccc    H14   2938 0.05345200   1.008000   ; qtot -103.086685
 2939         c3    113    ccc     C9   2939 0.03104100  12.010000   ; qtot -103.055644
 2940         hc    113    ccc    H15   2940 -0.03377200   1.008000   ; qtot -103.089416
 2941         hc    113    ccc    H16   2941 -0.03377200   1.008000   ; qtot -103.123188
 2942          c    113    ccc    C10   2942 0.93072900  12.010000   ; qtot -102.192459
 2943          o    113    ccc     O4   2943 -0.90377100  16.000000   ; qtot -103.096230
 2944          o    113    ccc     O5   2944 -0.90377100  16.000000   ; qtot -104.000001
; residue  114 ccc rtp ccc q -2.0
 2945          n    114    ccc     N1   2945 -0.63700000  14.010000   ; qtot -104.637001
 2946         hn    114    ccc     H4   2946 0.34234400   1.008000   ; qtot -104.294657
 2947         c3    114    ccc     C3   2947 0.01091100  12.010000   ; qtot -104.283746
 2948         h1    114    ccc     H5   2948 0.11190000   1.008000   ; qtot -104.171846
 2949         c3    114    ccc     C4   2949 -0.06161800  12.010000   ; qtot -104.233464
 2950         h1    114    ccc     H6   2950 0.11190000   1.008000   ; qtot -104.121564
 2951         h1    114    ccc     H7   2951 0.11248000   1.008000   ; qtot -104.009084
 2952         h1    114    ccc     H8   2952 0.11248000   1.008000   ; qtot -103.896604
 2953         n3    114    ccc     N2   2953 -0.49292700  14.010000   ; qtot -104.389531
 2954         c3    114    ccc     C5   2954 0.00117700  12.010000   ; qtot -104.388354
 2955         c3    114    ccc     C6   2955 0.00117700  12.010000   ; qtot -104.387177
 2956         h1    114    ccc     H9   2956 0.05345200   1.008000   ; qtot -104.333725
 2957         c3    114    ccc     C7   2957 0.03104100  12.010000   ; qtot -104.302684
 2958         h1    114    ccc    H10   2958 0.05345200   1.008000   ; qtot -104.249232
 2959         hc    114    ccc    H11   2959 -0.03377200   1.008000   ; qtot -104.283004
 2960         hc    114    ccc    H12   2960 -0.03377200   1.008000   ; qtot -104.316776
 2961          c    114    ccc     C8   2961 0.93072900  12.010000   ; qtot -103.386047
 2962          o    114    ccc     O2   2962 -0.90377100  16.000000   ; qtot -104.289818
 2963          o    114    ccc     O3   2963 -0.90377100  16.000000   ; qtot -105.193589
 2964         h1    114    ccc    H13   2964 0.05345200   1.008000   ; qtot -105.140137
 2965         h1    114    ccc    H14   2965 0.05345200   1.008000   ; qtot -105.086685
 2966         c3    114    ccc     C9   2966 0.03104100  12.010000   ; qtot -105.055644
 2967         hc    114    ccc    H15   2967 -0.03377200   1.008000   ; qtot -105.089416
 2968         hc    114    ccc    H16   2968 -0.03377200   1.008000   ; qtot -105.123188
 2969          c    114    ccc    C10   2969 0.93072900  12.010000   ; qtot -104.192459
 2970          o    114    ccc     O4   2970 -0.90377100  16.000000   ; qtot -105.096230
 2971          o    114    ccc     O5   2971 -0.90377100  16.000000   ; qtot -106.000001
; residue  115 ccc rtp ccc q -2.0
 2972          n    115    ccc     N1   2972 -0.63700000  14.010000   ; qtot -106.637001
 2973         hn    115    ccc     H4   2973 0.34234400   1.008000   ; qtot -106.294657
 2974         c3    115    ccc     C3   2974 0.01091100  12.010000   ; qtot -106.283746
 2975         h1    115    ccc     H5   2975 0.11190000   1.008000   ; qtot -106.171846
 2976         c3    115    ccc     C4   2976 -0.06161800  12.010000   ; qtot -106.233464
 2977         h1    115    ccc     H6   2977 0.11190000   1.008000   ; qtot -106.121564
 2978         h1    115    ccc     H7   2978 0.11248000   1.008000   ; qtot -106.009084
 2979         h1    115    ccc     H8   2979 0.11248000   1.008000   ; qtot -105.896604
 2980         n3    115    ccc     N2   2980 -0.49292700  14.010000   ; qtot -106.389531
 2981         c3    115    ccc     C5   2981 0.00117700  12.010000   ; qtot -106.388354
 2982         c3    115    ccc     C6   2982 0.00117700  12.010000   ; qtot -106.387177
 2983         h1    115    ccc     H9   2983 0.05345200   1.008000   ; qtot -106.333725
 2984         c3    115    ccc     C7   2984 0.03104100  12.010000   ; qtot -106.302684
 2985         h1    115    ccc    H10   2985 0.05345200   1.008000   ; qtot -106.249232
 2986         hc    115    ccc    H11   2986 -0.03377200   1.008000   ; qtot -106.283004
 2987         hc    115    ccc    H12   2987 -0.03377200   1.008000   ; qtot -106.316776
 2988          c    115    ccc     C8   2988 0.93072900  12.010000   ; qtot -105.386047
 2989          o    115    ccc     O2   2989 -0.90377100  16.000000   ; qtot -106.289818
 2990          o    115    ccc     O3   2990 -0.90377100  16.000000   ; qtot -107.193589
 2991         h1    115    ccc    H13   2991 0.05345200   1.008000   ; qtot -107.140137
 2992         h1    115    ccc    H14   2992 0.05345200   1.008000   ; qtot -107.086685
 2993         c3    115    ccc     C9   2993 0.03104100  12.010000   ; qtot -107.055644
 2994         hc    115    ccc    H15   2994 -0.03377200   1.008000   ; qtot -107.089416
 2995         hc    115    ccc    H16   2995 -0.03377200   1.008000   ; qtot -107.123188
 2996          c    115    ccc    C10   2996 0.93072900  12.010000   ; qtot -106.192459
 2997          o    115    ccc     O4   2997 -0.90377100  16.000000   ; qtot -107.096230
 2998          o    115    ccc     O5   2998 -0.90377100  16.000000   ; qtot -108.000001
; residue  116 ccc rtp ccc q -2.0
 2999          n    116    ccc     N1   2999 -0.63700000  14.010000   ; qtot -108.637001
 3000         hn    116    ccc     H4   3000 0.34234400   1.008000   ; qtot -108.294657
 3001         c3    116    ccc     C3   3001 0.01091100  12.010000   ; qtot -108.283746
 3002         h1    116    ccc     H5   3002 0.11190000   1.008000   ; qtot -108.171846
 3003         c3    116    ccc     C4   3003 -0.06161800  12.010000   ; qtot -108.233464
 3004         h1    116    ccc     H6   3004 0.11190000   1.008000   ; qtot -108.121564
 3005         h1    116    ccc     H7   3005 0.11248000   1.008000   ; qtot -108.009084
 3006         h1    116    ccc     H8   3006 0.11248000   1.008000   ; qtot -107.896604
 3007         n3    116    ccc     N2   3007 -0.49292700  14.010000   ; qtot -108.389531
 3008         c3    116    ccc     C5   3008 0.00117700  12.010000   ; qtot -108.388354
 3009         c3    116    ccc     C6   3009 0.00117700  12.010000   ; qtot -108.387177
 3010         h1    116    ccc     H9   3010 0.05345200   1.008000   ; qtot -108.333725
 3011         c3    116    ccc     C7   3011 0.03104100  12.010000   ; qtot -108.302684
 3012         h1    116    ccc    H10   3012 0.05345200   1.008000   ; qtot -108.249232
 3013         hc    116    ccc    H11   3013 -0.03377200   1.008000   ; qtot -108.283004
 3014         hc    116    ccc    H12   3014 -0.03377200   1.008000   ; qtot -108.316776
 3015          c    116    ccc     C8   3015 0.93072900  12.010000   ; qtot -107.386047
 3016          o    116    ccc     O2   3016 -0.90377100  16.000000   ; qtot -108.289818
 3017          o    116    ccc     O3   3017 -0.90377100  16.000000   ; qtot -109.193589
 3018         h1    116    ccc    H13   3018 0.05345200   1.008000   ; qtot -109.140137
 3019         h1    116    ccc    H14   3019 0.05345200   1.008000   ; qtot -109.086685
 3020         c3    116    ccc     C9   3020 0.03104100  12.010000   ; qtot -109.055644
 3021         hc    116    ccc    H15   3021 -0.03377200   1.008000   ; qtot -109.089416
 3022         hc    116    ccc    H16   3022 -0.03377200   1.008000   ; qtot -109.123188
 3023          c    116    ccc    C10   3023 0.93072900  12.010000   ; qtot -108.192459
 3024          o    116    ccc     O4   3024 -0.90377100  16.000000   ; qtot -109.096230
 3025          o    116    ccc     O5   3025 -0.90377100  16.000000   ; qtot -110.000001
; residue  117 ccc rtp ccc q -2.0
 3026          n    117    ccc     N1   3026 -0.63700000  14.010000   ; qtot -110.637001
 3027         hn    117    ccc     H4   3027 0.34234400   1.008000   ; qtot -110.294657
 3028         c3    117    ccc     C3   3028 0.01091100  12.010000   ; qtot -110.283746
 3029         h1    117    ccc     H5   3029 0.11190000   1.008000   ; qtot -110.171846
 3030         c3    117    ccc     C4   3030 -0.06161800  12.010000   ; qtot -110.233464
 3031         h1    117    ccc     H6   3031 0.11190000   1.008000   ; qtot -110.121564
 3032         h1    117    ccc     H7   3032 0.11248000   1.008000   ; qtot -110.009084
 3033         h1    117    ccc     H8   3033 0.11248000   1.008000   ; qtot -109.896604
 3034         n3    117    ccc     N2   3034 -0.49292700  14.010000   ; qtot -110.389531
 3035         c3    117    ccc     C5   3035 0.00117700  12.010000   ; qtot -110.388354
 3036         c3    117    ccc     C6   3036 0.00117700  12.010000   ; qtot -110.387177
 3037         h1    117    ccc     H9   3037 0.05345200   1.008000   ; qtot -110.333725
 3038         c3    117    ccc     C7   3038 0.03104100  12.010000   ; qtot -110.302684
 3039         h1    117    ccc    H10   3039 0.05345200   1.008000   ; qtot -110.249232
 3040         hc    117    ccc    H11   3040 -0.03377200   1.008000   ; qtot -110.283004
 3041         hc    117    ccc    H12   3041 -0.03377200   1.008000   ; qtot -110.316776
 3042          c    117    ccc     C8   3042 0.93072900  12.010000   ; qtot -109.386047
 3043          o    117    ccc     O2   3043 -0.90377100  16.000000   ; qtot -110.289818
 3044          o    117    ccc     O3   3044 -0.90377100  16.000000   ; qtot -111.193589
 3045         h1    117    ccc    H13   3045 0.05345200   1.008000   ; qtot -111.140137
 3046         h1    117    ccc    H14   3046 0.05345200   1.008000   ; qtot -111.086685
 3047         c3    117    ccc     C9   3047 0.03104100  12.010000   ; qtot -111.055644
 3048         hc    117    ccc    H15   3048 -0.03377200   1.008000   ; qtot -111.089416
 3049         hc    117    ccc    H16   3049 -0.03377200   1.008000   ; qtot -111.123188
 3050          c    117    ccc    C10   3050 0.93072900  12.010000   ; qtot -110.192459
 3051          o    117    ccc     O4   3051 -0.90377100  16.000000   ; qtot -111.096230
 3052          o    117    ccc     O5   3052 -0.90377100  16.000000   ; qtot -112.000001
; residue  118 ccc rtp ccc q -2.0
 3053          n    118    ccc     N1   3053 -0.63700000  14.010000   ; qtot -112.637001
 3054         hn    118    ccc     H4   3054 0.34234400   1.008000   ; qtot -112.294657
 3055         c3    118    ccc     C3   3055 0.01091100  12.010000   ; qtot -112.283746
 3056         h1    118    ccc     H5   3056 0.11190000   1.008000   ; qtot -112.171846
 3057         c3    118    ccc     C4   3057 -0.06161800  12.010000   ; qtot -112.233464
 3058         h1    118    ccc     H6   3058 0.11190000   1.008000   ; qtot -112.121564
 3059         h1    118    ccc     H7   3059 0.11248000   1.008000   ; qtot -112.009084
 3060         h1    118    ccc     H8   3060 0.11248000   1.008000   ; qtot -111.896604
 3061         n3    118    ccc     N2   3061 -0.49292700  14.010000   ; qtot -112.389531
 3062         c3    118    ccc     C5   3062 0.00117700  12.010000   ; qtot -112.388354
 3063         c3    118    ccc     C6   3063 0.00117700  12.010000   ; qtot -112.387177
 3064         h1    118    ccc     H9   3064 0.05345200   1.008000   ; qtot -112.333725
 3065         c3    118    ccc     C7   3065 0.03104100  12.010000   ; qtot -112.302684
 3066         h1    118    ccc    H10   3066 0.05345200   1.008000   ; qtot -112.249232
 3067         hc    118    ccc    H11   3067 -0.03377200   1.008000   ; qtot -112.283004
 3068         hc    118    ccc    H12   3068 -0.03377200   1.008000   ; qtot -112.316776
 3069          c    118    ccc     C8   3069 0.93072900  12.010000   ; qtot -111.386047
 3070          o    118    ccc     O2   3070 -0.90377100  16.000000   ; qtot -112.289818
 3071          o    118    ccc     O3   3071 -0.90377100  16.000000   ; qtot -113.193589
 3072         h1    118    ccc    H13   3072 0.05345200   1.008000   ; qtot -113.140137
 3073         h1    118    ccc    H14   3073 0.05345200   1.008000   ; qtot -113.086685
 3074         c3    118    ccc     C9   3074 0.03104100  12.010000   ; qtot -113.055644
 3075         hc    118    ccc    H15   3075 -0.03377200   1.008000   ; qtot -113.089416
 3076         hc    118    ccc    H16   3076 -0.03377200   1.008000   ; qtot -113.123188
 3077          c    118    ccc    C10   3077 0.93072900  12.010000   ; qtot -112.192459
 3078          o    118    ccc     O4   3078 -0.90377100  16.000000   ; qtot -113.096230
 3079          o    118    ccc     O5   3079 -0.90377100  16.000000   ; qtot -114.000001
; residue  119 ccc rtp ccc q -2.0
 3080          n    119    ccc     N1   3080 -0.63700000  14.010000   ; qtot -114.637001
 3081         hn    119    ccc     H4   3081 0.34234400   1.008000   ; qtot -114.294657
 3082         c3    119    ccc     C3   3082 0.01091100  12.010000   ; qtot -114.283746
 3083         h1    119    ccc     H5   3083 0.11190000   1.008000   ; qtot -114.171846
 3084         c3    119    ccc     C4   3084 -0.06161800  12.010000   ; qtot -114.233464
 3085         h1    119    ccc     H6   3085 0.11190000   1.008000   ; qtot -114.121564
 3086         h1    119    ccc     H7   3086 0.11248000   1.008000   ; qtot -114.009084
 3087         h1    119    ccc     H8   3087 0.11248000   1.008000   ; qtot -113.896604
 3088         n3    119    ccc     N2   3088 -0.49292700  14.010000   ; qtot -114.389531
 3089         c3    119    ccc     C5   3089 0.00117700  12.010000   ; qtot -114.388354
 3090         c3    119    ccc     C6   3090 0.00117700  12.010000   ; qtot -114.387177
 3091         h1    119    ccc     H9   3091 0.05345200   1.008000   ; qtot -114.333725
 3092         c3    119    ccc     C7   3092 0.03104100  12.010000   ; qtot -114.302684
 3093         h1    119    ccc    H10   3093 0.05345200   1.008000   ; qtot -114.249232
 3094         hc    119    ccc    H11   3094 -0.03377200   1.008000   ; qtot -114.283004
 3095         hc    119    ccc    H12   3095 -0.03377200   1.008000   ; qtot -114.316776
 3096          c    119    ccc     C8   3096 0.93072900  12.010000   ; qtot -113.386047
 3097          o    119    ccc     O2   3097 -0.90377100  16.000000   ; qtot -114.289818
 3098          o    119    ccc     O3   3098 -0.90377100  16.000000   ; qtot -115.193589
 3099         h1    119    ccc    H13   3099 0.05345200   1.008000   ; qtot -115.140137
 3100         h1    119    ccc    H14   3100 0.05345200   1.008000   ; qtot -115.086685
 3101         c3    119    ccc     C9   3101 0.03104100  12.010000   ; qtot -115.055644
 3102         hc    119    ccc    H15   3102 -0.03377200   1.008000   ; qtot -115.089416
 3103         hc    119    ccc    H16   3103 -0.03377200   1.008000   ; qtot -115.123188
 3104          c    119    ccc    C10   3104 0.93072900  12.010000   ; qtot -114.192459
 3105          o    119    ccc     O4   3105 -0.90377100  16.000000   ; qtot -115.096230
 3106          o    119    ccc     O5   3106 -0.90377100  16.000000   ; qtot -116.000001
; residue  120 ccc rtp ccc q -2.0
 3107          n    120    ccc     N1   3107 -0.63700000  14.010000   ; qtot -116.637001
 3108         hn    120    ccc     H4   3108 0.34234400   1.008000   ; qtot -116.294657
 3109         c3    120    ccc     C3   3109 0.01091100  12.010000   ; qtot -116.283746
 3110         h1    120    ccc     H5   3110 0.11190000   1.008000   ; qtot -116.171846
 3111         c3    120    ccc     C4   3111 -0.06161800  12.010000   ; qtot -116.233464
 3112         h1    120    ccc     H6   3112 0.11190000   1.008000   ; qtot -116.121564
 3113         h1    120    ccc     H7   3113 0.11248000   1.008000   ; qtot -116.009084
 3114         h1    120    ccc     H8   3114 0.11248000   1.008000   ; qtot -115.896604
 3115         n3    120    ccc     N2   3115 -0.49292700  14.010000   ; qtot -116.389531
 3116         c3    120    ccc     C5   3116 0.00117700  12.010000   ; qtot -116.388354
 3117         c3    120    ccc     C6   3117 0.00117700  12.010000   ; qtot -116.387177
 3118         h1    120    ccc     H9   3118 0.05345200   1.008000   ; qtot -116.333725
 3119         c3    120    ccc     C7   3119 0.03104100  12.010000   ; qtot -116.302684
 3120         h1    120    ccc    H10   3120 0.05345200   1.008000   ; qtot -116.249232
 3121         hc    120    ccc    H11   3121 -0.03377200   1.008000   ; qtot -116.283004
 3122         hc    120    ccc    H12   3122 -0.03377200   1.008000   ; qtot -116.316776
 3123          c    120    ccc     C8   3123 0.93072900  12.010000   ; qtot -115.386047
 3124          o    120    ccc     O2   3124 -0.90377100  16.000000   ; qtot -116.289818
 3125          o    120    ccc     O3   3125 -0.90377100  16.000000   ; qtot -117.193589
 3126         h1    120    ccc    H13   3126 0.05345200   1.008000   ; qtot -117.140137
 3127         h1    120    ccc    H14   3127 0.05345200   1.008000   ; qtot -117.086685
 3128         c3    120    ccc     C9   3128 0.03104100  12.010000   ; qtot -117.055644
 3129         hc    120    ccc    H15   3129 -0.03377200   1.008000   ; qtot -117.089416
 3130         hc    120    ccc    H16   3130 -0.03377200   1.008000   ; qtot -117.123188
 3131          c    120    ccc    C10   3131 0.93072900  12.010000   ; qtot -116.192459
 3132          o    120    ccc     O4   3132 -0.90377100  16.000000   ; qtot -117.096230
 3133          o    120    ccc     O5   3133 -0.90377100  16.000000   ; qtot -118.000001
; residue  121 ccc rtp ccc q -2.0
 3134          n    121    ccc     N1   3134 -0.63700000  14.010000   ; qtot -118.637001
 3135         hn    121    ccc     H4   3135 0.34234400   1.008000   ; qtot -118.294657
 3136         c3    121    ccc     C3   3136 0.01091100  12.010000   ; qtot -118.283746
 3137         h1    121    ccc     H5   3137 0.11190000   1.008000   ; qtot -118.171846
 3138         c3    121    ccc     C4   3138 -0.06161800  12.010000   ; qtot -118.233464
 3139         h1    121    ccc     H6   3139 0.11190000   1.008000   ; qtot -118.121564
 3140         h1    121    ccc     H7   3140 0.11248000   1.008000   ; qtot -118.009084
 3141         h1    121    ccc     H8   3141 0.11248000   1.008000   ; qtot -117.896604
 3142         n3    121    ccc     N2   3142 -0.49292700  14.010000   ; qtot -118.389531
 3143         c3    121    ccc     C5   3143 0.00117700  12.010000   ; qtot -118.388354
 3144         c3    121    ccc     C6   3144 0.00117700  12.010000   ; qtot -118.387177
 3145         h1    121    ccc     H9   3145 0.05345200   1.008000   ; qtot -118.333725
 3146         c3    121    ccc     C7   3146 0.03104100  12.010000   ; qtot -118.302684
 3147         h1    121    ccc    H10   3147 0.05345200   1.008000   ; qtot -118.249232
 3148         hc    121    ccc    H11   3148 -0.03377200   1.008000   ; qtot -118.283004
 3149         hc    121    ccc    H12   3149 -0.03377200   1.008000   ; qtot -118.316776
 3150          c    121    ccc     C8   3150 0.93072900  12.010000   ; qtot -117.386047
 3151          o    121    ccc     O2   3151 -0.90377100  16.000000   ; qtot -118.289818
 3152          o    121    ccc     O3   3152 -0.90377100  16.000000   ; qtot -119.193589
 3153         h1    121    ccc    H13   3153 0.05345200   1.008000   ; qtot -119.140137
 3154         h1    121    ccc    H14   3154 0.05345200   1.008000   ; qtot -119.086685
 3155         c3    121    ccc     C9   3155 0.03104100  12.010000   ; qtot -119.055644
 3156         hc    121    ccc    H15   3156 -0.03377200   1.008000   ; qtot -119.089416
 3157         hc    121    ccc    H16   3157 -0.03377200   1.008000   ; qtot -119.123188
 3158          c    121    ccc    C10   3158 0.93072900  12.010000   ; qtot -118.192459
 3159          o    121    ccc     O4   3159 -0.90377100  16.000000   ; qtot -119.096230
 3160          o    121    ccc     O5   3160 -0.90377100  16.000000   ; qtot -120.000001
; residue  122 ccc rtp ccc q -2.0
 3161          n    122    ccc     N1   3161 -0.63700000  14.010000   ; qtot -120.637001
 3162         hn    122    ccc     H4   3162 0.34234400   1.008000   ; qtot -120.294657
 3163         c3    122    ccc     C3   3163 0.01091100  12.010000   ; qtot -120.283746
 3164         h1    122    ccc     H5   3164 0.11190000   1.008000   ; qtot -120.171846
 3165         c3    122    ccc     C4   3165 -0.06161800  12.010000   ; qtot -120.233464
 3166         h1    122    ccc     H6   3166 0.11190000   1.008000   ; qtot -120.121564
 3167         h1    122    ccc     H7   3167 0.11248000   1.008000   ; qtot -120.009084
 3168         h1    122    ccc     H8   3168 0.11248000   1.008000   ; qtot -119.896604
 3169         n3    122    ccc     N2   3169 -0.49292700  14.010000   ; qtot -120.389531
 3170         c3    122    ccc     C5   3170 0.00117700  12.010000   ; qtot -120.388354
 3171         c3    122    ccc     C6   3171 0.00117700  12.010000   ; qtot -120.387177
 3172         h1    122    ccc     H9   3172 0.05345200   1.008000   ; qtot -120.333725
 3173         c3    122    ccc     C7   3173 0.03104100  12.010000   ; qtot -120.302684
 3174         h1    122    ccc    H10   3174 0.05345200   1.008000   ; qtot -120.249232
 3175         hc    122    ccc    H11   3175 -0.03377200   1.008000   ; qtot -120.283004
 3176         hc    122    ccc    H12   3176 -0.03377200   1.008000   ; qtot -120.316776
 3177          c    122    ccc     C8   3177 0.93072900  12.010000   ; qtot -119.386047
 3178          o    122    ccc     O2   3178 -0.90377100  16.000000   ; qtot -120.289818
 3179          o    122    ccc     O3   3179 -0.90377100  16.000000   ; qtot -121.193589
 3180         h1    122    ccc    H13   3180 0.05345200   1.008000   ; qtot -121.140137
 3181         h1    122    ccc    H14   3181 0.05345200   1.008000   ; qtot -121.086685
 3182         c3    122    ccc     C9   3182 0.03104100  12.010000   ; qtot -121.055644
 3183         hc    122    ccc    H15   3183 -0.03377200   1.008000   ; qtot -121.089416
 3184         hc    122    ccc    H16   3184 -0.03377200   1.008000   ; qtot -121.123188
 3185          c    122    ccc    C10   3185 0.93072900  12.010000   ; qtot -120.192459
 3186          o    122    ccc     O4   3186 -0.90377100  16.000000   ; qtot -121.096230
 3187          o    122    ccc     O5   3187 -0.90377100  16.000000   ; qtot -122.000001
; residue  123 ccc rtp ccc q -2.0
 3188          n    123    ccc     N1   3188 -0.63700000  14.010000   ; qtot -122.637001
 3189         hn    123    ccc     H4   3189 0.34234400   1.008000   ; qtot -122.294657
 3190         c3    123    ccc     C3   3190 0.01091100  12.010000   ; qtot -122.283746
 3191         h1    123    ccc     H5   3191 0.11190000   1.008000   ; qtot -122.171846
 3192         c3    123    ccc     C4   3192 -0.06161800  12.010000   ; qtot -122.233464
 3193         h1    123    ccc     H6   3193 0.11190000   1.008000   ; qtot -122.121564
 3194         h1    123    ccc     H7   3194 0.11248000   1.008000   ; qtot -122.009084
 3195         h1    123    ccc     H8   3195 0.11248000   1.008000   ; qtot -121.896604
 3196         n3    123    ccc     N2   3196 -0.49292700  14.010000   ; qtot -122.389531
 3197         c3    123    ccc     C5   3197 0.00117700  12.010000   ; qtot -122.388354
 3198         c3    123    ccc     C6   3198 0.00117700  12.010000   ; qtot -122.387177
 3199         h1    123    ccc     H9   3199 0.05345200   1.008000   ; qtot -122.333725
 3200         c3    123    ccc     C7   3200 0.03104100  12.010000   ; qtot -122.302684
 3201         h1    123    ccc    H10   3201 0.05345200   1.008000   ; qtot -122.249232
 3202         hc    123    ccc    H11   3202 -0.03377200   1.008000   ; qtot -122.283004
 3203         hc    123    ccc    H12   3203 -0.03377200   1.008000   ; qtot -122.316776
 3204          c    123    ccc     C8   3204 0.93072900  12.010000   ; qtot -121.386047
 3205          o    123    ccc     O2   3205 -0.90377100  16.000000   ; qtot -122.289818
 3206          o    123    ccc     O3   3206 -0.90377100  16.000000   ; qtot -123.193589
 3207         h1    123    ccc    H13   3207 0.05345200   1.008000   ; qtot -123.140137
 3208         h1    123    ccc    H14   3208 0.05345200   1.008000   ; qtot -123.086685
 3209         c3    123    ccc     C9   3209 0.03104100  12.010000   ; qtot -123.055644
 3210         hc    123    ccc    H15   3210 -0.03377200   1.008000   ; qtot -123.089416
 3211         hc    123    ccc    H16   3211 -0.03377200   1.008000   ; qtot -123.123188
 3212          c    123    ccc    C10   3212 0.93072900  12.010000   ; qtot -122.192459
 3213          o    123    ccc     O4   3213 -0.90377100  16.000000   ; qtot -123.096230
 3214          o    123    ccc     O5   3214 -0.90377100  16.000000   ; qtot -124.000001
; residue  124 ccc rtp ccc q -2.0
 3215          n    124    ccc     N1   3215 -0.63700000  14.010000   ; qtot -124.637001
 3216         hn    124    ccc     H4   3216 0.34234400   1.008000   ; qtot -124.294657
 3217         c3    124    ccc     C3   3217 0.01091100  12.010000   ; qtot -124.283746
 3218         h1    124    ccc     H5   3218 0.11190000   1.008000   ; qtot -124.171846
 3219         c3    124    ccc     C4   3219 -0.06161800  12.010000   ; qtot -124.233464
 3220         h1    124    ccc     H6   3220 0.11190000   1.008000   ; qtot -124.121564
 3221         h1    124    ccc     H7   3221 0.11248000   1.008000   ; qtot -124.009084
 3222         h1    124    ccc     H8   3222 0.11248000   1.008000   ; qtot -123.896604
 3223         n3    124    ccc     N2   3223 -0.49292700  14.010000   ; qtot -124.389531
 3224         c3    124    ccc     C5   3224 0.00117700  12.010000   ; qtot -124.388354
 3225         c3    124    ccc     C6   3225 0.00117700  12.010000   ; qtot -124.387177
 3226         h1    124    ccc     H9   3226 0.05345200   1.008000   ; qtot -124.333725
 3227         c3    124    ccc     C7   3227 0.03104100  12.010000   ; qtot -124.302684
 3228         h1    124    ccc    H10   3228 0.05345200   1.008000   ; qtot -124.249232
 3229         hc    124    ccc    H11   3229 -0.03377200   1.008000   ; qtot -124.283004
 3230         hc    124    ccc    H12   3230 -0.03377200   1.008000   ; qtot -124.316776
 3231          c    124    ccc     C8   3231 0.93072900  12.010000   ; qtot -123.386047
 3232          o    124    ccc     O2   3232 -0.90377100  16.000000   ; qtot -124.289818
 3233          o    124    ccc     O3   3233 -0.90377100  16.000000   ; qtot -125.193589
 3234         h1    124    ccc    H13   3234 0.05345200   1.008000   ; qtot -125.140137
 3235         h1    124    ccc    H14   3235 0.05345200   1.008000   ; qtot -125.086685
 3236         c3    124    ccc     C9   3236 0.03104100  12.010000   ; qtot -125.055644
 3237         hc    124    ccc    H15   3237 -0.03377200   1.008000   ; qtot -125.089416
 3238         hc    124    ccc    H16   3238 -0.03377200   1.008000   ; qtot -125.123188
 3239          c    124    ccc    C10   3239 0.93072900  12.010000   ; qtot -124.192459
 3240          o    124    ccc     O4   3240 -0.90377100  16.000000   ; qtot -125.096230
 3241          o    124    ccc     O5   3241 -0.90377100  16.000000   ; qtot -126.000001
; residue  125 ccc rtp ccc q -2.0
 3242          n    125    ccc     N1   3242 -0.63700000  14.010000   ; qtot -126.637001
 3243         hn    125    ccc     H4   3243 0.34234400   1.008000   ; qtot -126.294657
 3244         c3    125    ccc     C3   3244 0.01091100  12.010000   ; qtot -126.283746
 3245         h1    125    ccc     H5   3245 0.11190000   1.008000   ; qtot -126.171846
 3246         c3    125    ccc     C4   3246 -0.06161800  12.010000   ; qtot -126.233464
 3247         h1    125    ccc     H6   3247 0.11190000   1.008000   ; qtot -126.121564
 3248         h1    125    ccc     H7   3248 0.11248000   1.008000   ; qtot -126.009084
 3249         h1    125    ccc     H8   3249 0.11248000   1.008000   ; qtot -125.896604
 3250         n3    125    ccc     N2   3250 -0.49292700  14.010000   ; qtot -126.389531
 3251         c3    125    ccc     C5   3251 0.00117700  12.010000   ; qtot -126.388354
 3252         c3    125    ccc     C6   3252 0.00117700  12.010000   ; qtot -126.387177
 3253         h1    125    ccc     H9   3253 0.05345200   1.008000   ; qtot -126.333725
 3254         c3    125    ccc     C7   3254 0.03104100  12.010000   ; qtot -126.302684
 3255         h1    125    ccc    H10   3255 0.05345200   1.008000   ; qtot -126.249232
 3256         hc    125    ccc    H11   3256 -0.03377200   1.008000   ; qtot -126.283004
 3257         hc    125    ccc    H12   3257 -0.03377200   1.008000   ; qtot -126.316776
 3258          c    125    ccc     C8   3258 0.93072900  12.010000   ; qtot -125.386047
 3259          o    125    ccc     O2   3259 -0.90377100  16.000000   ; qtot -126.289818
 3260          o    125    ccc     O3   3260 -0.90377100  16.000000   ; qtot -127.193589
 3261         h1    125    ccc    H13   3261 0.05345200   1.008000   ; qtot -127.140137
 3262         h1    125    ccc    H14   3262 0.05345200   1.008000   ; qtot -127.086685
 3263         c3    125    ccc     C9   3263 0.03104100  12.010000   ; qtot -127.055644
 3264         hc    125    ccc    H15   3264 -0.03377200   1.008000   ; qtot -127.089416
 3265         hc    125    ccc    H16   3265 -0.03377200   1.008000   ; qtot -127.123188
 3266          c    125    ccc    C10   3266 0.93072900  12.010000   ; qtot -126.192459
 3267          o    125    ccc     O4   3267 -0.90377100  16.000000   ; qtot -127.096230
 3268          o    125    ccc     O5   3268 -0.90377100  16.000000   ; qtot -128.000001

[ bonds ]
;    ai     aj funct         c0         c1         c2         c3
      1      4     1   0.15375 251793.120000
      1      8     1   0.14647 272713.120000
      4      7     1   0.14647 272713.120000
      7     15     1   0.14647 272713.120000
      7     18     1   0.14647 272713.120000
      8      9     1   0.14647 272713.120000
      8     12     1   0.14647 272713.120000
      9     30     1   0.15375 251793.120000
     12     27     1   0.15375 251793.120000
     15     21     1   0.15375 251793.120000
     18     24     1   0.15375 251793.120000
     21     35     1   0.15241 261918.400000
     24     36     1   0.15241 261918.400000
     27     33     1   0.15241 261918.400000
     30     34     1   0.15241 261918.400000
     33     37     1   0.12183 533627.360000
     33     64     1   0.13789 357815.680000
     34     40     1   0.12183 533627.360000
     34     89     1   0.13789 357815.680000
     35     38     1   0.12183 533627.360000
     35    114     1   0.13789 357815.680000
     36     39     1   0.12183 533627.360000
     36    139     1   0.13789 357815.680000
     41     44     1   0.15375 251793.120000
     41     47     1   0.14647 272713.120000
     44     64     1   0.14619 275056.160000
     47     48     1   0.14647 272713.120000
     47     51     1   0.14647 272713.120000
     48     57     1   0.15375 251793.120000
     51     54     1   0.15375 251793.120000
     54     60     1   0.15241 261918.400000
     57     61     1   0.15241 261918.400000
     60     62     1   0.12183 533627.360000
     60    164     1   0.13789 357815.680000
     61     63     1   0.12183 533627.360000
     61    189     1   0.13789 357815.680000
     66     69     1   0.15375 251793.120000
     66     72     1   0.14647 272713.120000
     69     89     1   0.14619 275056.160000
     72     73     1   0.14647 272713.120000
     72     76     1   0.14647 272713.120000
     73     82     1   0.15375 251793.120000
     76     79     1   0.15375 251793.120000
     79     85     1   0.15241 261918.400000
     82     86     1   0.15241 261918.400000
     85     87     1   0.12183 533627.360000
     85    214     1   0.13789 357815.680000
     86     88     1   0.12183 533627.360000
     86    239     1   0.13789 357815.680000
     91     94     1   0.15375 251793.120000
     91     97     1   0.14647 272713.120000
     94    114     1   0.14619 275056.160000
     97     98     1   0.14647 272713.120000
     97    101     1   0.14647 272713.120000
     98    107     1   0.15375 251793.120000
    101    104     1   0.15375 251793.120000
    104    110     1   0.15241 261918.400000
    107    111     1   0.15241 261918.400000
    110    112     1   0.12183 533627.360000
    110    264     1   0.13789 357815.680000
    111    113     1   0.12183 533627.360000
    111    289     1   0.13789 357815.680000
    116    119     1   0.15375 251793.120000
    116    122     1   0.14647 272713.120000
    119    139     1   0.14619 275056.160000
    122    123     1   0.14647 272713.120000
    122    126     1   0.14647 272713.120000
    123    132     1   0.15375 251793.120000
    126    129     1   0.15375 251793.120000
    129    135     1   0.15241 261918.400000
    132    136     1   0.15241 261918.400000
    135    137     1   0.12183 533627.360000
    135    314     1   0.13789 357815.680000
    136    138     1   0.12183 533627.360000
    136    339     1   0.13789 357815.680000
    141    144     1   0.15375 251793.120000
    141    147     1   0.14647 272713.120000
    144    164     1   0.14619 275056.160000
    147    148     1   0.14647 272713.120000
    147    151     1   0.14647 272713.120000
    148    157     1   0.15375 251793.120000
    151    154     1   0.15375 251793.120000
    154    160     1   0.15241 261918.400000
    157    161     1   0.15241 261918.400000
    160    162     1   0.12183 533627.360000
    160    364     1   0.13789 357815.680000
    161    163     1   0.12183 533627.360000
    161    389     1   0.13789 357815.680000
    166    169     1   0.15375 251793.120000
    166    172     1   0.14647 272713.120000
    169    189     1   0.14619 275056.160000
    172    173     1   0.14647 272713.120000
    172    176     1   0.14647 272713.120000
    173    182     1   0.15375 251793.120000
    176    179     1   0.15375 251793.120000
    179    185     1   0.15241 261918.400000
    182    186     1   0.15241 261918.400000
    185    187     1   0.12183 533627.360000
    185    414     1   0.13789 357815.680000
    186    188     1   0.12183 533627.360000
    186    439     1   0.13789 357815.680000
    191    194     1   0.15375 251793.120000
    191    197     1   0.14647 272713.120000
    194    214     1   0.14619 275056.160000
    197    198     1   0.14647 272713.120000
    197    201     1   0.14647 272713.120000
    198    207     1   0.15375 251793.120000
    201    204     1   0.15375 251793.120000
    204    210     1   0.15241 261918.400000
    207    211     1   0.15241 261918.400000
    210    212     1   0.12183 533627.360000
    210    464     1   0.13789 357815.680000
    211    213     1   0.12183 533627.360000
    211    489     1   0.13789 357815.680000
    216    219     1   0.15375 251793.120000
    216    222     1   0.14647 272713.120000
    219    239     1   0.14619 275056.160000
    222    223     1   0.14647 272713.120000
    222    226     1   0.14647 272713.120000
    223    232     1   0.15375 251793.120000
    226    229     1   0.15375 251793.120000
    229    235     1   0.15241 261918.400000
    232    236     1   0.15241 261918.400000
    235    237     1   0.12183 533627.360000
    235    514     1   0.13789 357815.680000
    236    238     1   0.12183 533627.360000
    236    539     1   0.13789 357815.680000
    241    244     1   0.15375 251793.120000
    241    247     1   0.14647 272713.120000
    244    264     1   0.14619 275056.160000
    247    248     1   0.14647 272713.120000
    247    251     1   0.14647 272713.120000
    248    257     1   0.15375 251793.120000
    251    254     1   0.15375 251793.120000
    254    260     1   0.15241 261918.400000
    257    261     1   0.15241 261918.400000
    260    262     1   0.12183 533627.360000
    260    564     1   0.13789 357815.680000
    261    263     1   0.12183 533627.360000
    261    589     1   0.13789 357815.680000
    266    269     1   0.15375 251793.120000
    266    272     1   0.14647 272713.120000
    269    289     1   0.14619 275056.160000
    272    273     1   0.14647 272713.120000
    272    276     1   0.14647 272713.120000
    273    282     1   0.15375 251793.120000
    276    279     1   0.15375 251793.120000
    279    285     1   0.15241 261918.400000
    282    286     1   0.15241 261918.400000
    285    287     1   0.12183 533627.360000
    285    614     1   0.13789 357815.680000
    286    288     1   0.12183 533627.360000
    286    639     1   0.13789 357815.680000
    291    294     1   0.15375 251793.120000
    291    297     1   0.14647 272713.120000
    294    314     1   0.14619 275056.160000
    297    298     1   0.14647 272713.120000
    297    301     1   0.14647 272713.120000
    298    307     1   0.15375 251793.120000
    301    304     1   0.15375 251793.120000
    304    310     1   0.15241 261918.400000
    307    311     1   0.15241 261918.400000
    310    312     1   0.12183 533627.360000
    310    664     1   0.13789 357815.680000
    311    313     1   0.12183 533627.360000
    311    689     1   0.13789 357815.680000
    316    319     1   0.15375 251793.120000
    316    322     1   0.14647 272713.120000
    319    339     1   0.14619 275056.160000
    322    323     1   0.14647 272713.120000
    322    326     1   0.14647 272713.120000
    323    332     1   0.15375 251793.120000
    326    329     1   0.15375 251793.120000
    329    335     1   0.15241 261918.400000
    332    336     1   0.15241 261918.400000
    335    337     1   0.12183 533627.360000
    335    714     1   0.13789 357815.680000
    336    338     1   0.12183 533627.360000
    336    739     1   0.13789 357815.680000
    341    344     1   0.15375 251793.120000
    341    347     1   0.14647 272713.120000
    344    364     1   0.14619 275056.160000
    347    348     1   0.14647 272713.120000
    347    351     1   0.14647 272713.120000
    348    357     1   0.15375 251793.120000
    351    354     1   0.15375 251793.120000
    354    360     1   0.15241 261918.400000
    357    361     1   0.15241 261918.400000
    360    362     1   0.12183 533627.360000
    360    764     1   0.13789 357815.680000
    361    363     1   0.12183 533627.360000
    361    789     1   0.13789 357815.680000
    366    369     1   0.15375 251793.120000
    366    372     1   0.14647 272713.120000
    369    389     1   0.14619 275056.160000
    372    373     1   0.14647 272713.120000
    372    376     1   0.14647 272713.120000
    373    382     1   0.15375 251793.120000
    376    379     1   0.15375 251793.120000
    379    385     1   0.15241 261918.400000
    382    386     1   0.15241 261918.400000
    385    387     1   0.12183 533627.360000
    385    814     1   0.13789 357815.680000
    386    388     1   0.12183 533627.360000
    386    839     1   0.13789 357815.680000
    391    394     1   0.15375 251793.120000
    391    397     1   0.14647 272713.120000
    394    414     1   0.14619 275056.160000
    397    398     1   0.14647 272713.120000
    397    401     1   0.14647 272713.120000
    398    407     1   0.15375 251793.120000
    401    404     1   0.15375 251793.120000
    404    410     1   0.15241 261918.400000
    407    411     1   0.15241 261918.400000
    410    412     1   0.12183 533627.360000
    410    864     1   0.13789 357815.680000
    411    413     1   0.12183 533627.360000
    411    889     1   0.13789 357815.680000
    416    419     1   0.15375 251793.120000
    416    422     1   0.14647 272713.120000
    419    439     1   0.14619 275056.160000
    422    423     1   0.14647 272713.120000
    422    426     1   0.14647 272713.120000
    423    432     1   0.15375 251793.120000
    426    429     1   0.15375 251793.120000
    429    435     1   0.15241 261918.400000
    432    436     1   0.15241 261918.400000
    435    437     1   0.12183 533627.360000
    435    914     1   0.13789 357815.680000
    436    438     1   0.12183 533627.360000
    436    939     1   0.13789 357815.680000
    441    444     1   0.15375 251793.120000
    441    447     1   0.14647 272713.120000
    444    464     1   0.14619 275056.160000
    447    448     1   0.14647 272713.120000
    447    451     1   0.14647 272713.120000
    448    457     1   0.15375 251793.120000
    451    454     1   0.15375 251793.120000
    454    460     1   0.15241 261918.400000
    457    461     1   0.15241 261918.400000
    460    462     1   0.12183 533627.360000
    460    964     1   0.13789 357815.680000
    461    463     1   0.12183 533627.360000
    461    989     1   0.13789 357815.680000
    466    469     1   0.15375 251793.120000
    466    472     1   0.14647 272713.120000
    469    489     1   0.14619 275056.160000
    472    473     1   0.14647 272713.120000
    472    476     1   0.14647 272713.120000
    473    482     1   0.15375 251793.120000
    476    479     1   0.15375 251793.120000
    479    485     1   0.15241 261918.400000
    482    486     1   0.15241 261918.400000
    485    487     1   0.12183 533627.360000
    485   1014     1   0.13789 357815.680000
    486    488     1   0.12183 533627.360000
    486   1039     1   0.13789 357815.680000
    491    494     1   0.15375 251793.120000
    491    497     1   0.14647 272713.120000
    494    514     1   0.14619 275056.160000
    497    498     1   0.14647 272713.120000
    497    501     1   0.14647 272713.120000
    498    507     1   0.15375 251793.120000
    501    504     1   0.15375 251793.120000
    504    510     1   0.15241 261918.400000
    507    511     1   0.15241 261918.400000
    510    512     1   0.12183 533627.360000
    510   1064     1   0.13789 357815.680000
    511    513     1   0.12183 533627.360000
    511   1089     1   0.13789 357815.680000
    516    519     1   0.15375 251793.120000
    516    522     1   0.14647 272713.120000
    519    539     1   0.14619 275056.160000
    522    523     1   0.14647 272713.120000
    522    526     1   0.14647 272713.120000
    523    532     1   0.15375 251793.120000
    526    529     1   0.15375 251793.120000
    529    535     1   0.15241 261918.400000
    532    536     1   0.15241 261918.400000
    535    537     1   0.12183 533627.360000
    535   1114     1   0.13789 357815.680000
    536    538     1   0.12183 533627.360000
    536   1139     1   0.13789 357815.680000
    541    544     1   0.15375 251793.120000
    541    547     1   0.14647 272713.120000
    544    564     1   0.14619 275056.160000
    547    548     1   0.14647 272713.120000
    547    551     1   0.14647 272713.120000
    548    557     1   0.15375 251793.120000
    551    554     1   0.15375 251793.120000
    554    560     1   0.15241 261918.400000
    557    561     1   0.15241 261918.400000
    560    562     1   0.12183 533627.360000
    560   1164     1   0.13789 357815.680000
    561    563     1   0.12183 533627.360000
    561   1189     1   0.13789 357815.680000
    566    569     1   0.15375 251793.120000
    566    572     1   0.14647 272713.120000
    569    589     1   0.14619 275056.160000
    572    573     1   0.14647 272713.120000
    572    576     1   0.14647 272713.120000
    573    582     1   0.15375 251793.120000
    576    579     1   0.15375 251793.120000
    579    585     1   0.15241 261918.400000
    582    586     1   0.15241 261918.400000
    585    587     1   0.12183 533627.360000
    585   1214     1   0.13789 357815.680000
    586    588     1   0.12183 533627.360000
    586   1239     1   0.13789 357815.680000
    591    594     1   0.15375 251793.120000
    591    597     1   0.14647 272713.120000
    594    614     1   0.14619 275056.160000
    597    598     1   0.14647 272713.120000
    597    601     1   0.14647 272713.120000
    598    607     1   0.15375 251793.120000
    601    604     1   0.15375 251793.120000
    604    610     1   0.15241 261918.400000
    607    611     1   0.15241 261918.400000
    610    612     1   0.12183 533627.360000
    610   1264     1   0.13789 357815.680000
    611    613     1   0.12183 533627.360000
    611   1289     1   0.13789 357815.680000
    616    619     1   0.15375 251793.120000
    616    622     1   0.14647 272713.120000
    619    639     1   0.14619 275056.160000
    622    623     1   0.14647 272713.120000
    622    626     1   0.14647 272713.120000
    623    632     1   0.15375 251793.120000
    626    629     1   0.15375 251793.120000
    629    635     1   0.15241 261918.400000
    632    636     1   0.15241 261918.400000
    635    637     1   0.12183 533627.360000
    635   1314     1   0.13789 357815.680000
    636    638     1   0.12183 533627.360000
    636   1339     1   0.13789 357815.680000
    641    644     1   0.15375 251793.120000
    641    647     1   0.14647 272713.120000
    644    664     1   0.14619 275056.160000
    647    648     1   0.14647 272713.120000
    647    651     1   0.14647 272713.120000
    648    657     1   0.15375 251793.120000
    651    654     1   0.15375 251793.120000
    654    660     1   0.15241 261918.400000
    657    661     1   0.15241 261918.400000
    660    662     1   0.12183 533627.360000
    660   1364     1   0.13789 357815.680000
    661    663     1   0.12183 533627.360000
    661   1389     1   0.13789 357815.680000
    666    669     1   0.15375 251793.120000
    666    672     1   0.14647 272713.120000
    669    689     1   0.14619 275056.160000
    672    673     1   0.14647 272713.120000
    672    676     1   0.14647 272713.120000
    673    682     1   0.15375 251793.120000
    676    679     1   0.15375 251793.120000
    679    685     1   0.15241 261918.400000
    682    686     1   0.15241 261918.400000
    685    687     1   0.12183 533627.360000
    685   1414     1   0.13789 357815.680000
    686    688     1   0.12183 533627.360000
    686   1439     1   0.13789 357815.680000
    691    694     1   0.15375 251793.120000
    691    697     1   0.14647 272713.120000
    694    714     1   0.14619 275056.160000
    697    698     1   0.14647 272713.120000
    697    701     1   0.14647 272713.120000
    698    707     1   0.15375 251793.120000
    701    704     1   0.15375 251793.120000
    704    710     1   0.15241 261918.400000
    707    711     1   0.15241 261918.400000
    710    712     1   0.12183 533627.360000
    710   1464     1   0.13789 357815.680000
    711    713     1   0.12183 533627.360000
    711   1489     1   0.13789 357815.680000
    716    719     1   0.15375 251793.120000
    716    722     1   0.14647 272713.120000
    719    739     1   0.14619 275056.160000
    722    723     1   0.14647 272713.120000
    722    726     1   0.14647 272713.120000
    723    732     1   0.15375 251793.120000
    726    729     1   0.15375 251793.120000
    729    735     1   0.15241 261918.400000
    732    736     1   0.15241 261918.400000
    735    737     1   0.12183 533627.360000
    735   1514     1   0.13789 357815.680000
    736    738     1   0.12183 533627.360000
    736   1539     1   0.13789 357815.680000
    741    744     1   0.15375 251793.120000
    741    747     1   0.14647 272713.120000
    744    764     1   0.14619 275056.160000
    747    748     1   0.14647 272713.120000
    747    751     1   0.14647 272713.120000
    748    757     1   0.15375 251793.120000
    751    754     1   0.15375 251793.120000
    754    760     1   0.15241 261918.400000
    757    761     1   0.15241 261918.400000
    760   1541     1   0.13789 357815.680000
    760    762     1   0.12183 533627.360000
    761    763     1   0.12183 533627.360000
    761   1568     1   0.13789 357815.680000
    766    769     1   0.15375 251793.120000
    766    772     1   0.14647 272713.120000
    769    789     1   0.14619 275056.160000
    772    773     1   0.14647 272713.120000
    772    776     1   0.14647 272713.120000
    773    782     1   0.15375 251793.120000
    776    779     1   0.15375 251793.120000
    779    785     1   0.15241 261918.400000
    782    786     1   0.15241 261918.400000
    785   1595     1   0.13789 357815.680000
    785    787     1   0.12183 533627.360000
    786    788     1   0.12183 533627.360000
    786   1622     1   0.13789 357815.680000
    791    794     1   0.15375 251793.120000
    791    797     1   0.14647 272713.120000
    794    814     1   0.14619 275056.160000
    797    798     1   0.14647 272713.120000
    797    801     1   0.14647 272713.120000
    798    807     1   0.15375 251793.120000
    801    804     1   0.15375 251793.120000
    804    810     1   0.15241 261918.400000
    807    811     1   0.15241 261918.400000
    810   1649     1   0.13789 357815.680000
    810    812     1   0.12183 533627.360000
    811    813     1   0.12183 533627.360000
    811   1676     1   0.13789 357815.680000
    816    819     1   0.15375 251793.120000
    816    822     1   0.14647 272713.120000
    819    839     1   0.14619 275056.160000
    822    823     1   0.14647 272713.120000
    822    826     1   0.14647 272713.120000
    823    832     1   0.15375 251793.120000
    826    829     1   0.15375 251793.120000
    829    835     1   0.15241 261918.400000
    832    836     1   0.15241 261918.400000
    835   1703     1   0.13789 357815.680000
    835    837     1   0.12183 533627.360000
    836    838     1   0.12183 533627.360000
    836   1730     1   0.13789 357815.680000
    841    844     1   0.15375 251793.120000
    841    847     1   0.14647 272713.120000
    844    864     1   0.14619 275056.160000
    847    848     1   0.14647 272713.120000
    847    851     1   0.14647 272713.120000
    848    857     1   0.15375 251793.120000
    851    854     1   0.15375 251793.120000
    854    860     1   0.15241 261918.400000
    857    861     1   0.15241 261918.400000
    860   1757     1   0.13789 357815.680000
    860    862     1   0.12183 533627.360000
    861    863     1   0.12183 533627.360000
    861   1784     1   0.13789 357815.680000
    866    869     1   0.15375 251793.120000
    866    872     1   0.14647 272713.120000
    869    889     1   0.14619 275056.160000
    872    873     1   0.14647 272713.120000
    872    876     1   0.14647 272713.120000
    873    882     1   0.15375 251793.120000
    876    879     1   0.15375 251793.120000
    879    885     1   0.15241 261918.400000
    882    886     1   0.15241 261918.400000
    885   1811     1   0.13789 357815.680000
    885    887     1   0.12183 533627.360000
    886    888     1   0.12183 533627.360000
    886   1838     1   0.13789 357815.680000
    891    894     1   0.15375 251793.120000
    891    897     1   0.14647 272713.120000
    894    914     1   0.14619 275056.160000
    897    898     1   0.14647 272713.120000
    897    901     1   0.14647 272713.120000
    898    907     1   0.15375 251793.120000
    901    904     1   0.15375 251793.120000
    904    910     1   0.15241 261918.400000
    907    911     1   0.15241 261918.400000
    910   1865     1   0.13789 357815.680000
    910    912     1   0.12183 533627.360000
    911    913     1   0.12183 533627.360000
    911   1892     1   0.13789 357815.680000
    916    919     1   0.15375 251793.120000
    916    922     1   0.14647 272713.120000
    919    939     1   0.14619 275056.160000
    922    923     1   0.14647 272713.120000
    922    926     1   0.14647 272713.120000
    923    932     1   0.15375 251793.120000
    926    929     1   0.15375 251793.120000
    929    935     1   0.15241 261918.400000
    932    936     1   0.15241 261918.400000
    935   1919     1   0.13789 357815.680000
    935    937     1   0.12183 533627.360000
    936    938     1   0.12183 533627.360000
    936   1946     1   0.13789 357815.680000
    941    944     1   0.15375 251793.120000
    941    947     1   0.14647 272713.120000
    944    964     1   0.14619 275056.160000
    947    948     1   0.14647 272713.120000
    947    951     1   0.14647 272713.120000
    948    957     1   0.15375 251793.120000
    951    954     1   0.15375 251793.120000
    954    960     1   0.15241 261918.400000
    957    961     1   0.15241 261918.400000
    960   1973     1   0.13789 357815.680000
    960    962     1   0.12183 533627.360000
    961    963     1   0.12183 533627.360000
    961   2000     1   0.13789 357815.680000
    966    969     1   0.15375 251793.120000
    966    972     1   0.14647 272713.120000
    969    989     1   0.14619 275056.160000
    972    973     1   0.14647 272713.120000
    972    976     1   0.14647 272713.120000
    973    982     1   0.15375 251793.120000
    976    979     1   0.15375 251793.120000
    979    985     1   0.15241 261918.400000
    982    986     1   0.15241 261918.400000
    985   2027     1   0.13789 357815.680000
    985    987     1   0.12183 533627.360000
    986    988     1   0.12183 533627.360000
    986   2054     1   0.13789 357815.680000
    991    994     1   0.15375 251793.120000
    991    997     1   0.14647 272713.120000
    994   1014     1   0.14619 275056.160000
    997    998     1   0.14647 272713.120000
    997   1001     1   0.14647 272713.120000
    998   1007     1   0.15375 251793.120000
   1001   1004     1   0.15375 251793.120000
   1004   1010     1   0.15241 261918.400000
   1007   1011     1   0.15241 261918.400000
   1010   2081     1   0.13789 357815.680000
   1010   1012     1   0.12183 533627.360000
   1011   1013     1   0.12183 533627.360000
   1011   2108     1   0.13789 357815.680000
   1016   1019     1   0.15375 251793.120000
   1016   1022     1   0.14647 272713.120000
   1019   1039     1   0.14619 275056.160000
   1022   1023     1   0.14647 272713.120000
   1022   1026     1   0.14647 272713.120000
   1023   1032     1   0.15375 251793.120000
   1026   1029     1   0.15375 251793.120000
   1029   1035     1   0.15241 261918.400000
   1032   1036     1   0.15241 261918.400000
   1035   2135     1   0.13789 357815.680000
   1035   1037     1   0.12183 533627.360000
   1036   1038     1   0.12183 533627.360000
   1036   2162     1   0.13789 357815.680000
   1041   1044     1   0.15375 251793.120000
   1041   1047     1   0.14647 272713.120000
   1044   1064     1   0.14619 275056.160000
   1047   1048     1   0.14647 272713.120000
   1047   1051     1   0.14647 272713.120000
   1048   1057     1   0.15375 251793.120000
   1051   1054     1   0.15375 251793.120000
   1054   1060     1   0.15241 261918.400000
   1057   1061     1   0.15241 261918.400000
   1060   2189     1   0.13789 357815.680000
   1060   1062     1   0.12183 533627.360000
   1061   1063     1   0.12183 533627.360000
   1061   2216     1   0.13789 357815.680000
   1066   1069     1   0.15375 251793.120000
   1066   1072     1   0.14647 272713.120000
   1069   1089     1   0.14619 275056.160000
   1072   1073     1   0.14647 272713.120000
   1072   1076     1   0.14647 272713.120000
   1073   1082     1   0.15375 251793.120000
   1076   1079     1   0.15375 251793.120000
   1079   1085     1   0.15241 261918.400000
   1082   1086     1   0.15241 261918.400000
   1085   2243     1   0.13789 357815.680000
   1085   1087     1   0.12183 533627.360000
   1086   1088     1   0.12183 533627.360000
   1086   2270     1   0.13789 357815.680000
   1091   1094     1   0.15375 251793.120000
   1091   1097     1   0.14647 272713.120000
   1094   1114     1   0.14619 275056.160000
   1097   1098     1   0.14647 272713.120000
   1097   1101     1   0.14647 272713.120000
   1098   1107     1   0.15375 251793.120000
   1101   1104     1   0.15375 251793.120000
   1104   1110     1   0.15241 261918.400000
   1107   1111     1   0.15241 261918.400000
   1110   2297     1   0.13789 357815.680000
   1110   1112     1   0.12183 533627.360000
   1111   1113     1   0.12183 533627.360000
   1111   2324     1   0.13789 357815.680000
   1116   1119     1   0.15375 251793.120000
   1116   1122     1   0.14647 272713.120000
   1119   1139     1   0.14619 275056.160000
   1122   1123     1   0.14647 272713.120000
   1122   1126     1   0.14647 272713.120000
   1123   1132     1   0.15375 251793.120000
   1126   1129     1   0.15375 251793.120000
   1129   1135     1   0.15241 261918.400000
   1132   1136     1   0.15241 261918.400000
   1135   2351     1   0.13789 357815.680000
   1135   1137     1   0.12183 533627.360000
   1136   1138     1   0.12183 533627.360000
   1136   2378     1   0.13789 357815.680000
   1141   1144     1   0.15375 251793.120000
   1141   1147     1   0.14647 272713.120000
   1144   1164     1   0.14619 275056.160000
   1147   1148     1   0.14647 272713.120000
   1147   1151     1   0.14647 272713.120000
   1148   1157     1   0.15375 251793.120000
   1151   1154     1   0.15375 251793.120000
   1154   1160     1   0.15241 261918.400000
   1157   1161     1   0.15241 261918.400000
   1160   2405     1   0.13789 357815.680000
   1160   1162     1   0.12183 533627.360000
   1161   1163     1   0.12183 533627.360000
   1161   2432     1   0.13789 357815.680000
   1166   1169     1   0.15375 251793.120000
   1166   1172     1   0.14647 272713.120000
   1169   1189     1   0.14619 275056.160000
   1172   1173     1   0.14647 272713.120000
   1172   1176     1   0.14647 272713.120000
   1173   1182     1   0.15375 251793.120000
   1176   1179     1   0.15375 251793.120000
   1179   1185     1   0.15241 261918.400000
   1182   1186     1   0.15241 261918.400000
   1185   2459     1   0.13789 357815.680000
   1185   1187     1   0.12183 533627.360000
   1186   1188     1   0.12183 533627.360000
   1186   2486     1   0.13789 357815.680000
   1191   1194     1   0.15375 251793.120000
   1191   1197     1   0.14647 272713.120000
   1194   1214     1   0.14619 275056.160000
   1197   1198     1   0.14647 272713.120000
   1197   1201     1   0.14647 272713.120000
   1198   1207     1   0.15375 251793.120000
   1201   1204     1   0.15375 251793.120000
   1204   1210     1   0.15241 261918.400000
   1207   1211     1   0.15241 261918.400000
   1210   2513     1   0.13789 357815.680000
   1210   1212     1   0.12183 533627.360000
   1211   1213     1   0.12183 533627.360000
   1211   2540     1   0.13789 357815.680000
   1216   1219     1   0.15375 251793.120000
   1216   1222     1   0.14647 272713.120000
   1219   1239     1   0.14619 275056.160000
   1222   1223     1   0.14647 272713.120000
   1222   1226     1   0.14647 272713.120000
   1223   1232     1   0.15375 251793.120000
   1226   1229     1   0.15375 251793.120000
   1229   1235     1   0.15241 261918.400000
   1232   1236     1   0.15241 261918.400000
   1235   2567     1   0.13789 357815.680000
   1235   1237     1   0.12183 533627.360000
   1236   1238     1   0.12183 533627.360000
   1236   2594     1   0.13789 357815.680000
   1241   1244     1   0.15375 251793.120000
   1241   1247     1   0.14647 272713.120000
   1244   1264     1   0.14619 275056.160000
   1247   1248     1   0.14647 272713.120000
   1247   1251     1   0.14647 272713.120000
   1248   1257     1   0.15375 251793.120000
   1251   1254     1   0.15375 251793.120000
   1254   1260     1   0.15241 261918.400000
   1257   1261     1   0.15241 261918.400000
   1260   2621     1   0.13789 357815.680000
   1260   1262     1   0.12183 533627.360000
   1261   1263     1   0.12183 533627.360000
   1261   2648     1   0.13789 357815.680000
   1266   1269     1   0.15375 251793.120000
   1266   1272     1   0.14647 272713.120000
   1269   1289     1   0.14619 275056.160000
   1272   1273     1   0.14647 272713.120000
   1272   1276     1   0.14647 272713.120000
   1273   1282     1   0.15375 251793.120000
   1276   1279     1   0.15375 251793.120000
   1279   1285     1   0.15241 261918.400000
   1282   1286     1   0.15241 261918.400000
   1285   2675     1   0.13789 357815.680000
   1285   1287     1   0.12183 533627.360000
   1286   1288     1   0.12183 533627.360000
   1286   2702     1   0.13789 357815.680000
   1291   1294     1   0.15375 251793.120000
   1291   1297     1   0.14647 272713.120000
   1294   1314     1   0.14619 275056.160000
   1297   1298     1   0.14647 272713.120000
   1297   1301     1   0.14647 272713.120000
   1298   1307     1   0.15375 251793.120000
   1301   1304     1   0.15375 251793.120000
   1304   1310     1   0.15241 261918.400000
   1307   1311     1   0.15241 261918.400000
   1310   2729     1   0.13789 357815.680000
   1310   1312     1   0.12183 533627.360000
   1311   1313     1   0.12183 533627.360000
   1311   2756     1   0.13789 357815.680000
   1316   1319     1   0.15375 251793.120000
   1316   1322     1   0.14647 272713.120000
   1319   1339     1   0.14619 275056.160000
   1322   1323     1   0.14647 272713.120000
   1322   1326     1   0.14647 272713.120000
   1323   1332     1   0.15375 251793.120000
   1326   1329     1   0.15375 251793.120000
   1329   1335     1   0.15241 261918.400000
   1332   1336     1   0.15241 261918.400000
   1335   2783     1   0.13789 357815.680000
   1335   1337     1   0.12183 533627.360000
   1336   1338     1   0.12183 533627.360000
   1336   2810     1   0.13789 357815.680000
   1341   1344     1   0.15375 251793.120000
   1341   1347     1   0.14647 272713.120000
   1344   1364     1   0.14619 275056.160000
   1347   1348     1   0.14647 272713.120000
   1347   1351     1   0.14647 272713.120000
   1348   1357     1   0.15375 251793.120000
   1351   1354     1   0.15375 251793.120000
   1354   1360     1   0.15241 261918.400000
   1357   1361     1   0.15241 261918.400000
   1360   2837     1   0.13789 357815.680000
   1360   1362     1   0.12183 533627.360000
   1361   1363     1   0.12183 533627.360000
   1361   2864     1   0.13789 357815.680000
   1366   1369     1   0.15375 251793.120000
   1366   1372     1   0.14647 272713.120000
   1369   1389     1   0.14619 275056.160000
   1372   1373     1   0.14647 272713.120000
   1372   1376     1   0.14647 272713.120000
   1373   1382     1   0.15375 251793.120000
   1376   1379     1   0.15375 251793.120000
   1379   1385     1   0.15241 261918.400000
   1382   1386     1   0.15241 261918.400000
   1385   2891     1   0.13789 357815.680000
   1385   1387     1   0.12183 533627.360000
   1386   1388     1   0.12183 533627.360000
   1386   2918     1   0.13789 357815.680000
   1391   1394     1   0.15375 251793.120000
   1391   1397     1   0.14647 272713.120000
   1394   1414     1   0.14619 275056.160000
   1397   1398     1   0.14647 272713.120000
   1397   1401     1   0.14647 272713.120000
   1398   1407     1   0.15375 251793.120000
   1401   1404     1   0.15375 251793.120000
   1404   1410     1   0.15241 261918.400000
   1407   1411     1   0.15241 261918.400000
   1410   2945     1   0.13789 357815.680000
   1410   1412     1   0.12183 533627.360000
   1411   1413     1   0.12183 533627.360000
   1411   2972     1   0.13789 357815.680000
   1416   1419     1   0.15375 251793.120000
   1416   1422     1   0.14647 272713.120000
   1419   1439     1   0.14619 275056.160000
   1422   1423     1   0.14647 272713.120000
   1422   1426     1   0.14647 272713.120000
   1423   1432     1   0.15375 251793.120000
   1426   1429     1   0.15375 251793.120000
   1429   1435     1   0.15241 261918.400000
   1432   1436     1   0.15241 261918.400000
   1435   2999     1   0.13789 357815.680000
   1435   1437     1   0.12183 533627.360000
   1436   1438     1   0.12183 533627.360000
   1436   3026     1   0.13789 357815.680000
   1441   1444     1   0.15375 251793.120000
   1441   1447     1   0.14647 272713.120000
   1444   1464     1   0.14619 275056.160000
   1447   1448     1   0.14647 272713.120000
   1447   1451     1   0.14647 272713.120000
   1448   1457     1   0.15375 251793.120000
   1451   1454     1   0.15375 251793.120000
   1454   1460     1   0.15241 261918.400000
   1457   1461     1   0.15241 261918.400000
   1460   3053     1   0.13789 357815.680000
   1460   1462     1   0.12183 533627.360000
   1461   1463     1   0.12183 533627.360000
   1461   3080     1   0.13789 357815.680000
   1466   1469     1   0.15375 251793.120000
   1466   1472     1   0.14647 272713.120000
   1469   1489     1   0.14619 275056.160000
   1472   1473     1   0.14647 272713.120000
   1472   1476     1   0.14647 272713.120000
   1473   1482     1   0.15375 251793.120000
   1476   1479     1   0.15375 251793.120000
   1479   1485     1   0.15241 261918.400000
   1482   1486     1   0.15241 261918.400000
   1485   3107     1   0.13789 357815.680000
   1485   1487     1   0.12183 533627.360000
   1486   1488     1   0.12183 533627.360000
   1486   3134     1   0.13789 357815.680000
   1491   1494     1   0.15375 251793.120000
   1491   1497     1   0.14647 272713.120000
   1494   1514     1   0.14619 275056.160000
   1497   1498     1   0.14647 272713.120000
   1497   1501     1   0.14647 272713.120000
   1498   1507     1   0.15375 251793.120000
   1501   1504     1   0.15375 251793.120000
   1504   1510     1   0.15241 261918.400000
   1507   1511     1   0.15241 261918.400000
   1510   3161     1   0.13789 357815.680000
   1510   1512     1   0.12183 533627.360000
   1511   1513     1   0.12183 533627.360000
   1511   3188     1   0.13789 357815.680000
   1516   1519     1   0.15375 251793.120000
   1516   1522     1   0.14647 272713.120000
   1519   1539     1   0.14619 275056.160000
   1522   1523     1   0.14647 272713.120000
   1522   1526     1   0.14647 272713.120000
   1523   1532     1   0.15375 251793.120000
   1526   1529     1   0.15375 251793.120000
   1529   1535     1   0.15241 261918.400000
   1532   1536     1   0.15241 261918.400000
   1535   3215     1   0.13789 357815.680000
   1535   1537     1   0.12183 533627.360000
   1536   3242     1   0.13789 357815.680000
   1536   1538     1   0.12183 533627.360000
   1541   1543     1   0.14619 275056.160000
   1543   1545     1   0.15375 251793.120000
   1545   1549     1   0.14647 272713.120000
   1549   1550     1   0.14647 272713.120000
   1549   1551     1   0.14647 272713.120000
   1550   1562     1   0.15375 251793.120000
   1551   1553     1   0.15375 251793.120000
   1553   1557     1   0.15241 261918.400000
   1557   1558     1   0.12183 533627.360000
   1557   1559     1   0.12183 533627.360000
   1562   1565     1   0.15241 261918.400000
   1565   1566     1   0.12183 533627.360000
   1565   1567     1   0.12183 533627.360000
   1568   1570     1   0.14619 275056.160000
   1570   1572     1   0.15375 251793.120000
   1572   1576     1   0.14647 272713.120000
   1576   1577     1   0.14647 272713.120000
   1576   1578     1   0.14647 272713.120000
   1577   1589     1   0.15375 251793.120000
   1578   1580     1   0.15375 251793.120000
   1580   1584     1   0.15241 261918.400000
   1584   1585     1   0.12183 533627.360000
   1584   1586     1   0.12183 533627.360000
   1589   1592     1   0.15241 261918.400000
   1592   1593     1   0.12183 533627.360000
   1592   1594     1   0.12183 533627.360000
   1595   1597     1   0.14619 275056.160000
   1597   1599     1   0.15375 251793.120000
   1599   1603     1   0.14647 272713.120000
   1603   1604     1   0.14647 272713.120000
   1603   1605     1   0.14647 272713.120000
   1604   1616     1   0.15375 251793.120000
   1605   1607     1   0.15375 251793.120000
   1607   1611     1   0.15241 261918.400000
   1611   1612     1   0.12183 533627.360000
   1611   1613     1   0.12183 533627.360000
   1616   1619     1   0.15241 261918.400000
   1619   1620     1   0.12183 533627.360000
   1619   1621     1   0.12183 533627.360000
   1622   1624     1   0.14619 275056.160000
   1624   1626     1   0.15375 251793.120000
   1626   1630     1   0.14647 272713.120000
   1630   1631     1   0.14647 272713.120000
   1630   1632     1   0.14647 272713.120000
   1631   1643     1   0.15375 251793.120000
   1632   1634     1   0.15375 251793.120000
   1634   1638     1   0.15241 261918.400000
   1638   1639     1   0.12183 533627.360000
   1638   1640     1   0.12183 533627.360000
   1643   1646     1   0.15241 261918.400000
   1646   1647     1   0.12183 533627.360000
   1646   1648     1   0.12183 533627.360000
   1649   1651     1   0.14619 275056.160000
   1651   1653     1   0.15375 251793.120000
   1653   1657     1   0.14647 272713.120000
   1657   1658     1   0.14647 272713.120000
   1657   1659     1   0.14647 272713.120000
   1658   1670     1   0.15375 251793.120000
   1659   1661     1   0.15375 251793.120000
   1661   1665     1   0.15241 261918.400000
   1665   1666     1   0.12183 533627.360000
   1665   1667     1   0.12183 533627.360000
   1670   1673     1   0.15241 261918.400000
   1673   1674     1   0.12183 533627.360000
   1673   1675     1   0.12183 533627.360000
   1676   1678     1   0.14619 275056.160000
   1678   1680     1   0.15375 251793.120000
   1680   1684     1   0.14647 272713.120000
   1684   1685     1   0.14647 272713.120000
   1684   1686     1   0.14647 272713.120000
   1685   1697     1   0.15375 251793.120000
   1686   1688     1   0.15375 251793.120000
   1688   1692     1   0.15241 261918.400000
   1692   1693     1   0.12183 533627.360000
   1692   1694     1   0.12183 533627.360000
   1697   1700     1   0.15241 261918.400000
   1700   1701     1   0.12183 533627.360000
   1700   1702     1   0.12183 533627.360000
   1703   1705     1   0.14619 275056.160000
   1705   1707     1   0.15375 251793.120000
   1707   1711     1   0.14647 272713.120000
   1711   1712     1   0.14647 272713.120000
   1711   1713     1   0.14647 272713.120000
   1712   1724     1   0.15375 251793.120000
   1713   1715     1   0.15375 251793.120000
   1715   1719     1   0.15241 261918.400000
   1719   1720     1   0.12183 533627.360000
   1719   1721     1   0.12183 533627.360000
   1724   1727     1   0.15241 261918.400000
   1727   1728     1   0.12183 533627.360000
   1727   1729     1   0.12183 533627.360000
   1730   1732     1   0.14619 275056.160000
   1732   1734     1   0.15375 251793.120000
   1734   1738     1   0.14647 272713.120000
   1738   1739     1   0.14647 272713.120000
   1738   1740     1   0.14647 272713.120000
   1739   1751     1   0.15375 251793.120000
   1740   1742     1   0.15375 251793.120000
   1742   1746     1   0.15241 261918.400000
   1746   1747     1   0.12183 533627.360000
   1746   1748     1   0.12183 533627.360000
   1751   1754     1   0.15241 261918.400000
   1754   1755     1   0.12183 533627.360000
   1754   1756     1   0.12183 533627.360000
   1757   1759     1   0.14619 275056.160000
   1759   1761     1   0.15375 251793.120000
   1761   1765     1   0.14647 272713.120000
   1765   1766     1   0.14647 272713.120000
   1765   1767     1   0.14647 272713.120000
   1766   1778     1   0.15375 251793.120000
   1767   1769     1   0.15375 251793.120000
   1769   1773     1   0.15241 261918.400000
   1773   1774     1   0.12183 533627.360000
   1773   1775     1   0.12183 533627.360000
   1778   1781     1   0.15241 261918.400000
   1781   1782     1   0.12183 533627.360000
   1781   1783     1   0.12183 533627.360000
   1784   1786     1   0.14619 275056.160000
   1786   1788     1   0.15375 251793.120000
   1788   1792     1   0.14647 272713.120000
   1792   1793     1   0.14647 272713.120000
   1792   1794     1   0.14647 272713.120000
   1793   1805     1   0.15375 251793.120000
   1794   1796     1   0.15375 251793.120000
   1796   1800     1   0.15241 261918.400000
   1800   1801     1   0.12183 533627.360000
   1800   1802     1   0.12183 533627.360000
   1805   1808     1   0.15241 261918.400000
   1808   1809     1   0.12183 533627.360000
   1808   1810     1   0.12183 533627.360000
   1811   1813     1   0.14619 275056.160000
   1813   1815     1   0.15375 251793.120000
   1815   1819     1   0.14647 272713.120000
   1819   1820     1   0.14647 272713.120000
   1819   1821     1   0.14647 272713.120000
   1820   1832     1   0.15375 251793.120000
   1821   1823     1   0.15375 251793.120000
   1823   1827     1   0.15241 261918.400000
   1827   1828     1   0.12183 533627.360000
   1827   1829     1   0.12183 533627.360000
   1832   1835     1   0.15241 261918.400000
   1835   1836     1   0.12183 533627.360000
   1835   1837     1   0.12183 533627.360000
   1838   1840     1   0.14619 275056.160000
   1840   1842     1   0.15375 251793.120000
   1842   1846     1   0.14647 272713.120000
   1846   1847     1   0.14647 272713.120000
   1846   1848     1   0.14647 272713.120000
   1847   1859     1   0.15375 251793.120000
   1848   1850     1   0.15375 251793.120000
   1850   1854     1   0.15241 261918.400000
   1854   1855     1   0.12183 533627.360000
   1854   1856     1   0.12183 533627.360000
   1859   1862     1   0.15241 261918.400000
   1862   1863     1   0.12183 533627.360000
   1862   1864     1   0.12183 533627.360000
   1865   1867     1   0.14619 275056.160000
   1867   1869     1   0.15375 251793.120000
   1869   1873     1   0.14647 272713.120000
   1873   1874     1   0.14647 272713.120000
   1873   1875     1   0.14647 272713.120000
   1874   1886     1   0.15375 251793.120000
   1875   1877     1   0.15375 251793.120000
   1877   1881     1   0.15241 261918.400000
   1881   1882     1   0.12183 533627.360000
   1881   1883     1   0.12183 533627.360000
   1886   1889     1   0.15241 261918.400000
   1889   1890     1   0.12183 533627.360000
   1889   1891     1   0.12183 533627.360000
   1892   1894     1   0.14619 275056.160000
   1894   1896     1   0.15375 251793.120000
   1896   1900     1   0.14647 272713.120000
   1900   1901     1   0.14647 272713.120000
   1900   1902     1   0.14647 272713.120000
   1901   1913     1   0.15375 251793.120000
   1902   1904     1   0.15375 251793.120000
   1904   1908     1   0.15241 261918.400000
   1908   1909     1   0.12183 533627.360000
   1908   1910     1   0.12183 533627.360000
   1913   1916     1   0.15241 261918.400000
   1916   1917     1   0.12183 533627.360000
   1916   1918     1   0.12183 533627.360000
   1919   1921     1   0.14619 275056.160000
   1921   1923     1   0.15375 251793.120000
   1923   1927     1   0.14647 272713.120000
   1927   1928     1   0.14647 272713.120000
   1927   1929     1   0.14647 272713.120000
   1928   1940     1   0.15375 251793.120000
   1929   1931     1   0.15375 251793.120000
   1931   1935     1   0.15241 261918.400000
   1935   1936     1   0.12183 533627.360000
   1935   1937     1   0.12183 533627.360000
   1940   1943     1   0.15241 261918.400000
   1943   1944     1   0.12183 533627.360000
   1943   1945     1   0.12183 533627.360000
   1946   1948     1   0.14619 275056.160000
   1948   1950     1   0.15375 251793.120000
   1950   1954     1   0.14647 272713.120000
   1954   1955     1   0.14647 272713.120000
   1954   1956     1   0.14647 272713.120000
   1955   1967     1   0.15375 251793.120000
   1956   1958     1   0.15375 251793.120000
   1958   1962     1   0.15241 261918.400000
   1962   1963     1   0.12183 533627.360000
   1962   1964     1   0.12183 533627.360000
   1967   1970     1   0.15241 261918.400000
   1970   1971     1   0.12183 533627.360000
   1970   1972     1   0.12183 533627.360000
   1973   1975     1   0.14619 275056.160000
   1975   1977     1   0.15375 251793.120000
   1977   1981     1   0.14647 272713.120000
   1981   1982     1   0.14647 272713.120000
   1981   1983     1   0.14647 272713.120000
   1982   1994     1   0.15375 251793.120000
   1983   1985     1   0.15375 251793.120000
   1985   1989     1   0.15241 261918.400000
   1989   1990     1   0.12183 533627.360000
   1989   1991     1   0.12183 533627.360000
   1994   1997     1   0.15241 261918.400000
   1997   1998     1   0.12183 533627.360000
   1997   1999     1   0.12183 533627.360000
   2000   2002     1   0.14619 275056.160000
   2002   2004     1   0.15375 251793.120000
   2004   2008     1   0.14647 272713.120000
   2008   2009     1   0.14647 272713.120000
   2008   2010     1   0.14647 272713.120000
   2009   2021     1   0.15375 251793.120000
   2010   2012     1   0.15375 251793.120000
   2012   2016     1   0.15241 261918.400000
   2016   2017     1   0.12183 533627.360000
   2016   2018     1   0.12183 533627.360000
   2021   2024     1   0.15241 261918.400000
   2024   2025     1   0.12183 533627.360000
   2024   2026     1   0.12183 533627.360000
   2027   2029     1   0.14619 275056.160000
   2029   2031     1   0.15375 251793.120000
   2031   2035     1   0.14647 272713.120000
   2035   2036     1   0.14647 272713.120000
   2035   2037     1   0.14647 272713.120000
   2036   2048     1   0.15375 251793.120000
   2037   2039     1   0.15375 251793.120000
   2039   2043     1   0.15241 261918.400000
   2043   2044     1   0.12183 533627.360000
   2043   2045     1   0.12183 533627.360000
   2048   2051     1   0.15241 261918.400000
   2051   2052     1   0.12183 533627.360000
   2051   2053     1   0.12183 533627.360000
   2054   2056     1   0.14619 275056.160000
   2056   2058     1   0.15375 251793.120000
   2058   2062     1   0.14647 272713.120000
   2062   2063     1   0.14647 272713.120000
   2062   2064     1   0.14647 272713.120000
   2063   2075     1   0.15375 251793.120000
   2064   2066     1   0.15375 251793.120000
   2066   2070     1   0.15241 261918.400000
   2070   2071     1   0.12183 533627.360000
   2070   2072     1   0.12183 533627.360000
   2075   2078     1   0.15241 261918.400000
   2078   2079     1   0.12183 533627.360000
   2078   2080     1   0.12183 533627.360000
   2081   2083     1   0.14619 275056.160000
   2083   2085     1   0.15375 251793.120000
   2085   2089     1   0.14647 272713.120000
   2089   2090     1   0.14647 272713.120000
   2089   2091     1   0.14647 272713.120000
   2090   2102     1   0.15375 251793.120000
   2091   2093     1   0.15375 251793.120000
   2093   2097     1   0.15241 261918.400000
   2097   2098     1   0.12183 533627.360000
   2097   2099     1   0.12183 533627.360000
   2102   2105     1   0.15241 261918.400000
   2105   2106     1   0.12183 533627.360000
   2105   2107     1   0.12183 533627.360000
   2108   2110     1   0.14619 275056.160000
   2110   2112     1   0.15375 251793.120000
   2112   2116     1   0.14647 272713.120000
   2116   2117     1   0.14647 272713.120000
   2116   2118     1   0.14647 272713.120000
   2117   2129     1   0.15375 251793.120000
   2118   2120     1   0.15375 251793.120000
   2120   2124     1   0.15241 261918.400000
   2124   2125     1   0.12183 533627.360000
   2124   2126     1   0.12183 533627.360000
   2129   2132     1   0.15241 261918.400000
   2132   2133     1   0.12183 533627.360000
   2132   2134     1   0.12183 533627.360000
   2135   2137     1   0.14619 275056.160000
   2137   2139     1   0.15375 251793.120000
   2139   2143     1   0.14647 272713.120000
   2143   2144     1   0.14647 272713.120000
   2143   2145     1   0.14647 272713.120000
   2144   2156     1   0.15375 251793.120000
   2145   2147     1   0.15375 251793.120000
   2147   2151     1   0.15241 261918.400000
   2151   2152     1   0.12183 533627.360000
   2151   2153     1   0.12183 533627.360000
   2156   2159     1   0.15241 261918.400000
   2159   2160     1   0.12183 533627.360000
   2159   2161     1   0.12183 533627.360000
   2162   2164     1   0.14619 275056.160000
   2164   2166     1   0.15375 251793.120000
   2166   2170     1   0.14647 272713.120000
   2170   2171     1   0.14647 272713.120000
   2170   2172     1   0.14647 272713.120000
   2171   2183     1   0.15375 251793.120000
   2172   2174     1   0.15375 251793.120000
   2174   2178     1   0.15241 261918.400000
   2178   2179     1   0.12183 533627.360000
   2178   2180     1   0.12183 533627.360000
   2183   2186     1   0.15241 261918.400000
   2186   2187     1   0.12183 533627.360000
   2186   2188     1   0.12183 533627.360000
   2189   2191     1   0.14619 275056.160000
   2191   2193     1   0.15375 251793.120000
   2193   2197     1   0.14647 272713.120000
   2197   2198     1   0.14647 272713.120000
   2197   2199     1   0.14647 272713.120000
   2198   2210     1   0.15375 251793.120000
   2199   2201     1   0.15375 251793.120000
   2201   2205     1   0.15241 261918.400000
   2205   2206     1   0.12183 533627.360000
   2205   2207     1   0.12183 533627.360000
   2210   2213     1   0.15241 261918.400000
   2213   2214     1   0.12183 533627.360000
   2213   2215     1   0.12183 533627.360000
   2216   2218     1   0.14619 275056.160000
   2218   2220     1   0.15375 251793.120000
   2220   2224     1   0.14647 272713.120000
   2224   2225     1   0.14647 272713.120000
   2224   2226     1   0.14647 272713.120000
   2225   2237     1   0.15375 251793.120000
   2226   2228     1   0.15375 251793.120000
   2228   2232     1   0.15241 261918.400000
   2232   2233     1   0.12183 533627.360000
   2232   2234     1   0.12183 533627.360000
   2237   2240     1   0.15241 261918.400000
   2240   2241     1   0.12183 533627.360000
   2240   2242     1   0.12183 533627.360000
   2243   2245     1   0.14619 275056.160000
   2245   2247     1   0.15375 251793.120000
   2247   2251     1   0.14647 272713.120000
   2251   2252     1   0.14647 272713.120000
   2251   2253     1   0.14647 272713.120000
   2252   2264     1   0.15375 251793.120000
   2253   2255     1   0.15375 251793.120000
   2255   2259     1   0.15241 261918.400000
   2259   2260     1   0.12183 533627.360000
   2259   2261     1   0.12183 533627.360000
   2264   2267     1   0.15241 261918.400000
   2267   2268     1   0.12183 533627.360000
   2267   2269     1   0.12183 533627.360000
   2270   2272     1   0.14619 275056.160000
   2272   2274     1   0.15375 251793.120000
   2274   2278     1   0.14647 272713.120000
   2278   2279     1   0.14647 272713.120000
   2278   2280     1   0.14647 272713.120000
   2279   2291     1   0.15375 251793.120000
   2280   2282     1   0.15375 251793.120000
   2282   2286     1   0.15241 261918.400000
   2286   2287     1   0.12183 533627.360000
   2286   2288     1   0.12183 533627.360000
   2291   2294     1   0.15241 261918.400000
   2294   2295     1   0.12183 533627.360000
   2294   2296     1   0.12183 533627.360000
   2297   2299     1   0.14619 275056.160000
   2299   2301     1   0.15375 251793.120000
   2301   2305     1   0.14647 272713.120000
   2305   2306     1   0.14647 272713.120000
   2305   2307     1   0.14647 272713.120000
   2306   2318     1   0.15375 251793.120000
   2307   2309     1   0.15375 251793.120000
   2309   2313     1   0.15241 261918.400000
   2313   2314     1   0.12183 533627.360000
   2313   2315     1   0.12183 533627.360000
   2318   2321     1   0.15241 261918.400000
   2321   2322     1   0.12183 533627.360000
   2321   2323     1   0.12183 533627.360000
   2324   2326     1   0.14619 275056.160000
   2326   2328     1   0.15375 251793.120000
   2328   2332     1   0.14647 272713.120000
   2332   2333     1   0.14647 272713.120000
   2332   2334     1   0.14647 272713.120000
   2333   2345     1   0.15375 251793.120000
   2334   2336     1   0.15375 251793.120000
   2336   2340     1   0.15241 261918.400000
   2340   2341     1   0.12183 533627.360000
   2340   2342     1   0.12183 533627.360000
   2345   2348     1   0.15241 261918.400000
   2348   2349     1   0.12183 533627.360000
   2348   2350     1   0.12183 533627.360000
   2351   2353     1   0.14619 275056.160000
   2353   2355     1   0.15375 251793.120000
   2355   2359     1   0.14647 272713.120000
   2359   2360     1   0.14647 272713.120000
   2359   2361     1   0.14647 272713.120000
   2360   2372     1   0.15375 251793.120000
   2361   2363     1   0.15375 251793.120000
   2363   2367     1   0.15241 261918.400000
   2367   2368     1   0.12183 533627.360000
   2367   2369     1   0.12183 533627.360000
   2372   2375     1   0.15241 261918.400000
   2375   2376     1   0.12183 533627.360000
   2375   2377     1   0.12183 533627.360000
   2378   2380     1   0.14619 275056.160000
   2380   2382     1   0.15375 251793.120000
   2382   2386     1   0.14647 272713.120000
   2386   2387     1   0.14647 272713.120000
   2386   2388     1   0.14647 272713.120000
   2387   2399     1   0.15375 251793.120000
   2388   2390     1   0.15375 251793.120000
   2390   2394     1   0.15241 261918.400000
   2394   2395     1   0.12183 533627.360000
   2394   2396     1   0.12183 533627.360000
   2399   2402     1   0.15241 261918.400000
   2402   2403     1   0.12183 533627.360000
   2402   2404     1   0.12183 533627.360000
   2405   2407     1   0.14619 275056.160000
   2407   2409     1   0.15375 251793.120000
   2409   2413     1   0.14647 272713.120000
   2413   2414     1   0.14647 272713.120000
   2413   2415     1   0.14647 272713.120000
   2414   2426     1   0.15375 251793.120000
   2415   2417     1   0.15375 251793.120000
   2417   2421     1   0.15241 261918.400000
   2421   2422     1   0.12183 533627.360000
   2421   2423     1   0.12183 533627.360000
   2426   2429     1   0.15241 261918.400000
   2429   2430     1   0.12183 533627.360000
   2429   2431     1   0.12183 533627.360000
   2432   2434     1   0.14619 275056.160000
   2434   2436     1   0.15375 251793.120000
   2436   2440     1   0.14647 272713.120000
   2440   2441     1   0.14647 272713.120000
   2440   2442     1   0.14647 272713.120000
   2441   2453     1   0.15375 251793.120000
   2442   2444     1   0.15375 251793.120000
   2444   2448     1   0.15241 261918.400000
   2448   2449     1   0.12183 533627.360000
   2448   2450     1   0.12183 533627.360000
   2453   2456     1   0.15241 261918.400000
   2456   2457     1   0.12183 533627.360000
   2456   2458     1   0.12183 533627.360000
   2459   2461     1   0.14619 275056.160000
   2461   2463     1   0.15375 251793.120000
   2463   2467     1   0.14647 272713.120000
   2467   2468     1   0.14647 272713.120000
   2467   2469     1   0.14647 272713.120000
   2468   2480     1   0.15375 251793.120000
   2469   2471     1   0.15375 251793.120000
   2471   2475     1   0.15241 261918.400000
   2475   2476     1   0.12183 533627.360000
   2475   2477     1   0.12183 533627.360000
   2480   2483     1   0.15241 261918.400000
   2483   2484     1   0.12183 533627.360000
   2483   2485     1   0.12183 533627.360000
   2486   2488     1   0.14619 275056.160000
   2488   2490     1   0.15375 251793.120000
   2490   2494     1   0.14647 272713.120000
   2494   2495     1   0.14647 272713.120000
   2494   2496     1   0.14647 272713.120000
   2495   2507     1   0.15375 251793.120000
   2496   2498     1   0.15375 251793.120000
   2498   2502     1   0.15241 261918.400000
   2502   2503     1   0.12183 533627.360000
   2502   2504     1   0.12183 533627.360000
   2507   2510     1   0.15241 261918.400000
   2510   2511     1   0.12183 533627.360000
   2510   2512     1   0.12183 533627.360000
   2513   2515     1   0.14619 275056.160000
   2515   2517     1   0.15375 251793.120000
   2517   2521     1   0.14647 272713.120000
   2521   2522     1   0.14647 272713.120000
   2521   2523     1   0.14647 272713.120000
   2522   2534     1   0.15375 251793.120000
   2523   2525     1   0.15375 251793.120000
   2525   2529     1   0.15241 261918.400000
   2529   2530     1   0.12183 533627.360000
   2529   2531     1   0.12183 533627.360000
   2534   2537     1   0.15241 261918.400000
   2537   2538     1   0.12183 533627.360000
   2537   2539     1   0.12183 533627.360000
   2540   2542     1   0.14619 275056.160000
   2542   2544     1   0.15375 251793.120000
   2544   2548     1   0.14647 272713.120000
   2548   2549     1   0.14647 272713.120000
   2548   2550     1   0.14647 272713.120000
   2549   2561     1   0.15375 251793.120000
   2550   2552     1   0.15375 251793.120000
   2552   2556     1   0.15241 261918.400000
   2556   2557     1   0.12183 533627.360000
   2556   2558     1   0.12183 533627.360000
   2561   2564     1   0.15241 261918.400000
   2564   2565     1   0.12183 533627.360000
   2564   2566     1   0.12183 533627.360000
   2567   2569     1   0.14619 275056.160000
   2569   2571     1   0.15375 251793.120000
   2571   2575     1   0.14647 272713.120000
   2575   2576     1   0.14647 272713.120000
   2575   2577     1   0.14647 272713.120000
   2576   2588     1   0.15375 251793.120000
   2577   2579     1   0.15375 251793.120000
   2579   2583     1   0.15241 261918.400000
   2583   2584     1   0.12183 533627.360000
   2583   2585     1   0.12183 533627.360000
   2588   2591     1   0.15241 261918.400000
   2591   2592     1   0.12183 533627.360000
   2591   2593     1   0.12183 533627.360000
   2594   2596     1   0.14619 275056.160000
   2596   2598     1   0.15375 251793.120000
   2598   2602     1   0.14647 272713.120000
   2602   2603     1   0.14647 272713.120000
   2602   2604     1   0.14647 272713.120000
   2603   2615     1   0.15375 251793.120000
   2604   2606     1   0.15375 251793.120000
   2606   2610     1   0.15241 261918.400000
   2610   2611     1   0.12183 533627.360000
   2610   2612     1   0.12183 533627.360000
   2615   2618     1   0.15241 261918.400000
   2618   2619     1   0.12183 533627.360000
   2618   2620     1   0.12183 533627.360000
   2621   2623     1   0.14619 275056.160000
   2623   2625     1   0.15375 251793.120000
   2625   2629     1   0.14647 272713.120000
   2629   2630     1   0.14647 272713.120000
   2629   2631     1   0.14647 272713.120000
   2630   2642     1   0.15375 251793.120000
   2631   2633     1   0.15375 251793.120000
   2633   2637     1   0.15241 261918.400000
   2637   2638     1   0.12183 533627.360000
   2637   2639     1   0.12183 533627.360000
   2642   2645     1   0.15241 261918.400000
   2645   2646     1   0.12183 533627.360000
   2645   2647     1   0.12183 533627.360000
   2648   2650     1   0.14619 275056.160000
   2650   2652     1   0.15375 251793.120000
   2652   2656     1   0.14647 272713.120000
   2656   2657     1   0.14647 272713.120000
   2656   2658     1   0.14647 272713.120000
   2657   2669     1   0.15375 251793.120000
   2658   2660     1   0.15375 251793.120000
   2660   2664     1   0.15241 261918.400000
   2664   2665     1   0.12183 533627.360000
   2664   2666     1   0.12183 533627.360000
   2669   2672     1   0.15241 261918.400000
   2672   2673     1   0.12183 533627.360000
   2672   2674     1   0.12183 533627.360000
   2675   2677     1   0.14619 275056.160000
   2677   2679     1   0.15375 251793.120000
   2679   2683     1   0.14647 272713.120000
   2683   2684     1   0.14647 272713.120000
   2683   2685     1   0.14647 272713.120000
   2684   2696     1   0.15375 251793.120000
   2685   2687     1   0.15375 251793.120000
   2687   2691     1   0.15241 261918.400000
   2691   2692     1   0.12183 533627.360000
   2691   2693     1   0.12183 533627.360000
   2696   2699     1   0.15241 261918.400000
   2699   2700     1   0.12183 533627.360000
   2699   2701     1   0.12183 533627.360000
   2702   2704     1   0.14619 275056.160000
   2704   2706     1   0.15375 251793.120000
   2706   2710     1   0.14647 272713.120000
   2710   2711     1   0.14647 272713.120000
   2710   2712     1   0.14647 272713.120000
   2711   2723     1   0.15375 251793.120000
   2712   2714     1   0.15375 251793.120000
   2714   2718     1   0.15241 261918.400000
   2718   2719     1   0.12183 533627.360000
   2718   2720     1   0.12183 533627.360000
   2723   2726     1   0.15241 261918.400000
   2726   2727     1   0.12183 533627.360000
   2726   2728     1   0.12183 533627.360000
   2729   2731     1   0.14619 275056.160000
   2731   2733     1   0.15375 251793.120000
   2733   2737     1   0.14647 272713.120000
   2737   2738     1   0.14647 272713.120000
   2737   2739     1   0.14647 272713.120000
   2738   2750     1   0.15375 251793.120000
   2739   2741     1   0.15375 251793.120000
   2741   2745     1   0.15241 261918.400000
   2745   2746     1   0.12183 533627.360000
   2745   2747     1   0.12183 533627.360000
   2750   2753     1   0.15241 261918.400000
   2753   2754     1   0.12183 533627.360000
   2753   2755     1   0.12183 533627.360000
   2756   2758     1   0.14619 275056.160000
   2758   2760     1   0.15375 251793.120000
   2760   2764     1   0.14647 272713.120000
   2764   2765     1   0.14647 272713.120000
   2764   2766     1   0.14647 272713.120000
   2765   2777     1   0.15375 251793.120000
   2766   2768     1   0.15375 251793.120000
   2768   2772     1   0.15241 261918.400000
   2772   2773     1   0.12183 533627.360000
   2772   2774     1   0.12183 533627.360000
   2777   2780     1   0.15241 261918.400000
   2780   2781     1   0.12183 533627.360000
   2780   2782     1   0.12183 533627.360000
   2783   2785     1   0.14619 275056.160000
   2785   2787     1   0.15375 251793.120000
   2787   2791     1   0.14647 272713.120000
   2791   2792     1   0.14647 272713.120000
   2791   2793     1   0.14647 272713.120000
   2792   2804     1   0.15375 251793.120000
   2793   2795     1   0.15375 251793.120000
   2795   2799     1   0.15241 261918.400000
   2799   2800     1   0.12183 533627.360000
   2799   2801     1   0.12183 533627.360000
   2804   2807     1   0.15241 261918.400000
   2807   2808     1   0.12183 533627.360000
   2807   2809     1   0.12183 533627.360000
   2810   2812     1   0.14619 275056.160000
   2812   2814     1   0.15375 251793.120000
   2814   2818     1   0.14647 272713.120000
   2818   2819     1   0.14647 272713.120000
   2818   2820     1   0.14647 272713.120000
   2819   2831     1   0.15375 251793.120000
   2820   2822     1   0.15375 251793.120000
   2822   2826     1   0.15241 261918.400000
   2826   2827     1   0.12183 533627.360000
   2826   2828     1   0.12183 533627.360000
   2831   2834     1   0.15241 261918.400000
   2834   2835     1   0.12183 533627.360000
   2834   2836     1   0.12183 533627.360000
   2837   2839     1   0.14619 275056.160000
   2839   2841     1   0.15375 251793.120000
   2841   2845     1   0.14647 272713.120000
   2845   2846     1   0.14647 272713.120000
   2845   2847     1   0.14647 272713.120000
   2846   2858     1   0.15375 251793.120000
   2847   2849     1   0.15375 251793.120000
   2849   2853     1   0.15241 261918.400000
   2853   2854     1   0.12183 533627.360000
   2853   2855     1   0.12183 533627.360000
   2858   2861     1   0.15241 261918.400000
   2861   2862     1   0.12183 533627.360000
   2861   2863     1   0.12183 533627.360000
   2864   2866     1   0.14619 275056.160000
   2866   2868     1   0.15375 251793.120000
   2868   2872     1   0.14647 272713.120000
   2872   2873     1   0.14647 272713.120000
   2872   2874     1   0.14647 272713.120000
   2873   2885     1   0.15375 251793.120000
   2874   2876     1   0.15375 251793.120000
   2876   2880     1   0.15241 261918.400000
   2880   2881     1   0.12183 533627.360000
   2880   2882     1   0.12183 533627.360000
   2885   2888     1   0.15241 261918.400000
   2888   2889     1   0.12183 533627.360000
   2888   2890     1   0.12183 533627.360000
   2891   2893     1   0.14619 275056.160000
   2893   2895     1   0.15375 251793.120000
   2895   2899     1   0.14647 272713.120000
   2899   2900     1   0.14647 272713.120000
   2899   2901     1   0.14647 272713.120000
   2900   2912     1   0.15375 251793.120000
   2901   2903     1   0.15375 251793.120000
   2903   2907     1   0.15241 261918.400000
   2907   2908     1   0.12183 533627.360000
   2907   2909     1   0.12183 533627.360000
   2912   2915     1   0.15241 261918.400000
   2915   2916     1   0.12183 533627.360000
   2915   2917     1   0.12183 533627.360000
   2918   2920     1   0.14619 275056.160000
   2920   2922     1   0.15375 251793.120000
   2922   2926     1   0.14647 272713.120000
   2926   2927     1   0.14647 272713.120000
   2926   2928     1   0.14647 272713.120000
   2927   2939     1   0.15375 251793.120000
   2928   2930     1   0.15375 251793.120000
   2930   2934     1   0.15241 261918.400000
   2934   2935     1   0.12183 533627.360000
   2934   2936     1   0.12183 533627.360000
   2939   2942     1   0.15241 261918.400000
   2942   2943     1   0.12183 533627.360000
   2942   2944     1   0.12183 533627.360000
   2945   2947     1   0.14619 275056.160000
   2947   2949     1   0.15375 251793.120000
   2949   2953     1   0.14647 272713.120000
   2953   2954     1   0.14647 272713.120000
   2953   2955     1   0.14647 272713.120000
   2954   2966     1   0.15375 251793.120000
   2955   2957     1   0.15375 251793.120000
   2957   2961     1   0.15241 261918.400000
   2961   2962     1   0.12183 533627.360000
   2961   2963     1   0.12183 533627.360000
   2966   2969     1   0.15241 261918.400000
   2969   2970     1   0.12183 533627.360000
   2969   2971     1   0.12183 533627.360000
   2972   2974     1   0.14619 275056.160000
   2974   2976     1   0.15375 251793.120000
   2976   2980     1   0.14647 272713.120000
   2980   2981     1   0.14647 272713.120000
   2980   2982     1   0.14647 272713.120000
   2981   2993     1   0.15375 251793.120000
   2982   2984     1   0.15375 251793.120000
   2984   2988     1   0.15241 261918.400000
   2988   2989     1   0.12183 533627.360000
   2988   2990     1   0.12183 533627.360000
   2993   2996     1   0.15241 261918.400000
   2996   2997     1   0.12183 533627.360000
   2996   2998     1   0.12183 533627.360000
   2999   3001     1   0.14619 275056.160000
   3001   3003     1   0.15375 251793.120000
   3003   3007     1   0.14647 272713.120000
   3007   3008     1   0.14647 272713.120000
   3007   3009     1   0.14647 272713.120000
   3008   3020     1   0.15375 251793.120000
   3009   3011     1   0.15375 251793.120000
   3011   3015     1   0.15241 261918.400000
   3015   3016     1   0.12183 533627.360000
   3015   3017     1   0.12183 533627.360000
   3020   3023     1   0.15241 261918.400000
   3023   3024     1   0.12183 533627.360000
   3023   3025     1   0.12183 533627.360000
   3026   3028     1   0.14619 275056.160000
   3028   3030     1   0.15375 251793.120000
   3030   3034     1   0.14647 272713.120000
   3034   3035     1   0.14647 272713.120000
   3034   3036     1   0.14647 272713.120000
   3035   3047     1   0.15375 251793.120000
   3036   3038     1   0.15375 251793.120000
   3038   3042     1   0.15241 261918.400000
   3042   3043     1   0.12183 533627.360000
   3042   3044     1   0.12183 533627.360000
   3047   3050     1   0.15241 261918.400000
   3050   3051     1   0.12183 533627.360000
   3050   3052     1   0.12183 533627.360000
   3053   3055     1   0.14619 275056.160000
   3055   3057     1   0.15375 251793.120000
   3057   3061     1   0.14647 272713.120000
   3061   3062     1   0.14647 272713.120000
   3061   3063     1   0.14647 272713.120000
   3062   3074     1   0.15375 251793.120000
   3063   3065     1   0.15375 251793.120000
   3065   3069     1   0.15241 261918.400000
   3069   3070     1   0.12183 533627.360000
   3069   3071     1   0.12183 533627.360000
   3074   3077     1   0.15241 261918.400000
   3077   3078     1   0.12183 533627.360000
   3077   3079     1   0.12183 533627.360000
   3080   3082     1   0.14619 275056.160000
   3082   3084     1   0.15375 251793.120000
   3084   3088     1   0.14647 272713.120000
   3088   3089     1   0.14647 272713.120000
   3088   3090     1   0.14647 272713.120000
   3089   3101     1   0.15375 251793.120000
   3090   3092     1   0.15375 251793.120000
   3092   3096     1   0.15241 261918.400000
   3096   3097     1   0.12183 533627.360000
   3096   3098     1   0.12183 533627.360000
   3101   3104     1   0.15241 261918.400000
   3104   3105     1   0.12183 533627.360000
   3104   3106     1   0.12183 533627.360000
   3107   3109     1   0.14619 275056.160000
   3109   3111     1   0.15375 251793.120000
   3111   3115     1   0.14647 272713.120000
   3115   3116     1   0.14647 272713.120000
   3115   3117     1   0.14647 272713.120000
   3116   3128     1   0.15375 251793.120000
   3117   3119     1   0.15375 251793.120000
   3119   3123     1   0.15241 261918.400000
   3123   3124     1   0.12183 533627.360000
   3123   3125     1   0.12183 533627.360000
   3128   3131     1   0.15241 261918.400000
   3131   3132     1   0.12183 533627.360000
   3131   3133     1   0.12183 533627.360000
   3134   3136     1   0.14619 275056.160000
   3136   3138     1   0.15375 251793.120000
   3138   3142     1   0.14647 272713.120000
   3142   3143     1   0.14647 272713.120000
   3142   3144     1   0.14647 272713.120000
   3143   3155     1   0.15375 251793.120000
   3144   3146     1   0.15375 251793.120000
   3146   3150     1   0.15241 261918.400000
   3150   3151     1   0.12183 533627.360000
   3150   3152     1   0.12183 533627.360000
   3155   3158     1   0.15241 261918.400000
   3158   3159     1   0.12183 533627.360000
   3158   3160     1   0.12183 533627.360000
   3161   3163     1   0.14619 275056.160000
   3163   3165     1   0.15375 251793.120000
   3165   3169     1   0.14647 272713.120000
   3169   3170     1   0.14647 272713.120000
   3169   3171     1   0.14647 272713.120000
   3170   3182     1   0.15375 251793.120000
   3171   3173     1   0.15375 251793.120000
   3173   3177     1   0.15241 261918.400000
   3177   3178     1   0.12183 533627.360000
   3177   3179     1   0.12183 533627.360000
   3182   3185     1   0.15241 261918.400000
   3185   3186     1   0.12183 533627.360000
   3185   3187     1   0.12183 533627.360000
   3188   3190     1   0.14619 275056.160000
   3190   3192     1   0.15375 251793.120000
   3192   3196     1   0.14647 272713.120000
   3196   3197     1   0.14647 272713.120000
   3196   3198     1   0.14647 272713.120000
   3197   3209     1   0.15375 251793.120000
   3198   3200     1   0.15375 251793.120000
   3200   3204     1   0.15241 261918.400000
   3204   3205     1   0.12183 533627.360000
   3204   3206     1   0.12183 533627.360000
   3209   3212     1   0.15241 261918.400000
   3212   3213     1   0.12183 533627.360000
   3212   3214     1   0.12183 533627.360000
   3215   3217     1   0.14619 275056.160000
   3217   3219     1   0.15375 251793.120000
   3219   3223     1   0.14647 272713.120000
   3223   3224     1   0.14647 272713.120000
   3223   3225     1   0.14647 272713.120000
   3224   3236     1   0.15375 251793.120000
   3225   3227     1   0.15375 251793.120000
   3227   3231     1   0.15241 261918.400000
   3231   3232     1   0.12183 533627.360000
   3231   3233     1   0.12183 533627.360000
   3236   3239     1   0.15241 261918.400000
   3239   3240     1   0.12183 533627.360000
   3239   3241     1   0.12183 533627.360000
   3242   3244     1   0.14619 275056.160000
   3244   3246     1   0.15375 251793.120000
   3246   3250     1   0.14647 272713.120000
   3250   3251     1   0.14647 272713.120000
   3250   3252     1   0.14647 272713.120000
   3251   3263     1   0.15375 251793.120000
   3252   3254     1   0.15375 251793.120000
   3254   3258     1   0.15241 261918.400000
   3258   3259     1   0.12183 533627.360000
   3258   3260     1   0.12183 533627.360000
   3263   3266     1   0.15241 261918.400000
   3266   3267     1   0.12183 533627.360000
   3266   3268     1   0.12183 533627.360000
      1      2     1   0.10969 276646.080000
      1      3     1   0.10969 276646.080000
      4      5     1   0.10969 276646.080000
      4      6     1   0.10969 276646.080000
      9     10     1   0.10969 276646.080000
      9     11     1   0.10969 276646.080000
     12     13     1   0.10969 276646.080000
     12     14     1   0.10969 276646.080000
     15     16     1   0.10969 276646.080000
     15     17     1   0.10969 276646.080000
     18     19     1   0.10969 276646.080000
     18     20     1   0.10969 276646.080000
     21     22     1   0.10969 276646.080000
     21     23     1   0.10969 276646.080000
     24     25     1   0.10969 276646.080000
     24     26     1   0.10969 276646.080000
     27     28     1   0.10969 276646.080000
     27     29     1   0.10969 276646.080000
     30     31     1   0.10969 276646.080000
     30     32     1   0.10969 276646.080000
     41     42     1   0.10969 276646.080000
     41     43     1   0.10969 276646.080000
     44     45     1   0.10969 276646.080000
     44     46     1   0.10969 276646.080000
     48     49     1   0.10969 276646.080000
     48     50     1   0.10969 276646.080000
     51     52     1   0.10969 276646.080000
     51     53     1   0.10969 276646.080000
     54     55     1   0.10969 276646.080000
     54     56     1   0.10969 276646.080000
     57     58     1   0.10969 276646.080000
     57     59     1   0.10969 276646.080000
     64     65     1   0.10129 337397.760000
     66     67     1   0.10969 276646.080000
     66     68     1   0.10969 276646.080000
     69     70     1   0.10969 276646.080000
     69     71     1   0.10969 276646.080000
     73     74     1   0.10969 276646.080000
     73     75     1   0.10969 276646.080000
     76     77     1   0.10969 276646.080000
     76     78     1   0.10969 276646.080000
     79     80     1   0.10969 276646.080000
     79     81     1   0.10969 276646.080000
     82     83     1   0.10969 276646.080000
     82     84     1   0.10969 276646.080000
     89     90     1   0.10129 337397.760000
     91     92     1   0.10969 276646.080000
     91     93     1   0.10969 276646.080000
     94     95     1   0.10969 276646.080000
     94     96     1   0.10969 276646.080000
     98     99     1   0.10969 276646.080000
     98    100     1   0.10969 276646.080000
    101    102     1   0.10969 276646.080000
    101    103     1   0.10969 276646.080000
    104    105     1   0.10969 276646.080000
    104    106     1   0.10969 276646.080000
    107    108     1   0.10969 276646.080000
    107    109     1   0.10969 276646.080000
    114    115     1   0.10129 337397.760000
    116    117     1   0.10969 276646.080000
    116    118     1   0.10969 276646.080000
    119    120     1   0.10969 276646.080000
    119    121     1   0.10969 276646.080000
    123    124     1   0.10969 276646.080000
    123    125     1   0.10969 276646.080000
    126    127     1   0.10969 276646.080000
    126    128     1   0.10969 276646.080000
    129    130     1   0.10969 276646.080000
    129    131     1   0.10969 276646.080000
    132    133     1   0.10969 276646.080000
    132    134     1   0.10969 276646.080000
    139    140     1   0.10129 337397.760000
    141    142     1   0.10969 276646.080000
    141    143     1   0.10969 276646.080000
    144    145     1   0.10969 276646.080000
    144    146     1   0.10969 276646.080000
    148    149     1   0.10969 276646.080000
    148    150     1   0.10969 276646.080000
    151    152     1   0.10969 276646.080000
    151    153     1   0.10969 276646.080000
    154    155     1   0.10969 276646.080000
    154    156     1   0.10969 276646.080000
    157    158     1   0.10969 276646.080000
    157    159     1   0.10969 276646.080000
    164    165     1   0.10129 337397.760000
    166    167     1   0.10969 276646.080000
    166    168     1   0.10969 276646.080000
    169    170     1   0.10969 276646.080000
    169    171     1   0.10969 276646.080000
    173    174     1   0.10969 276646.080000
    173    175     1   0.10969 276646.080000
    176    177     1   0.10969 276646.080000
    176    178     1   0.10969 276646.080000
    179    180     1   0.10969 276646.080000
    179    181     1   0.10969 276646.080000
    182    183     1   0.10969 276646.080000
    182    184     1   0.10969 276646.080000
    189    190     1   0.10129 337397.760000
    191    192     1   0.10969 276646.080000
    191    193     1   0.10969 276646.080000
    194    195     1   0.10969 276646.080000
    194    196     1   0.10969 276646.080000
    198    199     1   0.10969 276646.080000
    198    200     1   0.10969 276646.080000
    201    202     1   0.10969 276646.080000
    201    203     1   0.10969 276646.080000
    204    205     1   0.10969 276646.080000
    204    206     1   0.10969 276646.080000
    207    208     1   0.10969 276646.080000
    207    209     1   0.10969 276646.080000
    214    215     1   0.10129 337397.760000
    216    217     1   0.10969 276646.080000
    216    218     1   0.10969 276646.080000
    219    220     1   0.10969 276646.080000
    219    221     1   0.10969 276646.080000
    223    224     1   0.10969 276646.080000
    223    225     1   0.10969 276646.080000
    226    227     1   0.10969 276646.080000
    226    228     1   0.10969 276646.080000
    229    230     1   0.10969 276646.080000
    229    231     1   0.10969 276646.080000
    232    233     1   0.10969 276646.080000
    232    234     1   0.10969 276646.080000
    239    240     1   0.10129 337397.760000
    241    242     1   0.10969 276646.080000
    241    243     1   0.10969 276646.080000
    244    245     1   0.10969 276646.080000
    244    246     1   0.10969 276646.080000
    248    249     1   0.10969 276646.080000
    248    250     1   0.10969 276646.080000
    251    252     1   0.10969 276646.080000
    251    253     1   0.10969 276646.080000
    254    255     1   0.10969 276646.080000
    254    256     1   0.10969 276646.080000
    257    258     1   0.10969 276646.080000
    257    259     1   0.10969 276646.080000
    264    265     1   0.10129 337397.760000
    266    267     1   0.10969 276646.080000
    266    268     1   0.10969 276646.080000
    269    270     1   0.10969 276646.080000
    269    271     1   0.10969 276646.080000
    273    274     1   0.10969 276646.080000
    273    275     1   0.10969 276646.080000
    276    277     1   0.10969 276646.080000
    276    278     1   0.10969 276646.080000
    279    280     1   0.10969 276646.080000
    279    281     1   0.10969 276646.080000
    282    283     1   0.10969 276646.080000
    282    284     1   0.10969 276646.080000
    289    290     1   0.10129 337397.760000
    291    292     1   0.10969 276646.080000
    291    293     1   0.10969 276646.080000
    294    295     1   0.10969 276646.080000
    294    296     1   0.10969 276646.080000
    298    299     1   0.10969 276646.080000
    298    300     1   0.10969 276646.080000
    301    302     1   0.10969 276646.080000
    301    303     1   0.10969 276646.080000
    304    305     1   0.10969 276646.080000
    304    306     1   0.10969 276646.080000
    307    308     1   0.10969 276646.080000
    307    309     1   0.10969 276646.080000
    314    315     1   0.10129 337397.760000
    316    317     1   0.10969 276646.080000
    316    318     1   0.10969 276646.080000
    319    320     1   0.10969 276646.080000
    319    321     1   0.10969 276646.080000
    323    324     1   0.10969 276646.080000
    323    325     1   0.10969 276646.080000
    326    327     1   0.10969 276646.080000
    326    328     1   0.10969 276646.080000
    329    330     1   0.10969 276646.080000
    329    331     1   0.10969 276646.080000
    332    333     1   0.10969 276646.080000
    332    334     1   0.10969 276646.080000
    339    340     1   0.10129 337397.760000
    341    342     1   0.10969 276646.080000
    341    343     1   0.10969 276646.080000
    344    345     1   0.10969 276646.080000
    344    346     1   0.10969 276646.080000
    348    349     1   0.10969 276646.080000
    348    350     1   0.10969 276646.080000
    351    352     1   0.10969 276646.080000
    351    353     1   0.10969 276646.080000
    354    355     1   0.10969 276646.080000
    354    356     1   0.10969 276646.080000
    357    358     1   0.10969 276646.080000
    357    359     1   0.10969 276646.080000
    364    365     1   0.10129 337397.760000
    366    367     1   0.10969 276646.080000
    366    368     1   0.10969 276646.080000
    369    370     1   0.10969 276646.080000
    369    371     1   0.10969 276646.080000
    373    374     1   0.10969 276646.080000
    373    375     1   0.10969 276646.080000
    376    377     1   0.10969 276646.080000
    376    378     1   0.10969 276646.080000
    379    380     1   0.10969 276646.080000
    379    381     1   0.10969 276646.080000
    382    383     1   0.10969 276646.080000
    382    384     1   0.10969 276646.080000
    389    390     1   0.10129 337397.760000
    391    392     1   0.10969 276646.080000
    391    393     1   0.10969 276646.080000
    394    395     1   0.10969 276646.080000
    394    396     1   0.10969 276646.080000
    398    399     1   0.10969 276646.080000
    398    400     1   0.10969 276646.080000
    401    402     1   0.10969 276646.080000
    401    403     1   0.10969 276646.080000
    404    405     1   0.10969 276646.080000
    404    406     1   0.10969 276646.080000
    407    408     1   0.10969 276646.080000
    407    409     1   0.10969 276646.080000
    414    415     1   0.10129 337397.760000
    416    417     1   0.10969 276646.080000
    416    418     1   0.10969 276646.080000
    419    420     1   0.10969 276646.080000
    419    421     1   0.10969 276646.080000
    423    424     1   0.10969 276646.080000
    423    425     1   0.10969 276646.080000
    426    427     1   0.10969 276646.080000
    426    428     1   0.10969 276646.080000
    429    430     1   0.10969 276646.080000
    429    431     1   0.10969 276646.080000
    432    433     1   0.10969 276646.080000
    432    434     1   0.10969 276646.080000
    439    440     1   0.10129 337397.760000
    441    442     1   0.10969 276646.080000
    441    443     1   0.10969 276646.080000
    444    445     1   0.10969 276646.080000
    444    446     1   0.10969 276646.080000
    448    449     1   0.10969 276646.080000
    448    450     1   0.10969 276646.080000
    451    452     1   0.10969 276646.080000
    451    453     1   0.10969 276646.080000
    454    455     1   0.10969 276646.080000
    454    456     1   0.10969 276646.080000
    457    458     1   0.10969 276646.080000
    457    459     1   0.10969 276646.080000
    464    465     1   0.10129 337397.760000
    466    467     1   0.10969 276646.080000
    466    468     1   0.10969 276646.080000
    469    470     1   0.10969 276646.080000
    469    471     1   0.10969 276646.080000
    473    474     1   0.10969 276646.080000
    473    475     1   0.10969 276646.080000
    476    477     1   0.10969 276646.080000
    476    478     1   0.10969 276646.080000
    479    480     1   0.10969 276646.080000
    479    481     1   0.10969 276646.080000
    482    483     1   0.10969 276646.080000
    482    484     1   0.10969 276646.080000
    489    490     1   0.10129 337397.760000
    491    492     1   0.10969 276646.080000
    491    493     1   0.10969 276646.080000
    494    495     1   0.10969 276646.080000
    494    496     1   0.10969 276646.080000
    498    499     1   0.10969 276646.080000
    498    500     1   0.10969 276646.080000
    501    502     1   0.10969 276646.080000
    501    503     1   0.10969 276646.080000
    504    505     1   0.10969 276646.080000
    504    506     1   0.10969 276646.080000
    507    508     1   0.10969 276646.080000
    507    509     1   0.10969 276646.080000
    514    515     1   0.10129 337397.760000
    516    517     1   0.10969 276646.080000
    516    518     1   0.10969 276646.080000
    519    520     1   0.10969 276646.080000
    519    521     1   0.10969 276646.080000
    523    524     1   0.10969 276646.080000
    523    525     1   0.10969 276646.080000
    526    527     1   0.10969 276646.080000
    526    528     1   0.10969 276646.080000
    529    530     1   0.10969 276646.080000
    529    531     1   0.10969 276646.080000
    532    533     1   0.10969 276646.080000
    532    534     1   0.10969 276646.080000
    539    540     1   0.10129 337397.760000
    541    542     1   0.10969 276646.080000
    541    543     1   0.10969 276646.080000
    544    545     1   0.10969 276646.080000
    544    546     1   0.10969 276646.080000
    548    549     1   0.10969 276646.080000
    548    550     1   0.10969 276646.080000
    551    552     1   0.10969 276646.080000
    551    553     1   0.10969 276646.080000
    554    555     1   0.10969 276646.080000
    554    556     1   0.10969 276646.080000
    557    558     1   0.10969 276646.080000
    557    559     1   0.10969 276646.080000
    564    565     1   0.10129 337397.760000
    566    567     1   0.10969 276646.080000
    566    568     1   0.10969 276646.080000
    569    570     1   0.10969 276646.080000
    569    571     1   0.10969 276646.080000
    573    574     1   0.10969 276646.080000
    573    575     1   0.10969 276646.080000
    576    577     1   0.10969 276646.080000
    576    578     1   0.10969 276646.080000
    579    580     1   0.10969 276646.080000
    579    581     1   0.10969 276646.080000
    582    583     1   0.10969 276646.080000
    582    584     1   0.10969 276646.080000
    589    590     1   0.10129 337397.760000
    591    592     1   0.10969 276646.080000
    591    593     1   0.10969 276646.080000
    594    595     1   0.10969 276646.080000
    594    596     1   0.10969 276646.080000
    598    599     1   0.10969 276646.080000
    598    600     1   0.10969 276646.080000
    601    602     1   0.10969 276646.080000
    601    603     1   0.10969 276646.080000
    604    605     1   0.10969 276646.080000
    604    606     1   0.10969 276646.080000
    607    608     1   0.10969 276646.080000
    607    609     1   0.10969 276646.080000
    614    615     1   0.10129 337397.760000
    616    617     1   0.10969 276646.080000
    616    618     1   0.10969 276646.080000
    619    620     1   0.10969 276646.080000
    619    621     1   0.10969 276646.080000
    623    624     1   0.10969 276646.080000
    623    625     1   0.10969 276646.080000
    626    627     1   0.10969 276646.080000
    626    628     1   0.10969 276646.080000
    629    630     1   0.10969 276646.080000
    629    631     1   0.10969 276646.080000
    632    633     1   0.10969 276646.080000
    632    634     1   0.10969 276646.080000
    639    640     1   0.10129 337397.760000
    641    642     1   0.10969 276646.080000
    641    643     1   0.10969 276646.080000
    644    645     1   0.10969 276646.080000
    644    646     1   0.10969 276646.080000
    648    649     1   0.10969 276646.080000
    648    650     1   0.10969 276646.080000
    651    652     1   0.10969 276646.080000
    651    653     1   0.10969 276646.080000
    654    655     1   0.10969 276646.080000
    654    656     1   0.10969 276646.080000
    657    658     1   0.10969 276646.080000
    657    659     1   0.10969 276646.080000
    664    665     1   0.10129 337397.760000
    666    667     1   0.10969 276646.080000
    666    668     1   0.10969 276646.080000
    669    670     1   0.10969 276646.080000
    669    671     1   0.10969 276646.080000
    673    674     1   0.10969 276646.080000
    673    675     1   0.10969 276646.080000
    676    677     1   0.10969 276646.080000
    676    678     1   0.10969 276646.080000
    679    680     1   0.10969 276646.080000
    679    681     1   0.10969 276646.080000
    682    683     1   0.10969 276646.080000
    682    684     1   0.10969 276646.080000
    689    690     1   0.10129 337397.760000
    691    692     1   0.10969 276646.080000
    691    693     1   0.10969 276646.080000
    694    695     1   0.10969 276646.080000
    694    696     1   0.10969 276646.080000
    698    699     1   0.10969 276646.080000
    698    700     1   0.10969 276646.080000
    701    702     1   0.10969 276646.080000
    701    703     1   0.10969 276646.080000
    704    705     1   0.10969 276646.080000
    704    706     1   0.10969 276646.080000
    707    708     1   0.10969 276646.080000
    707    709     1   0.10969 276646.080000
    714    715     1   0.10129 337397.760000
    716    717     1   0.10969 276646.080000
    716    718     1   0.10969 276646.080000
    719    720     1   0.10969 276646.080000
    719    721     1   0.10969 276646.080000
    723    724     1   0.10969 276646.080000
    723    725     1   0.10969 276646.080000
    726    727     1   0.10969 276646.080000
    726    728     1   0.10969 276646.080000
    729    730     1   0.10969 276646.080000
    729    731     1   0.10969 276646.080000
    732    733     1   0.10969 276646.080000
    732    734     1   0.10969 276646.080000
    739    740     1   0.10129 337397.760000
    741    742     1   0.10969 276646.080000
    741    743     1   0.10969 276646.080000
    744    745     1   0.10969 276646.080000
    744    746     1   0.10969 276646.080000
    748    749     1   0.10969 276646.080000
    748    750     1   0.10969 276646.080000
    751    752     1   0.10969 276646.080000
    751    753     1   0.10969 276646.080000
    754    755     1   0.10969 276646.080000
    754    756     1   0.10969 276646.080000
    757    758     1   0.10969 276646.080000
    757    759     1   0.10969 276646.080000
    764    765     1   0.10129 337397.760000
    766    767     1   0.10969 276646.080000
    766    768     1   0.10969 276646.080000
    769    770     1   0.10969 276646.080000
    769    771     1   0.10969 276646.080000
    773    774     1   0.10969 276646.080000
    773    775     1   0.10969 276646.080000
    776    777     1   0.10969 276646.080000
    776    778     1   0.10969 276646.080000
    779    780     1   0.10969 276646.080000
    779    781     1   0.10969 276646.080000
    782    783     1   0.10969 276646.080000
    782    784     1   0.10969 276646.080000
    789    790     1   0.10129 337397.760000
    791    792     1   0.10969 276646.080000
    791    793     1   0.10969 276646.080000
    794    795     1   0.10969 276646.080000
    794    796     1   0.10969 276646.080000
    798    799     1   0.10969 276646.080000
    798    800     1   0.10969 276646.080000
    801    802     1   0.10969 276646.080000
    801    803     1   0.10969 276646.080000
    804    805     1   0.10969 276646.080000
    804    806     1   0.10969 276646.080000
    807    808     1   0.10969 276646.080000
    807    809     1   0.10969 276646.080000
    814    815     1   0.10129 337397.760000
    816    817     1   0.10969 276646.080000
    816    818     1   0.10969 276646.080000
    819    820     1   0.10969 276646.080000
    819    821     1   0.10969 276646.080000
    823    824     1   0.10969 276646.080000
    823    825     1   0.10969 276646.080000
    826    827     1   0.10969 276646.080000
    826    828     1   0.10969 276646.080000
    829    830     1   0.10969 276646.080000
    829    831     1   0.10969 276646.080000
    832    833     1   0.10969 276646.080000
    832    834     1   0.10969 276646.080000
    839    840     1   0.10129 337397.760000
    841    842     1   0.10969 276646.080000
    841    843     1   0.10969 276646.080000
    844    845     1   0.10969 276646.080000
    844    846     1   0.10969 276646.080000
    848    849     1   0.10969 276646.080000
    848    850     1   0.10969 276646.080000
    851    852     1   0.10969 276646.080000
    851    853     1   0.10969 276646.080000
    854    855     1   0.10969 276646.080000
    854    856     1   0.10969 276646.080000
    857    858     1   0.10969 276646.080000
    857    859     1   0.10969 276646.080000
    864    865     1   0.10129 337397.760000
    866    867     1   0.10969 276646.080000
    866    868     1   0.10969 276646.080000
    869    870     1   0.10969 276646.080000
    869    871     1   0.10969 276646.080000
    873    874     1   0.10969 276646.080000
    873    875     1   0.10969 276646.080000
    876    877     1   0.10969 276646.080000
    876    878     1   0.10969 276646.080000
    879    880     1   0.10969 276646.080000
    879    881     1   0.10969 276646.080000
    882    883     1   0.10969 276646.080000
    882    884     1   0.10969 276646.080000
    889    890     1   0.10129 337397.760000
    891    892     1   0.10969 276646.080000
    891    893     1   0.10969 276646.080000
    894    895     1   0.10969 276646.080000
    894    896     1   0.10969 276646.080000
    898    899     1   0.10969 276646.080000
    898    900     1   0.10969 276646.080000
    901    902     1   0.10969 276646.080000
    901    903     1   0.10969 276646.080000
    904    905     1   0.10969 276646.080000
    904    906     1   0.10969 276646.080000
    907    908     1   0.10969 276646.080000
    907    909     1   0.10969 276646.080000
    914    915     1   0.10129 337397.760000
    916    917     1   0.10969 276646.080000
    916    918     1   0.10969 276646.080000
    919    920     1   0.10969 276646.080000
    919    921     1   0.10969 276646.080000
    923    924     1   0.10969 276646.080000
    923    925     1   0.10969 276646.080000
    926    927     1   0.10969 276646.080000
    926    928     1   0.10969 276646.080000
    929    930     1   0.10969 276646.080000
    929    931     1   0.10969 276646.080000
    932    933     1   0.10969 276646.080000
    932    934     1   0.10969 276646.080000
    939    940     1   0.10129 337397.760000
    941    942     1   0.10969 276646.080000
    941    943     1   0.10969 276646.080000
    944    945     1   0.10969 276646.080000
    944    946     1   0.10969 276646.080000
    948    949     1   0.10969 276646.080000
    948    950     1   0.10969 276646.080000
    951    952     1   0.10969 276646.080000
    951    953     1   0.10969 276646.080000
    954    955     1   0.10969 276646.080000
    954    956     1   0.10969 276646.080000
    957    958     1   0.10969 276646.080000
    957    959     1   0.10969 276646.080000
    964    965     1   0.10129 337397.760000
    966    967     1   0.10969 276646.080000
    966    968     1   0.10969 276646.080000
    969    970     1   0.10969 276646.080000
    969    971     1   0.10969 276646.080000
    973    974     1   0.10969 276646.080000
    973    975     1   0.10969 276646.080000
    976    977     1   0.10969 276646.080000
    976    978     1   0.10969 276646.080000
    979    980     1   0.10969 276646.080000
    979    981     1   0.10969 276646.080000
    982    983     1   0.10969 276646.080000
    982    984     1   0.10969 276646.080000
    989    990     1   0.10129 337397.760000
    991    992     1   0.10969 276646.080000
    991    993     1   0.10969 276646.080000
    994    995     1   0.10969 276646.080000
    994    996     1   0.10969 276646.080000
    998    999     1   0.10969 276646.080000
    998   1000     1   0.10969 276646.080000
   1001   1002     1   0.10969 276646.080000
   1001   1003     1   0.10969 276646.080000
   1004   1005     1   0.10969 276646.080000
   1004   1006     1   0.10969 276646.080000
   1007   1008     1   0.10969 276646.080000
   1007   1009     1   0.10969 276646.080000
   1014   1015     1   0.10129 337397.760000
   1016   1017     1   0.10969 276646.080000
   1016   1018     1   0.10969 276646.080000
   1019   1020     1   0.10969 276646.080000
   1019   1021     1   0.10969 276646.080000
   1023   1024     1   0.10969 276646.080000
   1023   1025     1   0.10969 276646.080000
   1026   1027     1   0.10969 276646.080000
   1026   1028     1   0.10969 276646.080000
   1029   1030     1   0.10969 276646.080000
   1029   1031     1   0.10969 276646.080000
   1032   1033     1   0.10969 276646.080000
   1032   1034     1   0.10969 276646.080000
   1039   1040     1   0.10129 337397.760000
   1041   1042     1   0.10969 276646.080000
   1041   1043     1   0.10969 276646.080000
   1044   1045     1   0.10969 276646.080000
   1044   1046     1   0.10969 276646.080000
   1048   1049     1   0.10969 276646.080000
   1048   1050     1   0.10969 276646.080000
   1051   1052     1   0.10969 276646.080000
   1051   1053     1   0.10969 276646.080000
   1054   1055     1   0.10969 276646.080000
   1054   1056     1   0.10969 276646.080000
   1057   1058     1   0.10969 276646.080000
   1057   1059     1   0.10969 276646.080000
   1064   1065     1   0.10129 337397.760000
   1066   1067     1   0.10969 276646.080000
   1066   1068     1   0.10969 276646.080000
   1069   1070     1   0.10969 276646.080000
   1069   1071     1   0.10969 276646.080000
   1073   1074     1   0.10969 276646.080000
   1073   1075     1   0.10969 276646.080000
   1076   1077     1   0.10969 276646.080000
   1076   1078     1   0.10969 276646.080000
   1079   1080     1   0.10969 276646.080000
   1079   1081     1   0.10969 276646.080000
   1082   1083     1   0.10969 276646.080000
   1082   1084     1   0.10969 276646.080000
   1089   1090     1   0.10129 337397.760000
   1091   1092     1   0.10969 276646.080000
   1091   1093     1   0.10969 276646.080000
   1094   1095     1   0.10969 276646.080000
   1094   1096     1   0.10969 276646.080000
   1098   1099     1   0.10969 276646.080000
   1098   1100     1   0.10969 276646.080000
   1101   1102     1   0.10969 276646.080000
   1101   1103     1   0.10969 276646.080000
   1104   1105     1   0.10969 276646.080000
   1104   1106     1   0.10969 276646.080000
   1107   1108     1   0.10969 276646.080000
   1107   1109     1   0.10969 276646.080000
   1114   1115     1   0.10129 337397.760000
   1116   1117     1   0.10969 276646.080000
   1116   1118     1   0.10969 276646.080000
   1119   1120     1   0.10969 276646.080000
   1119   1121     1   0.10969 276646.080000
   1123   1124     1   0.10969 276646.080000
   1123   1125     1   0.10969 276646.080000
   1126   1127     1   0.10969 276646.080000
   1126   1128     1   0.10969 276646.080000
   1129   1130     1   0.10969 276646.080000
   1129   1131     1   0.10969 276646.080000
   1132   1133     1   0.10969 276646.080000
   1132   1134     1   0.10969 276646.080000
   1139   1140     1   0.10129 337397.760000
   1141   1142     1   0.10969 276646.080000
   1141   1143     1   0.10969 276646.080000
   1144   1145     1   0.10969 276646.080000
   1144   1146     1   0.10969 276646.080000
   1148   1149     1   0.10969 276646.080000
   1148   1150     1   0.10969 276646.080000
   1151   1152     1   0.10969 276646.080000
   1151   1153     1   0.10969 276646.080000
   1154   1155     1   0.10969 276646.080000
   1154   1156     1   0.10969 276646.080000
   1157   1158     1   0.10969 276646.080000
   1157   1159     1   0.10969 276646.080000
   1164   1165     1   0.10129 337397.760000
   1166   1167     1   0.10969 276646.080000
   1166   1168     1   0.10969 276646.080000
   1169   1170     1   0.10969 276646.080000
   1169   1171     1   0.10969 276646.080000
   1173   1174     1   0.10969 276646.080000
   1173   1175     1   0.10969 276646.080000
   1176   1177     1   0.10969 276646.080000
   1176   1178     1   0.10969 276646.080000
   1179   1180     1   0.10969 276646.080000
   1179   1181     1   0.10969 276646.080000
   1182   1183     1   0.10969 276646.080000
   1182   1184     1   0.10969 276646.080000
   1189   1190     1   0.10129 337397.760000
   1191   1192     1   0.10969 276646.080000
   1191   1193     1   0.10969 276646.080000
   1194   1195     1   0.10969 276646.080000
   1194   1196     1   0.10969 276646.080000
   1198   1199     1   0.10969 276646.080000
   1198   1200     1   0.10969 276646.080000
   1201   1202     1   0.10969 276646.080000
   1201   1203     1   0.10969 276646.080000
   1204   1205     1   0.10969 276646.080000
   1204   1206     1   0.10969 276646.080000
   1207   1208     1   0.10969 276646.080000
   1207   1209     1   0.10969 276646.080000
   1214   1215     1   0.10129 337397.760000
   1216   1217     1   0.10969 276646.080000
   1216   1218     1   0.10969 276646.080000
   1219   1220     1   0.10969 276646.080000
   1219   1221     1   0.10969 276646.080000
   1223   1224     1   0.10969 276646.080000
   1223   1225     1   0.10969 276646.080000
   1226   1227     1   0.10969 276646.080000
   1226   1228     1   0.10969 276646.080000
   1229   1230     1   0.10969 276646.080000
   1229   1231     1   0.10969 276646.080000
   1232   1233     1   0.10969 276646.080000
   1232   1234     1   0.10969 276646.080000
   1239   1240     1   0.10129 337397.760000
   1241   1242     1   0.10969 276646.080000
   1241   1243     1   0.10969 276646.080000
   1244   1245     1   0.10969 276646.080000
   1244   1246     1   0.10969 276646.080000
   1248   1249     1   0.10969 276646.080000
   1248   1250     1   0.10969 276646.080000
   1251   1252     1   0.10969 276646.080000
   1251   1253     1   0.10969 276646.080000
   1254   1255     1   0.10969 276646.080000
   1254   1256     1   0.10969 276646.080000
   1257   1258     1   0.10969 276646.080000
   1257   1259     1   0.10969 276646.080000
   1264   1265     1   0.10129 337397.760000
   1266   1267     1   0.10969 276646.080000
   1266   1268     1   0.10969 276646.080000
   1269   1270     1   0.10969 276646.080000
   1269   1271     1   0.10969 276646.080000
   1273   1274     1   0.10969 276646.080000
   1273   1275     1   0.10969 276646.080000
   1276   1277     1   0.10969 276646.080000
   1276   1278     1   0.10969 276646.080000
   1279   1280     1   0.10969 276646.080000
   1279   1281     1   0.10969 276646.080000
   1282   1283     1   0.10969 276646.080000
   1282   1284     1   0.10969 276646.080000
   1289   1290     1   0.10129 337397.760000
   1291   1292     1   0.10969 276646.080000
   1291   1293     1   0.10969 276646.080000
   1294   1295     1   0.10969 276646.080000
   1294   1296     1   0.10969 276646.080000
   1298   1299     1   0.10969 276646.080000
   1298   1300     1   0.10969 276646.080000
   1301   1302     1   0.10969 276646.080000
   1301   1303     1   0.10969 276646.080000
   1304   1305     1   0.10969 276646.080000
   1304   1306     1   0.10969 276646.080000
   1307   1308     1   0.10969 276646.080000
   1307   1309     1   0.10969 276646.080000
   1314   1315     1   0.10129 337397.760000
   1316   1317     1   0.10969 276646.080000
   1316   1318     1   0.10969 276646.080000
   1319   1320     1   0.10969 276646.080000
   1319   1321     1   0.10969 276646.080000
   1323   1324     1   0.10969 276646.080000
   1323   1325     1   0.10969 276646.080000
   1326   1327     1   0.10969 276646.080000
   1326   1328     1   0.10969 276646.080000
   1329   1330     1   0.10969 276646.080000
   1329   1331     1   0.10969 276646.080000
   1332   1333     1   0.10969 276646.080000
   1332   1334     1   0.10969 276646.080000
   1339   1340     1   0.10129 337397.760000
   1341   1342     1   0.10969 276646.080000
   1341   1343     1   0.10969 276646.080000
   1344   1345     1   0.10969 276646.080000
   1344   1346     1   0.10969 276646.080000
   1348   1349     1   0.10969 276646.080000
   1348   1350     1   0.10969 276646.080000
   1351   1352     1   0.10969 276646.080000
   1351   1353     1   0.10969 276646.080000
   1354   1355     1   0.10969 276646.080000
   1354   1356     1   0.10969 276646.080000
   1357   1358     1   0.10969 276646.080000
   1357   1359     1   0.10969 276646.080000
   1364   1365     1   0.10129 337397.760000
   1366   1367     1   0.10969 276646.080000
   1366   1368     1   0.10969 276646.080000
   1369   1370     1   0.10969 276646.080000
   1369   1371     1   0.10969 276646.080000
   1373   1374     1   0.10969 276646.080000
   1373   1375     1   0.10969 276646.080000
   1376   1377     1   0.10969 276646.080000
   1376   1378     1   0.10969 276646.080000
   1379   1380     1   0.10969 276646.080000
   1379   1381     1   0.10969 276646.080000
   1382   1383     1   0.10969 276646.080000
   1382   1384     1   0.10969 276646.080000
   1389   1390     1   0.10129 337397.760000
   1391   1392     1   0.10969 276646.080000
   1391   1393     1   0.10969 276646.080000
   1394   1395     1   0.10969 276646.080000
   1394   1396     1   0.10969 276646.080000
   1398   1399     1   0.10969 276646.080000
   1398   1400     1   0.10969 276646.080000
   1401   1402     1   0.10969 276646.080000
   1401   1403     1   0.10969 276646.080000
   1404   1405     1   0.10969 276646.080000
   1404   1406     1   0.10969 276646.080000
   1407   1408     1   0.10969 276646.080000
   1407   1409     1   0.10969 276646.080000
   1414   1415     1   0.10129 337397.760000
   1416   1417     1   0.10969 276646.080000
   1416   1418     1   0.10969 276646.080000
   1419   1420     1   0.10969 276646.080000
   1419   1421     1   0.10969 276646.080000
   1423   1424     1   0.10969 276646.080000
   1423   1425     1   0.10969 276646.080000
   1426   1427     1   0.10969 276646.080000
   1426   1428     1   0.10969 276646.080000
   1429   1430     1   0.10969 276646.080000
   1429   1431     1   0.10969 276646.080000
   1432   1433     1   0.10969 276646.080000
   1432   1434     1   0.10969 276646.080000
   1439   1440     1   0.10129 337397.760000
   1441   1442     1   0.10969 276646.080000
   1441   1443     1   0.10969 276646.080000
   1444   1445     1   0.10969 276646.080000
   1444   1446     1   0.10969 276646.080000
   1448   1449     1   0.10969 276646.080000
   1448   1450     1   0.10969 276646.080000
   1451   1452     1   0.10969 276646.080000
   1451   1453     1   0.10969 276646.080000
   1454   1455     1   0.10969 276646.080000
   1454   1456     1   0.10969 276646.080000
   1457   1458     1   0.10969 276646.080000
   1457   1459     1   0.10969 276646.080000
   1464   1465     1   0.10129 337397.760000
   1466   1467     1   0.10969 276646.080000
   1466   1468     1   0.10969 276646.080000
   1469   1470     1   0.10969 276646.080000
   1469   1471     1   0.10969 276646.080000
   1473   1474     1   0.10969 276646.080000
   1473   1475     1   0.10969 276646.080000
   1476   1477     1   0.10969 276646.080000
   1476   1478     1   0.10969 276646.080000
   1479   1480     1   0.10969 276646.080000
   1479   1481     1   0.10969 276646.080000
   1482   1483     1   0.10969 276646.080000
   1482   1484     1   0.10969 276646.080000
   1489   1490     1   0.10129 337397.760000
   1491   1492     1   0.10969 276646.080000
   1491   1493     1   0.10969 276646.080000
   1494   1495     1   0.10969 276646.080000
   1494   1496     1   0.10969 276646.080000
   1498   1499     1   0.10969 276646.080000
   1498   1500     1   0.10969 276646.080000
   1501   1502     1   0.10969 276646.080000
   1501   1503     1   0.10969 276646.080000
   1504   1505     1   0.10969 276646.080000
   1504   1506     1   0.10969 276646.080000
   1507   1508     1   0.10969 276646.080000
   1507   1509     1   0.10969 276646.080000
   1514   1515     1   0.10129 337397.760000
   1516   1517     1   0.10969 276646.080000
   1516   1518     1   0.10969 276646.080000
   1519   1520     1   0.10969 276646.080000
   1519   1521     1   0.10969 276646.080000
   1523   1524     1   0.10969 276646.080000
   1523   1525     1   0.10969 276646.080000
   1526   1527     1   0.10969 276646.080000
   1526   1528     1   0.10969 276646.080000
   1529   1530     1   0.10969 276646.080000
   1529   1531     1   0.10969 276646.080000
   1532   1533     1   0.10969 276646.080000
   1532   1534     1   0.10969 276646.080000
   1539   1540     1   0.10129 337397.760000
   1541   1542     1   0.10129 337397.760000
   1543   1544     1   0.10969 276646.080000
   1543   1546     1   0.10969 276646.080000
   1545   1547     1   0.10969 276646.080000
   1545   1548     1   0.10969 276646.080000
   1550   1560     1   0.10969 276646.080000
   1550   1561     1   0.10969 276646.080000
   1551   1552     1   0.10969 276646.080000
   1551   1554     1   0.10969 276646.080000
   1553   1555     1   0.10969 276646.080000
   1553   1556     1   0.10969 276646.080000
   1562   1563     1   0.10969 276646.080000
   1562   1564     1   0.10969 276646.080000
   1568   1569     1   0.10129 337397.760000
   1570   1571     1   0.10969 276646.080000
   1570   1573     1   0.10969 276646.080000
   1572   1574     1   0.10969 276646.080000
   1572   1575     1   0.10969 276646.080000
   1577   1587     1   0.10969 276646.080000
   1577   1588     1   0.10969 276646.080000
   1578   1579     1   0.10969 276646.080000
   1578   1581     1   0.10969 276646.080000
   1580   1582     1   0.10969 276646.080000
   1580   1583     1   0.10969 276646.080000
   1589   1590     1   0.10969 276646.080000
   1589   1591     1   0.10969 276646.080000
   1595   1596     1   0.10129 337397.760000
   1597   1598     1   0.10969 276646.080000
   1597   1600     1   0.10969 276646.080000
   1599   1601     1   0.10969 276646.080000
   1599   1602     1   0.10969 276646.080000
   1604   1614     1   0.10969 276646.080000
   1604   1615     1   0.10969 276646.080000
   1605   1606     1   0.10969 276646.080000
   1605   1608     1   0.10969 276646.080000
   1607   1609     1   0.10969 276646.080000
   1607   1610     1   0.10969 276646.080000
   1616   1617     1   0.10969 276646.080000
   1616   1618     1   0.10969 276646.080000
   1622   1623     1   0.10129 337397.760000
   1624   1625     1   0.10969 276646.080000
   1624   1627     1   0.10969 276646.080000
   1626   1628     1   0.10969 276646.080000
   1626   1629     1   0.10969 276646.080000
   1631   1641     1   0.10969 276646.080000
   1631   1642     1   0.10969 276646.080000
   1632   1633     1   0.10969 276646.080000
   1632   1635     1   0.10969 276646.080000
   1634   1636     1   0.10969 276646.080000
   1634   1637     1   0.10969 276646.080000
   1643   1644     1   0.10969 276646.080000
   1643   1645     1   0.10969 276646.080000
   1649   1650     1   0.10129 337397.760000
   1651   1652     1   0.10969 276646.080000
   1651   1654     1   0.10969 276646.080000
   1653   1655     1   0.10969 276646.080000
   1653   1656     1   0.10969 276646.080000
   1658   1668     1   0.10969 276646.080000
   1658   1669     1   0.10969 276646.080000
   1659   1660     1   0.10969 276646.080000
   1659   1662     1   0.10969 276646.080000
   1661   1663     1   0.10969 276646.080000
   1661   1664     1   0.10969 276646.080000
   1670   1671     1   0.10969 276646.080000
   1670   1672     1   0.10969 276646.080000
   1676   1677     1   0.10129 337397.760000
   1678   1679     1   0.10969 276646.080000
   1678   1681     1   0.10969 276646.080000
   1680   1682     1   0.10969 276646.080000
   1680   1683     1   0.10969 276646.080000
   1685   1695     1   0.10969 276646.080000
   1685   1696     1   0.10969 276646.080000
   1686   1687     1   0.10969 276646.080000
   1686   1689     1   0.10969 276646.080000
   1688   1690     1   0.10969 276646.080000
   1688   1691     1   0.10969 276646.080000
   1697   1698     1   0.10969 276646.080000
   1697   1699     1   0.10969 276646.080000
   1703   1704     1   0.10129 337397.760000
   1705   1706     1   0.10969 276646.080000
   1705   1708     1   0.10969 276646.080000
   1707   1709     1   0.10969 276646.080000
   1707   1710     1   0.10969 276646.080000
   1712   1722     1   0.10969 276646.080000
   1712   1723     1   0.10969 276646.080000
   1713   1714     1   0.10969 276646.080000
   1713   1716     1   0.10969 276646.080000
   1715   1717     1   0.10969 276646.080000
   1715   1718     1   0.10969 276646.080000
   1724   1725     1   0.10969 276646.080000
   1724   1726     1   0.10969 276646.080000
   1730   1731     1   0.10129 337397.760000
   1732   1733     1   0.10969 276646.080000
   1732   1735     1   0.10969 276646.080000
   1734   1736     1   0.10969 276646.080000
   1734   1737     1   0.10969 276646.080000
   1739   1749     1   0.10969 276646.080000
   1739   1750     1   0.10969 276646.080000
   1740   1741     1   0.10969 276646.080000
   1740   1743     1   0.10969 276646.080000
   1742   1744     1   0.10969 276646.080000
   1742   1745     1   0.10969 276646.080000
   1751   1752     1   0.10969 276646.080000
   1751   1753     1   0.10969 276646.080000
   1757   1758     1   0.10129 337397.760000
   1759   1760     1   0.10969 276646.080000
   1759   1762     1   0.10969 276646.080000
   1761   1763     1   0.10969 276646.080000
   1761   1764     1   0.10969 276646.080000
   1766   1776     1   0.10969 276646.080000
   1766   1777     1   0.10969 276646.080000
   1767   1768     1   0.10969 276646.080000
   1767   1770     1   0.10969 276646.080000
   1769   1771     1   0.10969 276646.080000
   1769   1772     1   0.10969 276646.080000
   1778   1779     1   0.10969 276646.080000
   1778   1780     1   0.10969 276646.080000
   1784   1785     1   0.10129 337397.760000
   1786   1787     1   0.10969 276646.080000
   1786   1789     1   0.10969 276646.080000
   1788   1790     1   0.10969 276646.080000
   1788   1791     1   0.10969 276646.080000
   1793   1803     1   0.10969 276646.080000
   1793   1804     1   0.10969 276646.080000
   1794   1795     1   0.10969 276646.080000
   1794   1797     1   0.10969 276646.080000
   1796   1798     1   0.10969 276646.080000
   1796   1799     1   0.10969 276646.080000
   1805   1806     1   0.10969 276646.080000
   1805   1807     1   0.10969 276646.080000
   1811   1812     1   0.10129 337397.760000
   1813   1814     1   0.10969 276646.080000
   1813   1816     1   0.10969 276646.080000
   1815   1817     1   0.10969 276646.080000
   1815   1818     1   0.10969 276646.080000
   1820   1830     1   0.10969 276646.080000
   1820   1831     1   0.10969 276646.080000
   1821   1822     1   0.10969 276646.080000
   1821   1824     1   0.10969 276646.080000
   1823   1825     1   0.10969 276646.080000
   1823   1826     1   0.10969 276646.080000
   1832   1833     1   0.10969 276646.080000
   1832   1834     1   0.10969 276646.080000
   1838   1839     1   0.10129 337397.760000
   1840   1841     1   0.10969 276646.080000
   1840   1843     1   0.10969 276646.080000
   1842   1844     1   0.10969 276646.080000
   1842   1845     1   0.10969 276646.080000
   1847   1857     1   0.10969 276646.080000
   1847   1858     1   0.10969 276646.080000
   1848   1849     1   0.10969 276646.080000
   1848   1851     1   0.10969 276646.080000
   1850   1852     1   0.10969 276646.080000
   1850   1853     1   0.10969 276646.080000
   1859   1860     1   0.10969 276646.080000
   1859   1861     1   0.10969 276646.080000
   1865   1866     1   0.10129 337397.760000
   1867   1868     1   0.10969 276646.080000
   1867   1870     1   0.10969 276646.080000
   1869   1871     1   0.10969 276646.080000
   1869   1872     1   0.10969 276646.080000
   1874   1884     1   0.10969 276646.080000
   1874   1885     1   0.10969 276646.080000
   1875   1876     1   0.10969 276646.080000
   1875   1878     1   0.10969 276646.080000
   1877   1879     1   0.10969 276646.080000
   1877   1880     1   0.10969 276646.080000
   1886   1887     1   0.10969 276646.080000
   1886   1888     1   0.10969 276646.080000
   1892   1893     1   0.10129 337397.760000
   1894   1895     1   0.10969 276646.080000
   1894   1897     1   0.10969 276646.080000
   1896   1898     1   0.10969 276646.080000
   1896   1899     1   0.10969 276646.080000
   1901   1911     1   0.10969 276646.080000
   1901   1912     1   0.10969 276646.080000
   1902   1903     1   0.10969 276646.080000
   1902   1905     1   0.10969 276646.080000
   1904   1906     1   0.10969 276646.080000
   1904   1907     1   0.10969 276646.080000
   1913   1914     1   0.10969 276646.080000
   1913   1915     1   0.10969 276646.080000
   1919   1920     1   0.10129 337397.760000
   1921   1922     1   0.10969 276646.080000
   1921   1924     1   0.10969 276646.080000
   1923   1925     1   0.10969 276646.080000
   1923   1926     1   0.10969 276646.080000
   1928   1938     1   0.10969 276646.080000
   1928   1939     1   0.10969 276646.080000
   1929   1930     1   0.10969 276646.080000
   1929   1932     1   0.10969 276646.080000
   1931   1933     1   0.10969 276646.080000
   1931   1934     1   0.10969 276646.080000
   1940   1941     1   0.10969 276646.080000
   1940   1942     1   0.10969 276646.080000
   1946   1947     1   0.10129 337397.760000
   1948   1949     1   0.10969 276646.080000
   1948   1951     1   0.10969 276646.080000
   1950   1952     1   0.10969 276646.080000
   1950   1953     1   0.10969 276646.080000
   1955   1965     1   0.10969 276646.080000
   1955   1966     1   0.10969 276646.080000
   1956   1957     1   0.10969 276646.080000
   1956   1959     1   0.10969 276646.080000
   1958   1960     1   0.10969 276646.080000
   1958   1961     1   0.10969 276646.080000
   1967   1968     1   0.10969 276646.080000
   1967   1969     1   0.10969 276646.080000
   1973   1974     1   0.10129 337397.760000
   1975   1976     1   0.10969 276646.080000
   1975   1978     1   0.10969 276646.080000
   1977   1979     1   0.10969 276646.080000
   1977   1980     1   0.10969 276646.080000
   1982   1992     1   0.10969 276646.080000
   1982   1993     1   0.10969 276646.080000
   1983   1984     1   0.10969 276646.080000
   1983   1986     1   0.10969 276646.080000
   1985   1987     1   0.10969 276646.080000
   1985   1988     1   0.10969 276646.080000
   1994   1995     1   0.10969 276646.080000
   1994   1996     1   0.10969 276646.080000
   2000   2001     1   0.10129 337397.760000
   2002   2003     1   0.10969 276646.080000
   2002   2005     1   0.10969 276646.080000
   2004   2006     1   0.10969 276646.080000
   2004   2007     1   0.10969 276646.080000
   2009   2019     1   0.10969 276646.080000
   2009   2020     1   0.10969 276646.080000
   2010   2011     1   0.10969 276646.080000
   2010   2013     1   0.10969 276646.080000
   2012   2014     1   0.10969 276646.080000
   2012   2015     1   0.10969 276646.080000
   2021   2022     1   0.10969 276646.080000
   2021   2023     1   0.10969 276646.080000
   2027   2028     1   0.10129 337397.760000
   2029   2030     1   0.10969 276646.080000
   2029   2032     1   0.10969 276646.080000
   2031   2033     1   0.10969 276646.080000
   2031   2034     1   0.10969 276646.080000
   2036   2046     1   0.10969 276646.080000
   2036   2047     1   0.10969 276646.080000
   2037   2038     1   0.10969 276646.080000
   2037   2040     1   0.10969 276646.080000
   2039   2041     1   0.10969 276646.080000
   2039   2042     1   0.10969 276646.080000
   2048   2049     1   0.10969 276646.080000
   2048   2050     1   0.10969 276646.080000
   2054   2055     1   0.10129 337397.760000
   2056   2057     1   0.10969 276646.080000
   2056   2059     1   0.10969 276646.080000
   2058   2060     1   0.10969 276646.080000
   2058   2061     1   0.10969 276646.080000
   2063   2073     1   0.10969 276646.080000
   2063   2074     1   0.10969 276646.080000
   2064   2065     1   0.10969 276646.080000
   2064   2067     1   0.10969 276646.080000
   2066   2068     1   0.10969 276646.080000
   2066   2069     1   0.10969 276646.080000
   2075   2076     1   0.10969 276646.080000
   2075   2077     1   0.10969 276646.080000
   2081   2082     1   0.10129 337397.760000
   2083   2084     1   0.10969 276646.080000
   2083   2086     1   0.10969 276646.080000
   2085   2087     1   0.10969 276646.080000
   2085   2088     1   0.10969 276646.080000
   2090   2100     1   0.10969 276646.080000
   2090   2101     1   0.10969 276646.080000
   2091   2092     1   0.10969 276646.080000
   2091   2094     1   0.10969 276646.080000
   2093   2095     1   0.10969 276646.080000
   2093   2096     1   0.10969 276646.080000
   2102   2103     1   0.10969 276646.080000
   2102   2104     1   0.10969 276646.080000
   2108   2109     1   0.10129 337397.760000
   2110   2111     1   0.10969 276646.080000
   2110   2113     1   0.10969 276646.080000
   2112   2114     1   0.10969 276646.080000
   2112   2115     1   0.10969 276646.080000
   2117   2127     1   0.10969 276646.080000
   2117   2128     1   0.10969 276646.080000
   2118   2119     1   0.10969 276646.080000
   2118   2121     1   0.10969 276646.080000
   2120   2122     1   0.10969 276646.080000
   2120   2123     1   0.10969 276646.080000
   2129   2130     1   0.10969 276646.080000
   2129   2131     1   0.10969 276646.080000
   2135   2136     1   0.10129 337397.760000
   2137   2138     1   0.10969 276646.080000
   2137   2140     1   0.10969 276646.080000
   2139   2141     1   0.10969 276646.080000
   2139   2142     1   0.10969 276646.080000
   2144   2154     1   0.10969 276646.080000
   2144   2155     1   0.10969 276646.080000
   2145   2146     1   0.10969 276646.080000
   2145   2148     1   0.10969 276646.080000
   2147   2149     1   0.10969 276646.080000
   2147   2150     1   0.10969 276646.080000
   2156   2157     1   0.10969 276646.080000
   2156   2158     1   0.10969 276646.080000
   2162   2163     1   0.10129 337397.760000
   2164   2165     1   0.10969 276646.080000
   2164   2167     1   0.10969 276646.080000
   2166   2168     1   0.10969 276646.080000
   2166   2169     1   0.10969 276646.080000
   2171   2181     1   0.10969 276646.080000
   2171   2182     1   0.10969 276646.080000
   2172   2173     1   0.10969 276646.080000
   2172   2175     1   0.10969 276646.080000
   2174   2176     1   0.10969 276646.080000
   2174   2177     1   0.10969 276646.080000
   2183   2184     1   0.10969 276646.080000
   2183   2185     1   0.10969 276646.080000
   2189   2190     1   0.10129 337397.760000
   2191   2192     1   0.10969 276646.080000
   2191   2194     1   0.10969 276646.080000
   2193   2195     1   0.10969 276646.080000
   2193   2196     1   0.10969 276646.080000
   2198   2208     1   0.10969 276646.080000
   2198   2209     1   0.10969 276646.080000
   2199   2200     1   0.10969 276646.080000
   2199   2202     1   0.10969 276646.080000
   2201   2203     1   0.10969 276646.080000
   2201   2204     1   0.10969 276646.080000
   2210   2211     1   0.10969 276646.080000
   2210   2212     1   0.10969 276646.080000
   2216   2217     1   0.10129 337397.760000
   2218   2219     1   0.10969 276646.080000
   2218   2221     1   0.10969 276646.080000
   2220   2222     1   0.10969 276646.080000
   2220   2223     1   0.10969 276646.080000
   2225   2235     1   0.10969 276646.080000
   2225   2236     1   0.10969 276646.080000
   2226   2227     1   0.10969 276646.080000
   2226   2229     1   0.10969 276646.080000
   2228   2230     1   0.10969 276646.080000
   2228   2231     1   0.10969 276646.080000
   2237   2238     1   0.10969 276646.080000
   2237   2239     1   0.10969 276646.080000
   2243   2244     1   0.10129 337397.760000
   2245   2246     1   0.10969 276646.080000
   2245   2248     1   0.10969 276646.080000
   2247   2249     1   0.10969 276646.080000
   2247   2250     1   0.10969 276646.080000
   2252   2262     1   0.10969 276646.080000
   2252   2263     1   0.10969 276646.080000
   2253   2254     1   0.10969 276646.080000
   2253   2256     1   0.10969 276646.080000
   2255   2257     1   0.10969 276646.080000
   2255   2258     1   0.10969 276646.080000
   2264   2265     1   0.10969 276646.080000
   2264   2266     1   0.10969 276646.080000
   2270   2271     1   0.10129 337397.760000
   2272   2273     1   0.10969 276646.080000
   2272   2275     1   0.10969 276646.080000
   2274   2276     1   0.10969 276646.080000
   2274   2277     1   0.10969 276646.080000
   2279   2289     1   0.10969 276646.080000
   2279   2290     1   0.10969 276646.080000
   2280   2281     1   0.10969 276646.080000
   2280   2283     1   0.10969 276646.080000
   2282   2284     1   0.10969 276646.080000
   2282   2285     1   0.10969 276646.080000
   2291   2292     1   0.10969 276646.080000
   2291   2293     1   0.10969 276646.080000
   2297   2298     1   0.10129 337397.760000
   2299   2300     1   0.10969 276646.080000
   2299   2302     1   0.10969 276646.080000
   2301   2303     1   0.10969 276646.080000
   2301   2304     1   0.10969 276646.080000
   2306   2316     1   0.10969 276646.080000
   2306   2317     1   0.10969 276646.080000
   2307   2308     1   0.10969 276646.080000
   2307   2310     1   0.10969 276646.080000
   2309   2311     1   0.10969 276646.080000
   2309   2312     1   0.10969 276646.080000
   2318   2319     1   0.10969 276646.080000
   2318   2320     1   0.10969 276646.080000
   2324   2325     1   0.10129 337397.760000
   2326   2327     1   0.10969 276646.080000
   2326   2329     1   0.10969 276646.080000
   2328   2330     1   0.10969 276646.080000
   2328   2331     1   0.10969 276646.080000
   2333   2343     1   0.10969 276646.080000
   2333   2344     1   0.10969 276646.080000
   2334   2335     1   0.10969 276646.080000
   2334   2337     1   0.10969 276646.080000
   2336   2338     1   0.10969 276646.080000
   2336   2339     1   0.10969 276646.080000
   2345   2346     1   0.10969 276646.080000
   2345   2347     1   0.10969 276646.080000
   2351   2352     1   0.10129 337397.760000
   2353   2354     1   0.10969 276646.080000
   2353   2356     1   0.10969 276646.080000
   2355   2357     1   0.10969 276646.080000
   2355   2358     1   0.10969 276646.080000
   2360   2370     1   0.10969 276646.080000
   2360   2371     1   0.10969 276646.080000
   2361   2362     1   0.10969 276646.080000
   2361   2364     1   0.10969 276646.080000
   2363   2365     1   0.10969 276646.080000
   2363   2366     1   0.10969 276646.080000
   2372   2373     1   0.10969 276646.080000
   2372   2374     1   0.10969 276646.080000
   2378   2379     1   0.10129 337397.760000
   2380   2381     1   0.10969 276646.080000
   2380   2383     1   0.10969 276646.080000
   2382   2384     1   0.10969 276646.080000
   2382   2385     1   0.10969 276646.080000
   2387   2397     1   0.10969 276646.080000
   2387   2398     1   0.10969 276646.080000
   2388   2389     1   0.10969 276646.080000
   2388   2391     1   0.10969 276646.080000
   2390   2392     1   0.10969 276646.080000
   2390   2393     1   0.10969 276646.080000
   2399   2400     1   0.10969 276646.080000
   2399   2401     1   0.10969 276646.080000
   2405   2406     1   0.10129 337397.760000
   2407   2408     1   0.10969 276646.080000
   2407   2410     1   0.10969 276646.080000
   2409   2411     1   0.10969 276646.080000
   2409   2412     1   0.10969 276646.080000
   2414   2424     1   0.10969 276646.080000
   2414   2425     1   0.10969 276646.080000
   2415   2416     1   0.10969 276646.080000
   2415   2418     1   0.10969 276646.080000
   2417   2419     1   0.10969 276646.080000
   2417   2420     1   0.10969 276646.080000
   2426   2427     1   0.10969 276646.080000
   2426   2428     1   0.10969 276646.080000
   2432   2433     1   0.10129 337397.760000
   2434   2435     1   0.10969 276646.080000
   2434   2437     1   0.10969 276646.080000
   2436   2438     1   0.10969 276646.080000
   2436   2439     1   0.10969 276646.080000
   2441   2451     1   0.10969 276646.080000
   2441   2452     1   0.10969 276646.080000
   2442   2443     1   0.10969 276646.080000
   2442   2445     1   0.10969 276646.080000
   2444   2446     1   0.10969 276646.080000
   2444   2447     1   0.10969 276646.080000
   2453   2454     1   0.10969 276646.080000
   2453   2455     1   0.10969 276646.080000
   2459   2460     1   0.10129 337397.760000
   2461   2462     1   0.10969 276646.080000
   2461   2464     1   0.10969 276646.080000
   2463   2465     1   0.10969 276646.080000
   2463   2466     1   0.10969 276646.080000
   2468   2478     1   0.10969 276646.080000
   2468   2479     1   0.10969 276646.080000
   2469   2470     1   0.10969 276646.080000
   2469   2472     1   0.10969 276646.080000
   2471   2473     1   0.10969 276646.080000
   2471   2474     1   0.10969 276646.080000
   2480   2481     1   0.10969 276646.080000
   2480   2482     1   0.10969 276646.080000
   2486   2487     1   0.10129 337397.760000
   2488   2489     1   0.10969 276646.080000
   2488   2491     1   0.10969 276646.080000
   2490   2492     1   0.10969 276646.080000
   2490   2493     1   0.10969 276646.080000
   2495   2505     1   0.10969 276646.080000
   2495   2506     1   0.10969 276646.080000
   2496   2497     1   0.10969 276646.080000
   2496   2499     1   0.10969 276646.080000
   2498   2500     1   0.10969 276646.080000
   2498   2501     1   0.10969 276646.080000
   2507   2508     1   0.10969 276646.080000
   2507   2509     1   0.10969 276646.080000
   2513   2514     1   0.10129 337397.760000
   2515   2516     1   0.10969 276646.080000
   2515   2518     1   0.10969 276646.080000
   2517   2519     1   0.10969 276646.080000
   2517   2520     1   0.10969 276646.080000
   2522   2532     1   0.10969 276646.080000
   2522   2533     1   0.10969 276646.080000
   2523   2524     1   0.10969 276646.080000
   2523   2526     1   0.10969 276646.080000
   2525   2527     1   0.10969 276646.080000
   2525   2528     1   0.10969 276646.080000
   2534   2535     1   0.10969 276646.080000
   2534   2536     1   0.10969 276646.080000
   2540   2541     1   0.10129 337397.760000
   2542   2543     1   0.10969 276646.080000
   2542   2545     1   0.10969 276646.080000
   2544   2546     1   0.10969 276646.080000
   2544   2547     1   0.10969 276646.080000
   2549   2559     1   0.10969 276646.080000
   2549   2560     1   0.10969 276646.080000
   2550   2551     1   0.10969 276646.080000
   2550   2553     1   0.10969 276646.080000
   2552   2554     1   0.10969 276646.080000
   2552   2555     1   0.10969 276646.080000
   2561   2562     1   0.10969 276646.080000
   2561   2563     1   0.10969 276646.080000
   2567   2568     1   0.10129 337397.760000
   2569   2570     1   0.10969 276646.080000
   2569   2572     1   0.10969 276646.080000
   2571   2573     1   0.10969 276646.080000
   2571   2574     1   0.10969 276646.080000
   2576   2586     1   0.10969 276646.080000
   2576   2587     1   0.10969 276646.080000
   2577   2578     1   0.10969 276646.080000
   2577   2580     1   0.10969 276646.080000
   2579   2581     1   0.10969 276646.080000
   2579   2582     1   0.10969 276646.080000
   2588   2589     1   0.10969 276646.080000
   2588   2590     1   0.10969 276646.080000
   2594   2595     1   0.10129 337397.760000
   2596   2597     1   0.10969 276646.080000
   2596   2599     1   0.10969 276646.080000
   2598   2600     1   0.10969 276646.080000
   2598   2601     1   0.10969 276646.080000
   2603   2613     1   0.10969 276646.080000
   2603   2614     1   0.10969 276646.080000
   2604   2605     1   0.10969 276646.080000
   2604   2607     1   0.10969 276646.080000
   2606   2608     1   0.10969 276646.080000
   2606   2609     1   0.10969 276646.080000
   2615   2616     1   0.10969 276646.080000
   2615   2617     1   0.10969 276646.080000
   2621   2622     1   0.10129 337397.760000
   2623   2624     1   0.10969 276646.080000
   2623   2626     1   0.10969 276646.080000
   2625   2627     1   0.10969 276646.080000
   2625   2628     1   0.10969 276646.080000
   2630   2640     1   0.10969 276646.080000
   2630   2641     1   0.10969 276646.080000
   2631   2632     1   0.10969 276646.080000
   2631   2634     1   0.10969 276646.080000
   2633   2635     1   0.10969 276646.080000
   2633   2636     1   0.10969 276646.080000
   2642   2643     1   0.10969 276646.080000
   2642   2644     1   0.10969 276646.080000
   2648   2649     1   0.10129 337397.760000
   2650   2651     1   0.10969 276646.080000
   2650   2653     1   0.10969 276646.080000
   2652   2654     1   0.10969 276646.080000
   2652   2655     1   0.10969 276646.080000
   2657   2667     1   0.10969 276646.080000
   2657   2668     1   0.10969 276646.080000
   2658   2659     1   0.10969 276646.080000
   2658   2661     1   0.10969 276646.080000
   2660   2662     1   0.10969 276646.080000
   2660   2663     1   0.10969 276646.080000
   2669   2670     1   0.10969 276646.080000
   2669   2671     1   0.10969 276646.080000
   2675   2676     1   0.10129 337397.760000
   2677   2678     1   0.10969 276646.080000
   2677   2680     1   0.10969 276646.080000
   2679   2681     1   0.10969 276646.080000
   2679   2682     1   0.10969 276646.080000
   2684   2694     1   0.10969 276646.080000
   2684   2695     1   0.10969 276646.080000
   2685   2686     1   0.10969 276646.080000
   2685   2688     1   0.10969 276646.080000
   2687   2689     1   0.10969 276646.080000
   2687   2690     1   0.10969 276646.080000
   2696   2697     1   0.10969 276646.080000
   2696   2698     1   0.10969 276646.080000
   2702   2703     1   0.10129 337397.760000
   2704   2705     1   0.10969 276646.080000
   2704   2707     1   0.10969 276646.080000
   2706   2708     1   0.10969 276646.080000
   2706   2709     1   0.10969 276646.080000
   2711   2721     1   0.10969 276646.080000
   2711   2722     1   0.10969 276646.080000
   2712   2713     1   0.10969 276646.080000
   2712   2715     1   0.10969 276646.080000
   2714   2716     1   0.10969 276646.080000
   2714   2717     1   0.10969 276646.080000
   2723   2724     1   0.10969 276646.080000
   2723   2725     1   0.10969 276646.080000
   2729   2730     1   0.10129 337397.760000
   2731   2732     1   0.10969 276646.080000
   2731   2734     1   0.10969 276646.080000
   2733   2735     1   0.10969 276646.080000
   2733   2736     1   0.10969 276646.080000
   2738   2748     1   0.10969 276646.080000
   2738   2749     1   0.10969 276646.080000
   2739   2740     1   0.10969 276646.080000
   2739   2742     1   0.10969 276646.080000
   2741   2743     1   0.10969 276646.080000
   2741   2744     1   0.10969 276646.080000
   2750   2751     1   0.10969 276646.080000
   2750   2752     1   0.10969 276646.080000
   2756   2757     1   0.10129 337397.760000
   2758   2759     1   0.10969 276646.080000
   2758   2761     1   0.10969 276646.080000
   2760   2762     1   0.10969 276646.080000
   2760   2763     1   0.10969 276646.080000
   2765   2775     1   0.10969 276646.080000
   2765   2776     1   0.10969 276646.080000
   2766   2767     1   0.10969 276646.080000
   2766   2769     1   0.10969 276646.080000
   2768   2770     1   0.10969 276646.080000
   2768   2771     1   0.10969 276646.080000
   2777   2778     1   0.10969 276646.080000
   2777   2779     1   0.10969 276646.080000
   2783   2784     1   0.10129 337397.760000
   2785   2786     1   0.10969 276646.080000
   2785   2788     1   0.10969 276646.080000
   2787   2789     1   0.10969 276646.080000
   2787   2790     1   0.10969 276646.080000
   2792   2802     1   0.10969 276646.080000
   2792   2803     1   0.10969 276646.080000
   2793   2794     1   0.10969 276646.080000
   2793   2796     1   0.10969 276646.080000
   2795   2797     1   0.10969 276646.080000
   2795   2798     1   0.10969 276646.080000
   2804   2805     1   0.10969 276646.080000
   2804   2806     1   0.10969 276646.080000
   2810   2811     1   0.10129 337397.760000
   2812   2813     1   0.10969 276646.080000
   2812   2815     1   0.10969 276646.080000
   2814   2816     1   0.10969 276646.080000
   2814   2817     1   0.10969 276646.080000
   2819   2829     1   0.10969 276646.080000
   2819   2830     1   0.10969 276646.080000
   2820   2821     1   0.10969 276646.080000
   2820   2823     1   0.10969 276646.080000
   2822   2824     1   0.10969 276646.080000
   2822   2825     1   0.10969 276646.080000
   2831   2832     1   0.10969 276646.080000
   2831   2833     1   0.10969 276646.080000
   2837   2838     1   0.10129 337397.760000
   2839   2840     1   0.10969 276646.080000
   2839   2842     1   0.10969 276646.080000
   2841   2843     1   0.10969 276646.080000
   2841   2844     1   0.10969 276646.080000
   2846   2856     1   0.10969 276646.080000
   2846   2857     1   0.10969 276646.080000
   2847   2848     1   0.10969 276646.080000
   2847   2850     1   0.10969 276646.080000
   2849   2851     1   0.10969 276646.080000
   2849   2852     1   0.10969 276646.080000
   2858   2859     1   0.10969 276646.080000
   2858   2860     1   0.10969 276646.080000
   2864   2865     1   0.10129 337397.760000
   2866   2867     1   0.10969 276646.080000
   2866   2869     1   0.10969 276646.080000
   2868   2870     1   0.10969 276646.080000
   2868   2871     1   0.10969 276646.080000
   2873   2883     1   0.10969 276646.080000
   2873   2884     1   0.10969 276646.080000
   2874   2875     1   0.10969 276646.080000
   2874   2877     1   0.10969 276646.080000
   2876   2878     1   0.10969 276646.080000
   2876   2879     1   0.10969 276646.080000
   2885   2886     1   0.10969 276646.080000
   2885   2887     1   0.10969 276646.080000
   2891   2892     1   0.10129 337397.760000
   2893   2894     1   0.10969 276646.080000
   2893   2896     1   0.10969 276646.080000
   2895   2897     1   0.10969 276646.080000
   2895   2898     1   0.10969 276646.080000
   2900   2910     1   0.10969 276646.080000
   2900   2911     1   0.10969 276646.080000
   2901   2902     1   0.10969 276646.080000
   2901   2904     1   0.10969 276646.080000
   2903   2905     1   0.10969 276646.080000
   2903   2906     1   0.10969 276646.080000
   2912   2913     1   0.10969 276646.080000
   2912   2914     1   0.10969 276646.080000
   2918   2919     1   0.10129 337397.760000
   2920   2921     1   0.10969 276646.080000
   2920   2923     1   0.10969 276646.080000
   2922   2924     1   0.10969 276646.080000
   2922   2925     1   0.10969 276646.080000
   2927   2937     1   0.10969 276646.080000
   2927   2938     1   0.10969 276646.080000
   2928   2929     1   0.10969 276646.080000
   2928   2931     1   0.10969 276646.080000
   2930   2932     1   0.10969 276646.080000
   2930   2933     1   0.10969 276646.080000
   2939   2940     1   0.10969 276646.080000
   2939   2941     1   0.10969 276646.080000
   2945   2946     1   0.10129 337397.760000
   2947   2948     1   0.10969 276646.080000
   2947   2950     1   0.10969 276646.080000
   2949   2951     1   0.10969 276646.080000
   2949   2952     1   0.10969 276646.080000
   2954   2964     1   0.10969 276646.080000
   2954   2965     1   0.10969 276646.080000
   2955   2956     1   0.10969 276646.080000
   2955   2958     1   0.10969 276646.080000
   2957   2959     1   0.10969 276646.080000
   2957   2960     1   0.10969 276646.080000
   2966   2967     1   0.10969 276646.080000
   2966   2968     1   0.10969 276646.080000
   2972   2973     1   0.10129 337397.760000
   2974   2975     1   0.10969 276646.080000
   2974   2977     1   0.10969 276646.080000
   2976   2978     1   0.10969 276646.080000
   2976   2979     1   0.10969 276646.080000
   2981   2991     1   0.10969 276646.080000
   2981   2992     1   0.10969 276646.080000
   2982   2983     1   0.10969 276646.080000
   2982   2985     1   0.10969 276646.080000
   2984   2986     1   0.10969 276646.080000
   2984   2987     1   0.10969 276646.080000
   2993   2994     1   0.10969 276646.080000
   2993   2995     1   0.10969 276646.080000
   2999   3000     1   0.10129 337397.760000
   3001   3002     1   0.10969 276646.080000
   3001   3004     1   0.10969 276646.080000
   3003   3005     1   0.10969 276646.080000
   3003   3006     1   0.10969 276646.080000
   3008   3018     1   0.10969 276646.080000
   3008   3019     1   0.10969 276646.080000
   3009   3010     1   0.10969 276646.080000
   3009   3012     1   0.10969 276646.080000
   3011   3013     1   0.10969 276646.080000
   3011   3014     1   0.10969 276646.080000
   3020   3021     1   0.10969 276646.080000
   3020   3022     1   0.10969 276646.080000
   3026   3027     1   0.10129 337397.760000
   3028   3029     1   0.10969 276646.080000
   3028   3031     1   0.10969 276646.080000
   3030   3032     1   0.10969 276646.080000
   3030   3033     1   0.10969 276646.080000
   3035   3045     1   0.10969 276646.080000
   3035   3046     1   0.10969 276646.080000
   3036   3037     1   0.10969 276646.080000
   3036   3039     1   0.10969 276646.080000
   3038   3040     1   0.10969 276646.080000
   3038   3041     1   0.10969 276646.080000
   3047   3048     1   0.10969 276646.080000
   3047   3049     1   0.10969 276646.080000
   3053   3054     1   0.10129 337397.760000
   3055   3056     1   0.10969 276646.080000
   3055   3058     1   0.10969 276646.080000
   3057   3059     1   0.10969 276646.080000
   3057   3060     1   0.10969 276646.080000
   3062   3072     1   0.10969 276646.080000
   3062   3073     1   0.10969 276646.080000
   3063   3064     1   0.10969 276646.080000
   3063   3066     1   0.10969 276646.080000
   3065   3067     1   0.10969 276646.080000
   3065   3068     1   0.10969 276646.080000
   3074   3075     1   0.10969 276646.080000
   3074   3076     1   0.10969 276646.080000
   3080   3081     1   0.10129 337397.760000
   3082   3083     1   0.10969 276646.080000
   3082   3085     1   0.10969 276646.080000
   3084   3086     1   0.10969 276646.080000
   3084   3087     1   0.10969 276646.080000
   3089   3099     1   0.10969 276646.080000
   3089   3100     1   0.10969 276646.080000
   3090   3091     1   0.10969 276646.080000
   3090   3093     1   0.10969 276646.080000
   3092   3094     1   0.10969 276646.080000
   3092   3095     1   0.10969 276646.080000
   3101   3102     1   0.10969 276646.080000
   3101   3103     1   0.10969 276646.080000
   3107   3108     1   0.10129 337397.760000
   3109   3110     1   0.10969 276646.080000
   3109   3112     1   0.10969 276646.080000
   3111   3113     1   0.10969 276646.080000
   3111   3114     1   0.10969 276646.080000
   3116   3126     1   0.10969 276646.080000
   3116   3127     1   0.10969 276646.080000
   3117   3118     1   0.10969 276646.080000
   3117   3120     1   0.10969 276646.080000
   3119   3121     1   0.10969 276646.080000
   3119   3122     1   0.10969 276646.080000
   3128   3129     1   0.10969 276646.080000
   3128   3130     1   0.10969 276646.080000
   3134   3135     1   0.10129 337397.760000
   3136   3137     1   0.10969 276646.080000
   3136   3139     1   0.10969 276646.080000
   3138   3140     1   0.10969 276646.080000
   3138   3141     1   0.10969 276646.080000
   3143   3153     1   0.10969 276646.080000
   3143   3154     1   0.10969 276646.080000
   3144   3145     1   0.10969 276646.080000
   3144   3147     1   0.10969 276646.080000
   3146   3148     1   0.10969 276646.080000
   3146   3149     1   0.10969 276646.080000
   3155   3156     1   0.10969 276646.080000
   3155   3157     1   0.10969 276646.080000
   3161   3162     1   0.10129 337397.760000
   3163   3164     1   0.10969 276646.080000
   3163   3166     1   0.10969 276646.080000
   3165   3167     1   0.10969 276646.080000
   3165   3168     1   0.10969 276646.080000
   3170   3180     1   0.10969 276646.080000
   3170   3181     1   0.10969 276646.080000
   3171   3172     1   0.10969 276646.080000
   3171   3174     1   0.10969 276646.080000
   3173   3175     1   0.10969 276646.080000
   3173   3176     1   0.10969 276646.080000
   3182   3183     1   0.10969 276646.080000
   3182   3184     1   0.10969 276646.080000
   3188   3189     1   0.10129 337397.760000
   3190   3191     1   0.10969 276646.080000
   3190   3193     1   0.10969 276646.080000
   3192   3194     1   0.10969 276646.080000
   3192   3195     1   0.10969 276646.080000
   3197   3207     1   0.10969 276646.080000
   3197   3208     1   0.10969 276646.080000
   3198   3199     1   0.10969 276646.080000
   3198   3201     1   0.10969 276646.080000
   3200   3202     1   0.10969 276646.080000
   3200   3203     1   0.10969 276646.080000
   3209   3210     1   0.10969 276646.080000
   3209   3211     1   0.10969 276646.080000
   3215   3216     1   0.10129 337397.760000
   3217   3218     1   0.10969 276646.080000
   3217   3220     1   0.10969 276646.080000
   3219   3221     1   0.10969 276646.080000
   3219   3222     1   0.10969 276646.080000
   3224   3234     1   0.10969 276646.080000
   3224   3235     1   0.10969 276646.080000
   3225   3226     1   0.10969 276646.080000
   3225   3228     1   0.10969 276646.080000
   3227   3229     1   0.10969 276646.080000
   3227   3230     1   0.10969 276646.080000
   3236   3237     1   0.10969 276646.080000
   3236   3238     1   0.10969 276646.080000
   3242   3243     1   0.10129 337397.760000
   3244   3245     1   0.10969 276646.080000
   3244   3247     1   0.10969 276646.080000
   3246   3248     1   0.10969 276646.080000
   3246   3249     1   0.10969 276646.080000
   3251   3261     1   0.10969 276646.080000
   3251   3262     1   0.10969 276646.080000
   3252   3253     1   0.10969 276646.080000
   3252   3255     1   0.10969 276646.080000
   3254   3256     1   0.10969 276646.080000
   3254   3257     1   0.10969 276646.080000
   3263   3264     1   0.10969 276646.080000
   3263   3265     1   0.10969 276646.080000

[ pairs ]
;    ai     aj funct         c0         c1         c2         c3
      1     15     1
      1     18     1
      1     30     1
      1     27     1
      4      9     1
      4     12     1
      4     21     1
      4     24     1
      8      7     1
      7     35     1
      7     36     1
      8     34     1
      8     33     1
      9     27     1
      9     40     1
      9     89     1
     12     30     1
     12     37     1
     12     64     1
     15     24     1
     15     38     1
     15    114     1
     18     21     1
     18     39     1
     18    139     1
     21     94     1
     24    119     1
     27     44     1
     30     69     1
     33     41     1
     34     66     1
     35     91     1
     36    116     1
     37     44     1
     38     94     1
     39    119     1
     40     69     1
     41     57     1
     41     54     1
     44     48     1
     44     51     1
     47     64     1
     47     61     1
     47     60     1
     48     54     1
     48     63     1
     48    189     1
     51     57     1
     51     62     1
     51    164     1
     54    144     1
     57    169     1
     60    141     1
     61    166     1
     62    144     1
     63    169     1
     66     82     1
     66     79     1
     69     73     1
     69     76     1
     72     89     1
     72     86     1
     72     85     1
     73     79     1
     73     88     1
     73    239     1
     76     82     1
     76     87     1
     76    214     1
     79    194     1
     82    219     1
     85    191     1
     86    216     1
     87    194     1
     88    219     1
     91    107     1
     91    104     1
     94     98     1
     94    101     1
     97    114     1
     97    111     1
     97    110     1
     98    104     1
     98    113     1
     98    289     1
    101    107     1
    101    112     1
    101    264     1
    104    244     1
    107    269     1
    110    241     1
    111    266     1
    112    244     1
    113    269     1
    116    132     1
    116    129     1
    119    123     1
    119    126     1
    122    139     1
    122    136     1
    122    135     1
    123    129     1
    123    138     1
    123    339     1
    126    132     1
    126    137     1
    126    314     1
    129    294     1
    132    319     1
    135    291     1
    136    316     1
    137    294     1
    138    319     1
    141    157     1
    141    154     1
    144    148     1
    144    151     1
    147    164     1
    147    161     1
    147    160     1
    148    154     1
    148    163     1
    148    389     1
    151    157     1
    151    162     1
    151    364     1
    154    344     1
    157    369     1
    160    341     1
    161    366     1
    162    344     1
    163    369     1
    166    182     1
    166    179     1
    169    173     1
    169    176     1
    172    189     1
    172    186     1
    172    185     1
    173    179     1
    173    188     1
    173    439     1
    176    182     1
    176    187     1
    176    414     1
    179    394     1
    182    419     1
    185    391     1
    186    416     1
    187    394     1
    188    419     1
    191    207     1
    191    204     1
    194    198     1
    194    201     1
    197    214     1
    197    211     1
    197    210     1
    198    204     1
    198    213     1
    198    489     1
    201    207     1
    201    212     1
    201    464     1
    204    444     1
    207    469     1
    210    441     1
    211    466     1
    212    444     1
    213    469     1
    216    232     1
    216    229     1
    219    223     1
    219    226     1
    222    239     1
    222    236     1
    222    235     1
    223    229     1
    223    238     1
    223    539     1
    226    232     1
    226    237     1
    226    514     1
    229    494     1
    232    519     1
    235    491     1
    236    516     1
    237    494     1
    238    519     1
    241    257     1
    241    254     1
    244    248     1
    244    251     1
    247    264     1
    247    261     1
    247    260     1
    248    254     1
    248    263     1
    248    589     1
    251    257     1
    251    262     1
    251    564     1
    254    544     1
    257    569     1
    260    541     1
    261    566     1
    262    544     1
    263    569     1
    266    282     1
    266    279     1
    269    273     1
    269    276     1
    272    289     1
    272    286     1
    272    285     1
    273    279     1
    273    288     1
    273    639     1
    276    282     1
    276    287     1
    276    614     1
    279    594     1
    282    619     1
    285    591     1
    286    616     1
    287    594     1
    288    619     1
    291    307     1
    291    304     1
    294    298     1
    294    301     1
    297    314     1
    297    311     1
    297    310     1
    298    304     1
    298    313     1
    298    689     1
    301    307     1
    301    312     1
    301    664     1
    304    644     1
    307    669     1
    310    641     1
    311    666     1
    312    644     1
    313    669     1
    316    332     1
    316    329     1
    319    323     1
    319    326     1
    322    339     1
    322    336     1
    322    335     1
    323    329     1
    323    338     1
    323    739     1
    326    332     1
    326    337     1
    326    714     1
    329    694     1
    332    719     1
    335    691     1
    336    716     1
    337    694     1
    338    719     1
    341    357     1
    341    354     1
    344    348     1
    344    351     1
    347    364     1
    347    361     1
    347    360     1
    348    354     1
    348    363     1
    348    789     1
    351    357     1
    351    362     1
    351    764     1
    354    744     1
    357    769     1
    360    741     1
    361    766     1
    362    744     1
    363    769     1
    366    382     1
    366    379     1
    369    373     1
    369    376     1
    372    389     1
    372    386     1
    372    385     1
    373    379     1
    373    388     1
    373    839     1
    376    382     1
    376    387     1
    376    814     1
    379    794     1
    382    819     1
    385    791     1
    386    816     1
    387    794     1
    388    819     1
    391    407     1
    391    404     1
    394    398     1
    394    401     1
    397    414     1
    397    411     1
    397    410     1
    398    404     1
    398    413     1
    398    889     1
    401    407     1
    401    412     1
    401    864     1
    404    844     1
    407    869     1
    410    841     1
    411    866     1
    412    844     1
    413    869     1
    416    432     1
    416    429     1
    419    423     1
    419    426     1
    422    439     1
    422    436     1
    422    435     1
    423    429     1
    423    438     1
    423    939     1
    426    432     1
    426    437     1
    426    914     1
    429    894     1
    432    919     1
    435    891     1
    436    916     1
    437    894     1
    438    919     1
    441    457     1
    441    454     1
    444    448     1
    444    451     1
    447    464     1
    447    461     1
    447    460     1
    448    454     1
    448    463     1
    448    989     1
    451    457     1
    451    462     1
    451    964     1
    454    944     1
    457    969     1
    460    941     1
    461    966     1
    462    944     1
    463    969     1
    466    482     1
    466    479     1
    469    473     1
    469    476     1
    472    489     1
    472    486     1
    472    485     1
    473    479     1
    473    488     1
    473   1039     1
    476    482     1
    476    487     1
    476   1014     1
    479    994     1
    482   1019     1
    485    991     1
    486   1016     1
    487    994     1
    488   1019     1
    491    507     1
    491    504     1
    494    498     1
    494    501     1
    497    514     1
    497    511     1
    497    510     1
    498    504     1
    498    513     1
    498   1089     1
    501    507     1
    501    512     1
    501   1064     1
    504   1044     1
    507   1069     1
    510   1041     1
    511   1066     1
    512   1044     1
    513   1069     1
    516    532     1
    516    529     1
    519    523     1
    519    526     1
    522    539     1
    522    536     1
    522    535     1
    523    529     1
    523    538     1
    523   1139     1
    526    532     1
    526    537     1
    526   1114     1
    529   1094     1
    532   1119     1
    535   1091     1
    536   1116     1
    537   1094     1
    538   1119     1
    541    557     1
    541    554     1
    544    548     1
    544    551     1
    547    564     1
    547    561     1
    547    560     1
    548    554     1
    548    563     1
    548   1189     1
    551    557     1
    551    562     1
    551   1164     1
    554   1144     1
    557   1169     1
    560   1141     1
    561   1166     1
    562   1144     1
    563   1169     1
    566    582     1
    566    579     1
    569    573     1
    569    576     1
    572    589     1
    572    586     1
    572    585     1
    573    579     1
    573    588     1
    573   1239     1
    576    582     1
    576    587     1
    576   1214     1
    579   1194     1
    582   1219     1
    585   1191     1
    586   1216     1
    587   1194     1
    588   1219     1
    591    607     1
    591    604     1
    594    598     1
    594    601     1
    597    614     1
    597    611     1
    597    610     1
    598    604     1
    598    613     1
    598   1289     1
    601    607     1
    601    612     1
    601   1264     1
    604   1244     1
    607   1269     1
    610   1241     1
    611   1266     1
    612   1244     1
    613   1269     1
    616    632     1
    616    629     1
    619    623     1
    619    626     1
    622    639     1
    622    636     1
    622    635     1
    623    629     1
    623    638     1
    623   1339     1
    626    632     1
    626    637     1
    626   1314     1
    629   1294     1
    632   1319     1
    635   1291     1
    636   1316     1
    637   1294     1
    638   1319     1
    641    657     1
    641    654     1
    644    648     1
    644    651     1
    647    664     1
    647    661     1
    647    660     1
    648    654     1
    648    663     1
    648   1389     1
    651    657     1
    651    662     1
    651   1364     1
    654   1344     1
    657   1369     1
    660   1341     1
    661   1366     1
    662   1344     1
    663   1369     1
    666    682     1
    666    679     1
    669    673     1
    669    676     1
    672    689     1
    672    686     1
    672    685     1
    673    679     1
    673    688     1
    673   1439     1
    676    682     1
    676    687     1
    676   1414     1
    679   1394     1
    682   1419     1
    685   1391     1
    686   1416     1
    687   1394     1
    688   1419     1
    691    707     1
    691    704     1
    694    698     1
    694    701     1
    697    714     1
    697    711     1
    697    710     1
    698    704     1
    698    713     1
    698   1489     1
    701    707     1
    701    712     1
    701   1464     1
    704   1444     1
    707   1469     1
    710   1441     1
    711   1466     1
    712   1444     1
    713   1469     1
    716    732     1
    716    729     1
    719    723     1
    719    726     1
    722    739     1
    722    736     1
    722    735     1
    723    729     1
    723    738     1
    723   1539     1
    726    732     1
    726    737     1
    726   1514     1
    729   1494     1
    732   1519     1
    735   1491     1
    736   1516     1
    737   1494     1
    738   1519     1
    741    757     1
    741    754     1
    744    748     1
    744    751     1
    747    764     1
    747    761     1
    747    760     1
    748    754     1
    748    763     1
    748   1568     1
    751    757     1
    751   1541     1
    751    762     1
    754   1543     1
    757   1570     1
    760   1545     1
    761   1572     1
    762   1543     1
    763   1570     1
    766    782     1
    766    779     1
    769    773     1
    769    776     1
    772    789     1
    772    786     1
    772    785     1
    773    779     1
    773    788     1
    773   1622     1
    776    782     1
    776   1595     1
    776    787     1
    779   1597     1
    782   1624     1
    785   1599     1
    786   1626     1
    787   1597     1
    788   1624     1
    791    807     1
    791    804     1
    794    798     1
    794    801     1
    797    814     1
    797    811     1
    797    810     1
    798    804     1
    798    813     1
    798   1676     1
    801    807     1
    801   1649     1
    801    812     1
    804   1651     1
    807   1678     1
    810   1653     1
    811   1680     1
    812   1651     1
    813   1678     1
    816    832     1
    816    829     1
    819    823     1
    819    826     1
    822    839     1
    822    836     1
    822    835     1
    823    829     1
    823    838     1
    823   1730     1
    826    832     1
    826   1703     1
    826    837     1
    829   1705     1
    832   1732     1
    835   1707     1
    836   1734     1
    837   1705     1
    838   1732     1
    841    857     1
    841    854     1
    844    848     1
    844    851     1
    847    864     1
    847    861     1
    847    860     1
    848    854     1
    848    863     1
    848   1784     1
    851    857     1
    851   1757     1
    851    862     1
    854   1759     1
    857   1786     1
    860   1761     1
    861   1788     1
    862   1759     1
    863   1786     1
    866    882     1
    866    879     1
    869    873     1
    869    876     1
    872    889     1
    872    886     1
    872    885     1
    873    879     1
    873    888     1
    873   1838     1
    876    882     1
    876   1811     1
    876    887     1
    879   1813     1
    882   1840     1
    885   1815     1
    886   1842     1
    887   1813     1
    888   1840     1
    891    907     1
    891    904     1
    894    898     1
    894    901     1
    897    914     1
    897    911     1
    897    910     1
    898    904     1
    898    913     1
    898   1892     1
    901    907     1
    901   1865     1
    901    912     1
    904   1867     1
    907   1894     1
    910   1869     1
    911   1896     1
    912   1867     1
    913   1894     1
    916    932     1
    916    929     1
    919    923     1
    919    926     1
    922    939     1
    922    936     1
    922    935     1
    923    929     1
    923    938     1
    923   1946     1
    926    932     1
    926   1919     1
    926    937     1
    929   1921     1
    932   1948     1
    935   1923     1
    936   1950     1
    937   1921     1
    938   1948     1
    941    957     1
    941    954     1
    944    948     1
    944    951     1
    947    964     1
    947    961     1
    947    960     1
    948    954     1
    948    963     1
    948   2000     1
    951    957     1
    951   1973     1
    951    962     1
    954   1975     1
    957   2002     1
    960   1977     1
    961   2004     1
    962   1975     1
    963   2002     1
    966    982     1
    966    979     1
    969    973     1
    969    976     1
    972    989     1
    972    986     1
    972    985     1
    973    979     1
    973    988     1
    973   2054     1
    976    982     1
    976   2027     1
    976    987     1
    979   2029     1
    982   2056     1
    985   2031     1
    986   2058     1
    987   2029     1
    988   2056     1
    991   1007     1
    991   1004     1
    994    998     1
    994   1001     1
    997   1014     1
    997   1011     1
    997   1010     1
    998   1004     1
    998   1013     1
    998   2108     1
   1001   1007     1
   1001   2081     1
   1001   1012     1
   1004   2083     1
   1007   2110     1
   1010   2085     1
   1011   2112     1
   1012   2083     1
   1013   2110     1
   1016   1032     1
   1016   1029     1
   1019   1023     1
   1019   1026     1
   1022   1039     1
   1022   1036     1
   1022   1035     1
   1023   1029     1
   1023   1038     1
   1023   2162     1
   1026   1032     1
   1026   2135     1
   1026   1037     1
   1029   2137     1
   1032   2164     1
   1035   2139     1
   1036   2166     1
   1037   2137     1
   1038   2164     1
   1041   1057     1
   1041   1054     1
   1044   1048     1
   1044   1051     1
   1047   1064     1
   1047   1061     1
   1047   1060     1
   1048   1054     1
   1048   1063     1
   1048   2216     1
   1051   1057     1
   1051   2189     1
   1051   1062     1
   1054   2191     1
   1057   2218     1
   1060   2193     1
   1061   2220     1
   1062   2191     1
   1063   2218     1
   1066   1082     1
   1066   1079     1
   1069   1073     1
   1069   1076     1
   1072   1089     1
   1072   1086     1
   1072   1085     1
   1073   1079     1
   1073   1088     1
   1073   2270     1
   1076   1082     1
   1076   2243     1
   1076   1087     1
   1079   2245     1
   1082   2272     1
   1085   2247     1
   1086   2274     1
   1087   2245     1
   1088   2272     1
   1091   1107     1
   1091   1104     1
   1094   1098     1
   1094   1101     1
   1097   1114     1
   1097   1111     1
   1097   1110     1
   1098   1104     1
   1098   1113     1
   1098   2324     1
   1101   1107     1
   1101   2297     1
   1101   1112     1
   1104   2299     1
   1107   2326     1
   1110   2301     1
   1111   2328     1
   1112   2299     1
   1113   2326     1
   1116   1132     1
   1116   1129     1
   1119   1123     1
   1119   1126     1
   1122   1139     1
   1122   1136     1
   1122   1135     1
   1123   1129     1
   1123   1138     1
   1123   2378     1
   1126   1132     1
   1126   2351     1
   1126   1137     1
   1129   2353     1
   1132   2380     1
   1135   2355     1
   1136   2382     1
   1137   2353     1
   1138   2380     1
   1141   1157     1
   1141   1154     1
   1144   1148     1
   1144   1151     1
   1147   1164     1
   1147   1161     1
   1147   1160     1
   1148   1154     1
   1148   1163     1
   1148   2432     1
   1151   1157     1
   1151   2405     1
   1151   1162     1
   1154   2407     1
   1157   2434     1
   1160   2409     1
   1161   2436     1
   1162   2407     1
   1163   2434     1
   1166   1182     1
   1166   1179     1
   1169   1173     1
   1169   1176     1
   1172   1189     1
   1172   1186     1
   1172   1185     1
   1173   1179     1
   1173   1188     1
   1173   2486     1
   1176   1182     1
   1176   2459     1
   1176   1187     1
   1179   2461     1
   1182   2488     1
   1185   2463     1
   1186   2490     1
   1187   2461     1
   1188   2488     1
   1191   1207     1
   1191   1204     1
   1194   1198     1
   1194   1201     1
   1197   1214     1
   1197   1211     1
   1197   1210     1
   1198   1204     1
   1198   1213     1
   1198   2540     1
   1201   1207     1
   1201   2513     1
   1201   1212     1
   1204   2515     1
   1207   2542     1
   1210   2517     1
   1211   2544     1
   1212   2515     1
   1213   2542     1
   1216   1232     1
   1216   1229     1
   1219   1223     1
   1219   1226     1
   1222   1239     1
   1222   1236     1
   1222   1235     1
   1223   1229     1
   1223   1238     1
   1223   2594     1
   1226   1232     1
   1226   2567     1
   1226   1237     1
   1229   2569     1
   1232   2596     1
   1235   2571     1
   1236   2598     1
   1237   2569     1
   1238   2596     1
   1241   1257     1
   1241   1254     1
   1244   1248     1
   1244   1251     1
   1247   1264     1
   1247   1261     1
   1247   1260     1
   1248   1254     1
   1248   1263     1
   1248   2648     1
   1251   1257     1
   1251   2621     1
   1251   1262     1
   1254   2623     1
   1257   2650     1
   1260   2625     1
   1261   2652     1
   1262   2623     1
   1263   2650     1
   1266   1282     1
   1266   1279     1
   1269   1273     1
   1269   1276     1
   1272   1289     1
   1272   1286     1
   1272   1285     1
   1273   1279     1
   1273   1288     1
   1273   2702     1
   1276   1282     1
   1276   2675     1
   1276   1287     1
   1279   2677     1
   1282   2704     1
   1285   2679     1
   1286   2706     1
   1287   2677     1
   1288   2704     1
   1291   1307     1
   1291   1304     1
   1294   1298     1
   1294   1301     1
   1297   1314     1
   1297   1311     1
   1297   1310     1
   1298   1304     1
   1298   1313     1
   1298   2756     1
   1301   1307     1
   1301   2729     1
   1301   1312     1
   1304   2731     1
   1307   2758     1
   1310   2733     1
   1311   2760     1
   1312   2731     1
   1313   2758     1
   1316   1332     1
   1316   1329     1
   1319   1323     1
   1319   1326     1
   1322   1339     1
   1322   1336     1
   1322   1335     1
   1323   1329     1
   1323   1338     1
   1323   2810     1
   1326   1332     1
   1326   2783     1
   1326   1337     1
   1329   2785     1
   1332   2812     1
   1335   2787     1
   1336   2814     1
   1337   2785     1
   1338   2812     1
   1341   1357     1
   1341   1354     1
   1344   1348     1
   1344   1351     1
   1347   1364     1
   1347   1361     1
   1347   1360     1
   1348   1354     1
   1348   1363     1
   1348   2864     1
   1351   1357     1
   1351   2837     1
   1351   1362     1
   1354   2839     1
   1357   2866     1
   1360   2841     1
   1361   2868     1
   1362   2839     1
   1363   2866     1
   1366   1382     1
   1366   1379     1
   1369   1373     1
   1369   1376     1
   1372   1389     1
   1372   1386     1
   1372   1385     1
   1373   1379     1
   1373   1388     1
   1373   2918     1
   1376   1382     1
   1376   2891     1
   1376   1387     1
   1379   2893     1
   1382   2920     1
   1385   2895     1
   1386   2922     1
   1387   2893     1
   1388   2920     1
   1391   1407     1
   1391   1404     1
   1394   1398     1
   1394   1401     1
   1397   1414     1
   1397   1411     1
   1397   1410     1
   1398   1404     1
   1398   1413     1
   1398   2972     1
   1401   1407     1
   1401   2945     1
   1401   1412     1
   1404   2947     1
   1407   2974     1
   1410   2949     1
   1411   2976     1
   1412   2947     1
   1413   2974     1
   1416   1432     1
   1416   1429     1
   1419   1423     1
   1419   1426     1
   1422   1439     1
   1422   1436     1
   1422   1435     1
   1423   1429     1
   1423   1438     1
   1423   3026     1
   1426   1432     1
   1426   2999     1
   1426   1437     1
   1429   3001     1
   1432   3028     1
   1435   3003     1
   1436   3030     1
   1437   3001     1
   1438   3028     1
   1441   1457     1
   1441   1454     1
   1444   1448     1
   1444   1451     1
   1447   1464     1
   1447   1461     1
   1447   1460     1
   1448   1454     1
   1448   1463     1
   1448   3080     1
   1451   1457     1
   1451   3053     1
   1451   1462     1
   1454   3055     1
   1457   3082     1
   1460   3057     1
   1461   3084     1
   1462   3055     1
   1463   3082     1
   1466   1482     1
   1466   1479     1
   1469   1473     1
   1469   1476     1
   1472   1489     1
   1472   1486     1
   1472   1485     1
   1473   1479     1
   1473   1488     1
   1473   3134     1
   1476   1482     1
   1476   3107     1
   1476   1487     1
   1479   3109     1
   1482   3136     1
   1485   3111     1
   1486   3138     1
   1487   3109     1
   1488   3136     1
   1491   1507     1
   1491   1504     1
   1494   1498     1
   1494   1501     1
   1497   1514     1
   1497   1511     1
   1497   1510     1
   1498   1504     1
   1498   1513     1
   1498   3188     1
   1501   1507     1
   1501   3161     1
   1501   1512     1
   1504   3163     1
   1507   3190     1
   1510   3165     1
   1511   3192     1
   1512   3163     1
   1513   3190     1
   1516   1532     1
   1516   1529     1
   1519   1523     1
   1519   1526     1
   1522   1539     1
   1522   1536     1
   1522   1535     1
   1523   1529     1
   1523   3242     1
   1523   1538     1
   1526   1532     1
   1526   3215     1
   1526   1537     1
   1529   3217     1
   1532   3244     1
   1535   3219     1
   1536   3246     1
   1537   3217     1
   1538   3244     1
   1541   1549     1
   1543   1550     1
   1543   1551     1
   1545   1562     1
   1545   1553     1
   1549   1565     1
   1549   1557     1
   1550   1553     1
   1550   1566     1
   1550   1567     1
   1551   1562     1
   1551   1558     1
   1551   1559     1
   1568   1576     1
   1570   1577     1
   1570   1578     1
   1572   1589     1
   1572   1580     1
   1576   1592     1
   1576   1584     1
   1577   1593     1
   1577   1594     1
   1577   1580     1
   1578   1585     1
   1578   1586     1
   1578   1589     1
   1595   1603     1
   1597   1604     1
   1597   1605     1
   1599   1616     1
   1599   1607     1
   1603   1619     1
   1603   1611     1
   1604   1607     1
   1604   1620     1
   1604   1621     1
   1605   1616     1
   1605   1612     1
   1605   1613     1
   1622   1630     1
   1624   1631     1
   1624   1632     1
   1626   1643     1
   1626   1634     1
   1630   1646     1
   1630   1638     1
   1631   1647     1
   1631   1648     1
   1631   1634     1
   1632   1639     1
   1632   1640     1
   1632   1643     1
   1649   1657     1
   1651   1658     1
   1651   1659     1
   1653   1670     1
   1653   1661     1
   1657   1673     1
   1657   1665     1
   1658   1661     1
   1658   1674     1
   1658   1675     1
   1659   1670     1
   1659   1666     1
   1659   1667     1
   1676   1684     1
   1678   1685     1
   1678   1686     1
   1680   1697     1
   1680   1688     1
   1684   1700     1
   1684   1692     1
   1685   1701     1
   1685   1702     1
   1685   1688     1
   1686   1693     1
   1686   1694     1
   1686   1697     1
   1703   1711     1
   1705   1712     1
   1705   1713     1
   1707   1724     1
   1707   1715     1
   1711   1727     1
   1711   1719     1
   1712   1715     1
   1712   1728     1
   1712   1729     1
   1713   1724     1
   1713   1720     1
   1713   1721     1
   1730   1738     1
   1732   1739     1
   1732   1740     1
   1734   1751     1
   1734   1742     1
   1738   1754     1
   1738   1746     1
   1739   1755     1
   1739   1756     1
   1739   1742     1
   1740   1747     1
   1740   1748     1
   1740   1751     1
   1757   1765     1
   1759   1766     1
   1759   1767     1
   1761   1778     1
   1761   1769     1
   1765   1781     1
   1765   1773     1
   1766   1769     1
   1766   1782     1
   1766   1783     1
   1767   1778     1
   1767   1774     1
   1767   1775     1
   1784   1792     1
   1786   1793     1
   1786   1794     1
   1788   1805     1
   1788   1796     1
   1792   1808     1
   1792   1800     1
   1793   1809     1
   1793   1810     1
   1793   1796     1
   1794   1801     1
   1794   1802     1
   1794   1805     1
   1811   1819     1
   1813   1820     1
   1813   1821     1
   1815   1832     1
   1815   1823     1
   1819   1835     1
   1819   1827     1
   1820   1823     1
   1820   1836     1
   1820   1837     1
   1821   1832     1
   1821   1828     1
   1821   1829     1
   1838   1846     1
   1840   1847     1
   1840   1848     1
   1842   1859     1
   1842   1850     1
   1846   1862     1
   1846   1854     1
   1847   1863     1
   1847   1864     1
   1847   1850     1
   1848   1855     1
   1848   1856     1
   1848   1859     1
   1865   1873     1
   1867   1874     1
   1867   1875     1
   1869   1886     1
   1869   1877     1
   1873   1889     1
   1873   1881     1
   1874   1877     1
   1874   1890     1
   1874   1891     1
   1875   1886     1
   1875   1882     1
   1875   1883     1
   1892   1900     1
   1894   1901     1
   1894   1902     1
   1896   1913     1
   1896   1904     1
   1900   1916     1
   1900   1908     1
   1901   1917     1
   1901   1918     1
   1901   1904     1
   1902   1909     1
   1902   1910     1
   1902   1913     1
   1919   1927     1
   1921   1928     1
   1921   1929     1
   1923   1940     1
   1923   1931     1
   1927   1943     1
   1927   1935     1
   1928   1931     1
   1928   1944     1
   1928   1945     1
   1929   1940     1
   1929   1936     1
   1929   1937     1
   1946   1954     1
   1948   1955     1
   1948   1956     1
   1950   1967     1
   1950   1958     1
   1954   1970     1
   1954   1962     1
   1955   1971     1
   1955   1972     1
   1955   1958     1
   1956   1963     1
   1956   1964     1
   1956   1967     1
   1973   1981     1
   1975   1982     1
   1975   1983     1
   1977   1994     1
   1977   1985     1
   1981   1997     1
   1981   1989     1
   1982   1985     1
   1982   1998     1
   1982   1999     1
   1983   1994     1
   1983   1990     1
   1983   1991     1
   2000   2008     1
   2002   2009     1
   2002   2010     1
   2004   2021     1
   2004   2012     1
   2008   2024     1
   2008   2016     1
   2009   2025     1
   2009   2026     1
   2009   2012     1
   2010   2017     1
   2010   2018     1
   2010   2021     1
   2027   2035     1
   2029   2036     1
   2029   2037     1
   2031   2048     1
   2031   2039     1
   2035   2051     1
   2035   2043     1
   2036   2039     1
   2036   2052     1
   2036   2053     1
   2037   2048     1
   2037   2044     1
   2037   2045     1
   2054   2062     1
   2056   2063     1
   2056   2064     1
   2058   2075     1
   2058   2066     1
   2062   2078     1
   2062   2070     1
   2063   2079     1
   2063   2080     1
   2063   2066     1
   2064   2071     1
   2064   2072     1
   2064   2075     1
   2081   2089     1
   2083   2090     1
   2083   2091     1
   2085   2102     1
   2085   2093     1
   2089   2105     1
   2089   2097     1
   2090   2093     1
   2090   2106     1
   2090   2107     1
   2091   2102     1
   2091   2098     1
   2091   2099     1
   2108   2116     1
   2110   2117     1
   2110   2118     1
   2112   2129     1
   2112   2120     1
   2116   2132     1
   2116   2124     1
   2117   2133     1
   2117   2134     1
   2117   2120     1
   2118   2125     1
   2118   2126     1
   2118   2129     1
   2135   2143     1
   2137   2144     1
   2137   2145     1
   2139   2156     1
   2139   2147     1
   2143   2159     1
   2143   2151     1
   2144   2147     1
   2144   2160     1
   2144   2161     1
   2145   2156     1
   2145   2152     1
   2145   2153     1
   2162   2170     1
   2164   2171     1
   2164   2172     1
   2166   2183     1
   2166   2174     1
   2170   2186     1
   2170   2178     1
   2171   2187     1
   2171   2188     1
   2171   2174     1
   2172   2179     1
   2172   2180     1
   2172   2183     1
   2189   2197     1
   2191   2198     1
   2191   2199     1
   2193   2210     1
   2193   2201     1
   2197   2213     1
   2197   2205     1
   2198   2201     1
   2198   2214     1
   2198   2215     1
   2199   2210     1
   2199   2206     1
   2199   2207     1
   2216   2224     1
   2218   2225     1
   2218   2226     1
   2220   2237     1
   2220   2228     1
   2224   2240     1
   2224   2232     1
   2225   2241     1
   2225   2242     1
   2225   2228     1
   2226   2233     1
   2226   2234     1
   2226   2237     1
   2243   2251     1
   2245   2252     1
   2245   2253     1
   2247   2264     1
   2247   2255     1
   2251   2267     1
   2251   2259     1
   2252   2255     1
   2252   2268     1
   2252   2269     1
   2253   2264     1
   2253   2260     1
   2253   2261     1
   2270   2278     1
   2272   2279     1
   2272   2280     1
   2274   2291     1
   2274   2282     1
   2278   2294     1
   2278   2286     1
   2279   2295     1
   2279   2296     1
   2279   2282     1
   2280   2287     1
   2280   2288     1
   2280   2291     1
   2297   2305     1
   2299   2306     1
   2299   2307     1
   2301   2318     1
   2301   2309     1
   2305   2321     1
   2305   2313     1
   2306   2309     1
   2306   2322     1
   2306   2323     1
   2307   2318     1
   2307   2314     1
   2307   2315     1
   2324   2332     1
   2326   2333     1
   2326   2334     1
   2328   2345     1
   2328   2336     1
   2332   2348     1
   2332   2340     1
   2333   2349     1
   2333   2350     1
   2333   2336     1
   2334   2341     1
   2334   2342     1
   2334   2345     1
   2351   2359     1
   2353   2360     1
   2353   2361     1
   2355   2372     1
   2355   2363     1
   2359   2375     1
   2359   2367     1
   2360   2363     1
   2360   2376     1
   2360   2377     1
   2361   2372     1
   2361   2368     1
   2361   2369     1
   2378   2386     1
   2380   2387     1
   2380   2388     1
   2382   2399     1
   2382   2390     1
   2386   2402     1
   2386   2394     1
   2387   2403     1
   2387   2404     1
   2387   2390     1
   2388   2395     1
   2388   2396     1
   2388   2399     1
   2405   2413     1
   2407   2414     1
   2407   2415     1
   2409   2426     1
   2409   2417     1
   2413   2429     1
   2413   2421     1
   2414   2417     1
   2414   2430     1
   2414   2431     1
   2415   2426     1
   2415   2422     1
   2415   2423     1
   2432   2440     1
   2434   2441     1
   2434   2442     1
   2436   2453     1
   2436   2444     1
   2440   2456     1
   2440   2448     1
   2441   2457     1
   2441   2458     1
   2441   2444     1
   2442   2449     1
   2442   2450     1
   2442   2453     1
   2459   2467     1
   2461   2468     1
   2461   2469     1
   2463   2480     1
   2463   2471     1
   2467   2483     1
   2467   2475     1
   2468   2471     1
   2468   2484     1
   2468   2485     1
   2469   2480     1
   2469   2476     1
   2469   2477     1
   2486   2494     1
   2488   2495     1
   2488   2496     1
   2490   2507     1
   2490   2498     1
   2494   2510     1
   2494   2502     1
   2495   2511     1
   2495   2512     1
   2495   2498     1
   2496   2503     1
   2496   2504     1
   2496   2507     1
   2513   2521     1
   2515   2522     1
   2515   2523     1
   2517   2534     1
   2517   2525     1
   2521   2537     1
   2521   2529     1
   2522   2525     1
   2522   2538     1
   2522   2539     1
   2523   2534     1
   2523   2530     1
   2523   2531     1
   2540   2548     1
   2542   2549     1
   2542   2550     1
   2544   2561     1
   2544   2552     1
   2548   2564     1
   2548   2556     1
   2549   2565     1
   2549   2566     1
   2549   2552     1
   2550   2557     1
   2550   2558     1
   2550   2561     1
   2567   2575     1
   2569   2576     1
   2569   2577     1
   2571   2588     1
   2571   2579     1
   2575   2591     1
   2575   2583     1
   2576   2579     1
   2576   2592     1
   2576   2593     1
   2577   2588     1
   2577   2584     1
   2577   2585     1
   2594   2602     1
   2596   2603     1
   2596   2604     1
   2598   2615     1
   2598   2606     1
   2602   2618     1
   2602   2610     1
   2603   2619     1
   2603   2620     1
   2603   2606     1
   2604   2611     1
   2604   2612     1
   2604   2615     1
   2621   2629     1
   2623   2630     1
   2623   2631     1
   2625   2642     1
   2625   2633     1
   2629   2645     1
   2629   2637     1
   2630   2633     1
   2630   2646     1
   2630   2647     1
   2631   2642     1
   2631   2638     1
   2631   2639     1
   2648   2656     1
   2650   2657     1
   2650   2658     1
   2652   2669     1
   2652   2660     1
   2656   2672     1
   2656   2664     1
   2657   2673     1
   2657   2674     1
   2657   2660     1
   2658   2665     1
   2658   2666     1
   2658   2669     1
   2675   2683     1
   2677   2684     1
   2677   2685     1
   2679   2696     1
   2679   2687     1
   2683   2699     1
   2683   2691     1
   2684   2687     1
   2684   2700     1
   2684   2701     1
   2685   2696     1
   2685   2692     1
   2685   2693     1
   2702   2710     1
   2704   2711     1
   2704   2712     1
   2706   2723     1
   2706   2714     1
   2710   2726     1
   2710   2718     1
   2711   2727     1
   2711   2728     1
   2711   2714     1
   2712   2719     1
   2712   2720     1
   2712   2723     1
   2729   2737     1
   2731   2738     1
   2731   2739     1
   2733   2750     1
   2733   2741     1
   2737   2753     1
   2737   2745     1
   2738   2741     1
   2738   2754     1
   2738   2755     1
   2739   2750     1
   2739   2746     1
   2739   2747     1
   2756   2764     1
   2758   2765     1
   2758   2766     1
   2760   2777     1
   2760   2768     1
   2764   2780     1
   2764   2772     1
   2765   2781     1
   2765   2782     1
   2765   2768     1
   2766   2773     1
   2766   2774     1
   2766   2777     1
   2783   2791     1
   2785   2792     1
   2785   2793     1
   2787   2804     1
   2787   2795     1
   2791   2807     1
   2791   2799     1
   2792   2795     1
   2792   2808     1
   2792   2809     1
   2793   2804     1
   2793   2800     1
   2793   2801     1
   2810   2818     1
   2812   2819     1
   2812   2820     1
   2814   2831     1
   2814   2822     1
   2818   2834     1
   2818   2826     1
   2819   2835     1
   2819   2836     1
   2819   2822     1
   2820   2827     1
   2820   2828     1
   2820   2831     1
   2837   2845     1
   2839   2846     1
   2839   2847     1
   2841   2858     1
   2841   2849     1
   2845   2861     1
   2845   2853     1
   2846   2849     1
   2846   2862     1
   2846   2863     1
   2847   2858     1
   2847   2854     1
   2847   2855     1
   2864   2872     1
   2866   2873     1
   2866   2874     1
   2868   2885     1
   2868   2876     1
   2872   2888     1
   2872   2880     1
   2873   2889     1
   2873   2890     1
   2873   2876     1
   2874   2881     1
   2874   2882     1
   2874   2885     1
   2891   2899     1
   2893   2900     1
   2893   2901     1
   2895   2912     1
   2895   2903     1
   2899   2915     1
   2899   2907     1
   2900   2903     1
   2900   2916     1
   2900   2917     1
   2901   2912     1
   2901   2908     1
   2901   2909     1
   2918   2926     1
   2920   2927     1
   2920   2928     1
   2922   2939     1
   2922   2930     1
   2926   2942     1
   2926   2934     1
   2927   2943     1
   2927   2944     1
   2927   2930     1
   2928   2935     1
   2928   2936     1
   2928   2939     1
   2945   2953     1
   2947   2954     1
   2947   2955     1
   2949   2966     1
   2949   2957     1
   2953   2969     1
   2953   2961     1
   2954   2957     1
   2954   2970     1
   2954   2971     1
   2955   2966     1
   2955   2962     1
   2955   2963     1
   2972   2980     1
   2974   2981     1
   2974   2982     1
   2976   2993     1
   2976   2984     1
   2980   2996     1
   2980   2988     1
   2981   2997     1
   2981   2998     1
   2981   2984     1
   2982   2989     1
   2982   2990     1
   2982   2993     1
   2999   3007     1
   3001   3008     1
   3001   3009     1
   3003   3020     1
   3003   3011     1
   3007   3023     1
   3007   3015     1
   3008   3011     1
   3008   3024     1
   3008   3025     1
   3009   3020     1
   3009   3016     1
   3009   3017     1
   3026   3034     1
   3028   3035     1
   3028   3036     1
   3030   3047     1
   3030   3038     1
   3034   3050     1
   3034   3042     1
   3035   3051     1
   3035   3052     1
   3035   3038     1
   3036   3043     1
   3036   3044     1
   3036   3047     1
   3053   3061     1
   3055   3062     1
   3055   3063     1
   3057   3074     1
   3057   3065     1
   3061   3077     1
   3061   3069     1
   3062   3065     1
   3062   3078     1
   3062   3079     1
   3063   3074     1
   3063   3070     1
   3063   3071     1
   3080   3088     1
   3082   3089     1
   3082   3090     1
   3084   3101     1
   3084   3092     1
   3088   3104     1
   3088   3096     1
   3089   3105     1
   3089   3106     1
   3089   3092     1
   3090   3097     1
   3090   3098     1
   3090   3101     1
   3107   3115     1
   3109   3116     1
   3109   3117     1
   3111   3128     1
   3111   3119     1
   3115   3131     1
   3115   3123     1
   3116   3119     1
   3116   3132     1
   3116   3133     1
   3117   3128     1
   3117   3124     1
   3117   3125     1
   3134   3142     1
   3136   3143     1
   3136   3144     1
   3138   3155     1
   3138   3146     1
   3142   3158     1
   3142   3150     1
   3143   3159     1
   3143   3160     1
   3143   3146     1
   3144   3151     1
   3144   3152     1
   3144   3155     1
   3161   3169     1
   3163   3170     1
   3163   3171     1
   3165   3182     1
   3165   3173     1
   3169   3185     1
   3169   3177     1
   3170   3173     1
   3170   3186     1
   3170   3187     1
   3171   3182     1
   3171   3178     1
   3171   3179     1
   3188   3196     1
   3190   3197     1
   3190   3198     1
   3192   3209     1
   3192   3200     1
   3196   3212     1
   3196   3204     1
   3197   3213     1
   3197   3214     1
   3197   3200     1
   3198   3205     1
   3198   3206     1
   3198   3209     1
   3215   3223     1
   3217   3224     1
   3217   3225     1
   3219   3236     1
   3219   3227     1
   3223   3239     1
   3223   3231     1
   3224   3227     1
   3224   3240     1
   3224   3241     1
   3225   3236     1
   3225   3232     1
   3225   3233     1
   3242   3250     1
   3244   3251     1
   3244   3252     1
   3246   3263     1
   3246   3254     1
   3250   3266     1
   3250   3258     1
   3251   3267     1
   3251   3268     1
   3251   3254     1
   3252   3259     1
   3252   3260     1
   3252   3263     1
      1     10     1
      1     11     1
      1     13     1
      1     14     1
      2      7     1
      2      5     1
      2      6     1
      2      9     1
      2     12     1
      3      7     1
      3      5     1
      3      6     1
      3      9     1
      3     12     1
      4     16     1
      4     17     1
      4     19     1
      4     20     1
      8      5     1
      5     15     1
      5     18     1
      8      6     1
      6     15     1
      6     18     1
      7     22     1
      7     23     1
      7     25     1
      7     26     1
      8     31     1
      8     32     1
      8     28     1
      8     29     1
      9     13     1
      9     14     1
     10     12     1
     10     34     1
     10     31     1
     10     32     1
     11     12     1
     11     34     1
     11     31     1
     11     32     1
     13     33     1
     13     28     1
     13     29     1
     14     33     1
     14     28     1
     14     29     1
     15     19     1
     15     20     1
     16     18     1
     16     35     1
     16     22     1
     16     23     1
     17     18     1
     17     35     1
     17     22     1
     17     23     1
     19     36     1
     19     25     1
     19     26     1
     20     36     1
     20     25     1
     20     26     1
     21    115     1
     22     38     1
     22    114     1
     23     38     1
     23    114     1
     24    140     1
     25     39     1
     25    139     1
     26     39     1
     26    139     1
     27     65     1
     28     37     1
     28     64     1
     29     37     1
     29     64     1
     30     90     1
     31     40     1
     31     89     1
     32     40     1
     32     89     1
     33     45     1
     33     46     1
     34     70     1
     34     71     1
     35     95     1
     35     96     1
     36    120     1
     36    121     1
     37     65     1
     38    115     1
     39    140     1
     40     90     1
     41     65     1
     41     49     1
     41     50     1
     41     52     1
     41     53     1
     42     64     1
     42     45     1
     42     46     1
     42     48     1
     42     51     1
     43     64     1
     43     45     1
     43     46     1
     43     48     1
     43     51     1
     45     47     1
     45     65     1
     46     47     1
     46     65     1
     47     58     1
     47     59     1
     47     55     1
     47     56     1
     48     52     1
     48     53     1
     49     51     1
     49     61     1
     49     58     1
     49     59     1
     50     51     1
     50     61     1
     50     58     1
     50     59     1
     52     60     1
     52     55     1
     52     56     1
     53     60     1
     53     55     1
     53     56     1
     54    165     1
     55     62     1
     55    164     1
     56     62     1
     56    164     1
     57    190     1
     58     63     1
     58    189     1
     59     63     1
     59    189     1
     60    145     1
     60    146     1
     61    170     1
     61    171     1
     62    165     1
     63    190     1
     66     90     1
     66     74     1
     66     75     1
     66     77     1
     66     78     1
     67     89     1
     67     70     1
     67     71     1
     67     73     1
     67     76     1
     68     89     1
     68     70     1
     68     71     1
     68     73     1
     68     76     1
     70     72     1
     70     90     1
     71     72     1
     71     90     1
     72     83     1
     72     84     1
     72     80     1
     72     81     1
     73     77     1
     73     78     1
     74     76     1
     74     86     1
     74     83     1
     74     84     1
     75     76     1
     75     86     1
     75     83     1
     75     84     1
     77     85     1
     77     80     1
     77     81     1
     78     85     1
     78     80     1
     78     81     1
     79    215     1
     80     87     1
     80    214     1
     81     87     1
     81    214     1
     82    240     1
     83     88     1
     83    239     1
     84     88     1
     84    239     1
     85    195     1
     85    196     1
     86    220     1
     86    221     1
     87    215     1
     88    240     1
     91    115     1
     91     99     1
     91    100     1
     91    102     1
     91    103     1
     92    114     1
     92     95     1
     92     96     1
     92     98     1
     92    101     1
     93    114     1
     93     95     1
     93     96     1
     93     98     1
     93    101     1
     95     97     1
     95    115     1
     96     97     1
     96    115     1
     97    108     1
     97    109     1
     97    105     1
     97    106     1
     98    102     1
     98    103     1
     99    101     1
     99    111     1
     99    108     1
     99    109     1
    100    101     1
    100    111     1
    100    108     1
    100    109     1
    102    110     1
    102    105     1
    102    106     1
    103    110     1
    103    105     1
    103    106     1
    104    265     1
    105    112     1
    105    264     1
    106    112     1
    106    264     1
    107    290     1
    108    113     1
    108    289     1
    109    113     1
    109    289     1
    110    245     1
    110    246     1
    111    270     1
    111    271     1
    112    265     1
    113    290     1
    116    140     1
    116    124     1
    116    125     1
    116    127     1
    116    128     1
    117    139     1
    117    120     1
    117    121     1
    117    123     1
    117    126     1
    118    139     1
    118    120     1
    118    121     1
    118    123     1
    118    126     1
    120    122     1
    120    140     1
    121    122     1
    121    140     1
    122    133     1
    122    134     1
    122    130     1
    122    131     1
    123    127     1
    123    128     1
    124    126     1
    124    136     1
    124    133     1
    124    134     1
    125    126     1
    125    136     1
    125    133     1
    125    134     1
    127    135     1
    127    130     1
    127    131     1
    128    135     1
    128    130     1
    128    131     1
    129    315     1
    130    137     1
    130    314     1
    131    137     1
    131    314     1
    132    340     1
    133    138     1
    133    339     1
    134    138     1
    134    339     1
    135    295     1
    135    296     1
    136    320     1
    136    321     1
    137    315     1
    138    340     1
    141    165     1
    141    149     1
    141    150     1
    141    152     1
    141    153     1
    142    164     1
    142    145     1
    142    146     1
    142    148     1
    142    151     1
    143    164     1
    143    145     1
    143    146     1
    143    148     1
    143    151     1
    145    147     1
    145    165     1
    146    147     1
    146    165     1
    147    158     1
    147    159     1
    147    155     1
    147    156     1
    148    152     1
    148    153     1
    149    151     1
    149    161     1
    149    158     1
    149    159     1
    150    151     1
    150    161     1
    150    158     1
    150    159     1
    152    160     1
    152    155     1
    152    156     1
    153    160     1
    153    155     1
    153    156     1
    154    365     1
    155    162     1
    155    364     1
    156    162     1
    156    364     1
    157    390     1
    158    163     1
    158    389     1
    159    163     1
    159    389     1
    160    345     1
    160    346     1
    161    370     1
    161    371     1
    162    365     1
    163    390     1
    166    190     1
    166    174     1
    166    175     1
    166    177     1
    166    178     1
    167    189     1
    167    170     1
    167    171     1
    167    173     1
    167    176     1
    168    189     1
    168    170     1
    168    171     1
    168    173     1
    168    176     1
    170    172     1
    170    190     1
    171    172     1
    171    190     1
    172    183     1
    172    184     1
    172    180     1
    172    181     1
    173    177     1
    173    178     1
    174    176     1
    174    186     1
    174    183     1
    174    184     1
    175    176     1
    175    186     1
    175    183     1
    175    184     1
    177    185     1
    177    180     1
    177    181     1
    178    185     1
    178    180     1
    178    181     1
    179    415     1
    180    187     1
    180    414     1
    181    187     1
    181    414     1
    182    440     1
    183    188     1
    183    439     1
    184    188     1
    184    439     1
    185    395     1
    185    396     1
    186    420     1
    186    421     1
    187    415     1
    188    440     1
    191    215     1
    191    199     1
    191    200     1
    191    202     1
    191    203     1
    192    214     1
    192    195     1
    192    196     1
    192    198     1
    192    201     1
    193    214     1
    193    195     1
    193    196     1
    193    198     1
    193    201     1
    195    197     1
    195    215     1
    196    197     1
    196    215     1
    197    208     1
    197    209     1
    197    205     1
    197    206     1
    198    202     1
    198    203     1
    199    201     1
    199    211     1
    199    208     1
    199    209     1
    200    201     1
    200    211     1
    200    208     1
    200    209     1
    202    210     1
    202    205     1
    202    206     1
    203    210     1
    203    205     1
    203    206     1
    204    465     1
    205    212     1
    205    464     1
    206    212     1
    206    464     1
    207    490     1
    208    213     1
    208    489     1
    209    213     1
    209    489     1
    210    445     1
    210    446     1
    211    470     1
    211    471     1
    212    465     1
    213    490     1
    216    240     1
    216    224     1
    216    225     1
    216    227     1
    216    228     1
    217    239     1
    217    220     1
    217    221     1
    217    223     1
    217    226     1
    218    239     1
    218    220     1
    218    221     1
    218    223     1
    218    226     1
    220    222     1
    220    240     1
    221    222     1
    221    240     1
    222    233     1
    222    234     1
    222    230     1
    222    231     1
    223    227     1
    223    228     1
    224    226     1
    224    236     1
    224    233     1
    224    234     1
    225    226     1
    225    236     1
    225    233     1
    225    234     1
    227    235     1
    227    230     1
    227    231     1
    228    235     1
    228    230     1
    228    231     1
    229    515     1
    230    237     1
    230    514     1
    231    237     1
    231    514     1
    232    540     1
    233    238     1
    233    539     1
    234    238     1
    234    539     1
    235    495     1
    235    496     1
    236    520     1
    236    521     1
    237    515     1
    238    540     1
    241    265     1
    241    249     1
    241    250     1
    241    252     1
    241    253     1
    242    264     1
    242    245     1
    242    246     1
    242    248     1
    242    251     1
    243    264     1
    243    245     1
    243    246     1
    243    248     1
    243    251     1
    245    247     1
    245    265     1
    246    247     1
    246    265     1
    247    258     1
    247    259     1
    247    255     1
    247    256     1
    248    252     1
    248    253     1
    249    251     1
    249    261     1
    249    258     1
    249    259     1
    250    251     1
    250    261     1
    250    258     1
    250    259     1
    252    260     1
    252    255     1
    252    256     1
    253    260     1
    253    255     1
    253    256     1
    254    565     1
    255    262     1
    255    564     1
    256    262     1
    256    564     1
    257    590     1
    258    263     1
    258    589     1
    259    263     1
    259    589     1
    260    545     1
    260    546     1
    261    570     1
    261    571     1
    262    565     1
    263    590     1
    266    290     1
    266    274     1
    266    275     1
    266    277     1
    266    278     1
    267    289     1
    267    270     1
    267    271     1
    267    273     1
    267    276     1
    268    289     1
    268    270     1
    268    271     1
    268    273     1
    268    276     1
    270    272     1
    270    290     1
    271    272     1
    271    290     1
    272    283     1
    272    284     1
    272    280     1
    272    281     1
    273    277     1
    273    278     1
    274    276     1
    274    286     1
    274    283     1
    274    284     1
    275    276     1
    275    286     1
    275    283     1
    275    284     1
    277    285     1
    277    280     1
    277    281     1
    278    285     1
    278    280     1
    278    281     1
    279    615     1
    280    287     1
    280    614     1
    281    287     1
    281    614     1
    282    640     1
    283    288     1
    283    639     1
    284    288     1
    284    639     1
    285    595     1
    285    596     1
    286    620     1
    286    621     1
    287    615     1
    288    640     1
    291    315     1
    291    299     1
    291    300     1
    291    302     1
    291    303     1
    292    314     1
    292    295     1
    292    296     1
    292    298     1
    292    301     1
    293    314     1
    293    295     1
    293    296     1
    293    298     1
    293    301     1
    295    297     1
    295    315     1
    296    297     1
    296    315     1
    297    308     1
    297    309     1
    297    305     1
    297    306     1
    298    302     1
    298    303     1
    299    301     1
    299    311     1
    299    308     1
    299    309     1
    300    301     1
    300    311     1
    300    308     1
    300    309     1
    302    310     1
    302    305     1
    302    306     1
    303    310     1
    303    305     1
    303    306     1
    304    665     1
    305    312     1
    305    664     1
    306    312     1
    306    664     1
    307    690     1
    308    313     1
    308    689     1
    309    313     1
    309    689     1
    310    645     1
    310    646     1
    311    670     1
    311    671     1
    312    665     1
    313    690     1
    316    340     1
    316    324     1
    316    325     1
    316    327     1
    316    328     1
    317    339     1
    317    320     1
    317    321     1
    317    323     1
    317    326     1
    318    339     1
    318    320     1
    318    321     1
    318    323     1
    318    326     1
    320    322     1
    320    340     1
    321    322     1
    321    340     1
    322    333     1
    322    334     1
    322    330     1
    322    331     1
    323    327     1
    323    328     1
    324    326     1
    324    336     1
    324    333     1
    324    334     1
    325    326     1
    325    336     1
    325    333     1
    325    334     1
    327    335     1
    327    330     1
    327    331     1
    328    335     1
    328    330     1
    328    331     1
    329    715     1
    330    337     1
    330    714     1
    331    337     1
    331    714     1
    332    740     1
    333    338     1
    333    739     1
    334    338     1
    334    739     1
    335    695     1
    335    696     1
    336    720     1
    336    721     1
    337    715     1
    338    740     1
    341    365     1
    341    349     1
    341    350     1
    341    352     1
    341    353     1
    342    364     1
    342    345     1
    342    346     1
    342    348     1
    342    351     1
    343    364     1
    343    345     1
    343    346     1
    343    348     1
    343    351     1
    345    347     1
    345    365     1
    346    347     1
    346    365     1
    347    358     1
    347    359     1
    347    355     1
    347    356     1
    348    352     1
    348    353     1
    349    351     1
    349    361     1
    349    358     1
    349    359     1
    350    351     1
    350    361     1
    350    358     1
    350    359     1
    352    360     1
    352    355     1
    352    356     1
    353    360     1
    353    355     1
    353    356     1
    354    765     1
    355    362     1
    355    764     1
    356    362     1
    356    764     1
    357    790     1
    358    363     1
    358    789     1
    359    363     1
    359    789     1
    360    745     1
    360    746     1
    361    770     1
    361    771     1
    362    765     1
    363    790     1
    366    390     1
    366    374     1
    366    375     1
    366    377     1
    366    378     1
    367    389     1
    367    370     1
    367    371     1
    367    373     1
    367    376     1
    368    389     1
    368    370     1
    368    371     1
    368    373     1
    368    376     1
    370    372     1
    370    390     1
    371    372     1
    371    390     1
    372    383     1
    372    384     1
    372    380     1
    372    381     1
    373    377     1
    373    378     1
    374    376     1
    374    386     1
    374    383     1
    374    384     1
    375    376     1
    375    386     1
    375    383     1
    375    384     1
    377    385     1
    377    380     1
    377    381     1
    378    385     1
    378    380     1
    378    381     1
    379    815     1
    380    387     1
    380    814     1
    381    387     1
    381    814     1
    382    840     1
    383    388     1
    383    839     1
    384    388     1
    384    839     1
    385    795     1
    385    796     1
    386    820     1
    386    821     1
    387    815     1
    388    840     1
    391    415     1
    391    399     1
    391    400     1
    391    402     1
    391    403     1
    392    414     1
    392    395     1
    392    396     1
    392    398     1
    392    401     1
    393    414     1
    393    395     1
    393    396     1
    393    398     1
    393    401     1
    395    397     1
    395    415     1
    396    397     1
    396    415     1
    397    408     1
    397    409     1
    397    405     1
    397    406     1
    398    402     1
    398    403     1
    399    401     1
    399    411     1
    399    408     1
    399    409     1
    400    401     1
    400    411     1
    400    408     1
    400    409     1
    402    410     1
    402    405     1
    402    406     1
    403    410     1
    403    405     1
    403    406     1
    404    865     1
    405    412     1
    405    864     1
    406    412     1
    406    864     1
    407    890     1
    408    413     1
    408    889     1
    409    413     1
    409    889     1
    410    845     1
    410    846     1
    411    870     1
    411    871     1
    412    865     1
    413    890     1
    416    440     1
    416    424     1
    416    425     1
    416    427     1
    416    428     1
    417    439     1
    417    420     1
    417    421     1
    417    423     1
    417    426     1
    418    439     1
    418    420     1
    418    421     1
    418    423     1
    418    426     1
    420    422     1
    420    440     1
    421    422     1
    421    440     1
    422    433     1
    422    434     1
    422    430     1
    422    431     1
    423    427     1
    423    428     1
    424    426     1
    424    436     1
    424    433     1
    424    434     1
    425    426     1
    425    436     1
    425    433     1
    425    434     1
    427    435     1
    427    430     1
    427    431     1
    428    435     1
    428    430     1
    428    431     1
    429    915     1
    430    437     1
    430    914     1
    431    437     1
    431    914     1
    432    940     1
    433    438     1
    433    939     1
    434    438     1
    434    939     1
    435    895     1
    435    896     1
    436    920     1
    436    921     1
    437    915     1
    438    940     1
    441    465     1
    441    449     1
    441    450     1
    441    452     1
    441    453     1
    442    464     1
    442    445     1
    442    446     1
    442    448     1
    442    451     1
    443    464     1
    443    445     1
    443    446     1
    443    448     1
    443    451     1
    445    447     1
    445    465     1
    446    447     1
    446    465     1
    447    458     1
    447    459     1
    447    455     1
    447    456     1
    448    452     1
    448    453     1
    449    451     1
    449    461     1
    449    458     1
    449    459     1
    450    451     1
    450    461     1
    450    458     1
    450    459     1
    452    460     1
    452    455     1
    452    456     1
    453    460     1
    453    455     1
    453    456     1
    454    965     1
    455    462     1
    455    964     1
    456    462     1
    456    964     1
    457    990     1
    458    463     1
    458    989     1
    459    463     1
    459    989     1
    460    945     1
    460    946     1
    461    970     1
    461    971     1
    462    965     1
    463    990     1
    466    490     1
    466    474     1
    466    475     1
    466    477     1
    466    478     1
    467    489     1
    467    470     1
    467    471     1
    467    473     1
    467    476     1
    468    489     1
    468    470     1
    468    471     1
    468    473     1
    468    476     1
    470    472     1
    470    490     1
    471    472     1
    471    490     1
    472    483     1
    472    484     1
    472    480     1
    472    481     1
    473    477     1
    473    478     1
    474    476     1
    474    486     1
    474    483     1
    474    484     1
    475    476     1
    475    486     1
    475    483     1
    475    484     1
    477    485     1
    477    480     1
    477    481     1
    478    485     1
    478    480     1
    478    481     1
    479   1015     1
    480    487     1
    480   1014     1
    481    487     1
    481   1014     1
    482   1040     1
    483    488     1
    483   1039     1
    484    488     1
    484   1039     1
    485    995     1
    485    996     1
    486   1020     1
    486   1021     1
    487   1015     1
    488   1040     1
    491    515     1
    491    499     1
    491    500     1
    491    502     1
    491    503     1
    492    514     1
    492    495     1
    492    496     1
    492    498     1
    492    501     1
    493    514     1
    493    495     1
    493    496     1
    493    498     1
    493    501     1
    495    497     1
    495    515     1
    496    497     1
    496    515     1
    497    508     1
    497    509     1
    497    505     1
    497    506     1
    498    502     1
    498    503     1
    499    501     1
    499    511     1
    499    508     1
    499    509     1
    500    501     1
    500    511     1
    500    508     1
    500    509     1
    502    510     1
    502    505     1
    502    506     1
    503    510     1
    503    505     1
    503    506     1
    504   1065     1
    505    512     1
    505   1064     1
    506    512     1
    506   1064     1
    507   1090     1
    508    513     1
    508   1089     1
    509    513     1
    509   1089     1
    510   1045     1
    510   1046     1
    511   1070     1
    511   1071     1
    512   1065     1
    513   1090     1
    516    540     1
    516    524     1
    516    525     1
    516    527     1
    516    528     1
    517    539     1
    517    520     1
    517    521     1
    517    523     1
    517    526     1
    518    539     1
    518    520     1
    518    521     1
    518    523     1
    518    526     1
    520    522     1
    520    540     1
    521    522     1
    521    540     1
    522    533     1
    522    534     1
    522    530     1
    522    531     1
    523    527     1
    523    528     1
    524    526     1
    524    536     1
    524    533     1
    524    534     1
    525    526     1
    525    536     1
    525    533     1
    525    534     1
    527    535     1
    527    530     1
    527    531     1
    528    535     1
    528    530     1
    528    531     1
    529   1115     1
    530    537     1
    530   1114     1
    531    537     1
    531   1114     1
    532   1140     1
    533    538     1
    533   1139     1
    534    538     1
    534   1139     1
    535   1095     1
    535   1096     1
    536   1120     1
    536   1121     1
    537   1115     1
    538   1140     1
    541    565     1
    541    549     1
    541    550     1
    541    552     1
    541    553     1
    542    564     1
    542    545     1
    542    546     1
    542    548     1
    542    551     1
    543    564     1
    543    545     1
    543    546     1
    543    548     1
    543    551     1
    545    547     1
    545    565     1
    546    547     1
    546    565     1
    547    558     1
    547    559     1
    547    555     1
    547    556     1
    548    552     1
    548    553     1
    549    551     1
    549    561     1
    549    558     1
    549    559     1
    550    551     1
    550    561     1
    550    558     1
    550    559     1
    552    560     1
    552    555     1
    552    556     1
    553    560     1
    553    555     1
    553    556     1
    554   1165     1
    555    562     1
    555   1164     1
    556    562     1
    556   1164     1
    557   1190     1
    558    563     1
    558   1189     1
    559    563     1
    559   1189     1
    560   1145     1
    560   1146     1
    561   1170     1
    561   1171     1
    562   1165     1
    563   1190     1
    566    590     1
    566    574     1
    566    575     1
    566    577     1
    566    578     1
    567    589     1
    567    570     1
    567    571     1
    567    573     1
    567    576     1
    568    589     1
    568    570     1
    568    571     1
    568    573     1
    568    576     1
    570    572     1
    570    590     1
    571    572     1
    571    590     1
    572    583     1
    572    584     1
    572    580     1
    572    581     1
    573    577     1
    573    578     1
    574    576     1
    574    586     1
    574    583     1
    574    584     1
    575    576     1
    575    586     1
    575    583     1
    575    584     1
    577    585     1
    577    580     1
    577    581     1
    578    585     1
    578    580     1
    578    581     1
    579   1215     1
    580    587     1
    580   1214     1
    581    587     1
    581   1214     1
    582   1240     1
    583    588     1
    583   1239     1
    584    588     1
    584   1239     1
    585   1195     1
    585   1196     1
    586   1220     1
    586   1221     1
    587   1215     1
    588   1240     1
    591    615     1
    591    599     1
    591    600     1
    591    602     1
    591    603     1
    592    614     1
    592    595     1
    592    596     1
    592    598     1
    592    601     1
    593    614     1
    593    595     1
    593    596     1
    593    598     1
    593    601     1
    595    597     1
    595    615     1
    596    597     1
    596    615     1
    597    608     1
    597    609     1
    597    605     1
    597    606     1
    598    602     1
    598    603     1
    599    601     1
    599    611     1
    599    608     1
    599    609     1
    600    601     1
    600    611     1
    600    608     1
    600    609     1
    602    610     1
    602    605     1
    602    606     1
    603    610     1
    603    605     1
    603    606     1
    604   1265     1
    605    612     1
    605   1264     1
    606    612     1
    606   1264     1
    607   1290     1
    608    613     1
    608   1289     1
    609    613     1
    609   1289     1
    610   1245     1
    610   1246     1
    611   1270     1
    611   1271     1
    612   1265     1
    613   1290     1
    616    640     1
    616    624     1
    616    625     1
    616    627     1
    616    628     1
    617    639     1
    617    620     1
    617    621     1
    617    623     1
    617    626     1
    618    639     1
    618    620     1
    618    621     1
    618    623     1
    618    626     1
    620    622     1
    620    640     1
    621    622     1
    621    640     1
    622    633     1
    622    634     1
    622    630     1
    622    631     1
    623    627     1
    623    628     1
    624    626     1
    624    636     1
    624    633     1
    624    634     1
    625    626     1
    625    636     1
    625    633     1
    625    634     1
    627    635     1
    627    630     1
    627    631     1
    628    635     1
    628    630     1
    628    631     1
    629   1315     1
    630    637     1
    630   1314     1
    631    637     1
    631   1314     1
    632   1340     1
    633    638     1
    633   1339     1
    634    638     1
    634   1339     1
    635   1295     1
    635   1296     1
    636   1320     1
    636   1321     1
    637   1315     1
    638   1340     1
    641    665     1
    641    649     1
    641    650     1
    641    652     1
    641    653     1
    642    664     1
    642    645     1
    642    646     1
    642    648     1
    642    651     1
    643    664     1
    643    645     1
    643    646     1
    643    648     1
    643    651     1
    645    647     1
    645    665     1
    646    647     1
    646    665     1
    647    658     1
    647    659     1
    647    655     1
    647    656     1
    648    652     1
    648    653     1
    649    651     1
    649    661     1
    649    658     1
    649    659     1
    650    651     1
    650    661     1
    650    658     1
    650    659     1
    652    660     1
    652    655     1
    652    656     1
    653    660     1
    653    655     1
    653    656     1
    654   1365     1
    655    662     1
    655   1364     1
    656    662     1
    656   1364     1
    657   1390     1
    658    663     1
    658   1389     1
    659    663     1
    659   1389     1
    660   1345     1
    660   1346     1
    661   1370     1
    661   1371     1
    662   1365     1
    663   1390     1
    666    690     1
    666    674     1
    666    675     1
    666    677     1
    666    678     1
    667    689     1
    667    670     1
    667    671     1
    667    673     1
    667    676     1
    668    689     1
    668    670     1
    668    671     1
    668    673     1
    668    676     1
    670    672     1
    670    690     1
    671    672     1
    671    690     1
    672    683     1
    672    684     1
    672    680     1
    672    681     1
    673    677     1
    673    678     1
    674    676     1
    674    686     1
    674    683     1
    674    684     1
    675    676     1
    675    686     1
    675    683     1
    675    684     1
    677    685     1
    677    680     1
    677    681     1
    678    685     1
    678    680     1
    678    681     1
    679   1415     1
    680    687     1
    680   1414     1
    681    687     1
    681   1414     1
    682   1440     1
    683    688     1
    683   1439     1
    684    688     1
    684   1439     1
    685   1395     1
    685   1396     1
    686   1420     1
    686   1421     1
    687   1415     1
    688   1440     1
    691    715     1
    691    699     1
    691    700     1
    691    702     1
    691    703     1
    692    714     1
    692    695     1
    692    696     1
    692    698     1
    692    701     1
    693    714     1
    693    695     1
    693    696     1
    693    698     1
    693    701     1
    695    697     1
    695    715     1
    696    697     1
    696    715     1
    697    708     1
    697    709     1
    697    705     1
    697    706     1
    698    702     1
    698    703     1
    699    701     1
    699    711     1
    699    708     1
    699    709     1
    700    701     1
    700    711     1
    700    708     1
    700    709     1
    702    710     1
    702    705     1
    702    706     1
    703    710     1
    703    705     1
    703    706     1
    704   1465     1
    705    712     1
    705   1464     1
    706    712     1
    706   1464     1
    707   1490     1
    708    713     1
    708   1489     1
    709    713     1
    709   1489     1
    710   1445     1
    710   1446     1
    711   1470     1
    711   1471     1
    712   1465     1
    713   1490     1
    716    740     1
    716    724     1
    716    725     1
    716    727     1
    716    728     1
    717    739     1
    717    720     1
    717    721     1
    717    723     1
    717    726     1
    718    739     1
    718    720     1
    718    721     1
    718    723     1
    718    726     1
    720    722     1
    720    740     1
    721    722     1
    721    740     1
    722    733     1
    722    734     1
    722    730     1
    722    731     1
    723    727     1
    723    728     1
    724    726     1
    724    736     1
    724    733     1
    724    734     1
    725    726     1
    725    736     1
    725    733     1
    725    734     1
    727    735     1
    727    730     1
    727    731     1
    728    735     1
    728    730     1
    728    731     1
    729   1515     1
    730    737     1
    730   1514     1
    731    737     1
    731   1514     1
    732   1540     1
    733    738     1
    733   1539     1
    734    738     1
    734   1539     1
    735   1495     1
    735   1496     1
    736   1520     1
    736   1521     1
    737   1515     1
    738   1540     1
    741    765     1
    741    749     1
    741    750     1
    741    752     1
    741    753     1
    742    764     1
    742    745     1
    742    746     1
    742    748     1
    742    751     1
    743    764     1
    743    745     1
    743    746     1
    743    748     1
    743    751     1
    745    747     1
    745    765     1
    746    747     1
    746    765     1
    747    758     1
    747    759     1
    747    755     1
    747    756     1
    748    752     1
    748    753     1
    749    751     1
    749    761     1
    749    758     1
    749    759     1
    750    751     1
    750    761     1
    750    758     1
    750    759     1
    752    760     1
    752    755     1
    752    756     1
    753    760     1
    753    755     1
    753    756     1
    754   1542     1
    755   1541     1
    755    762     1
    756   1541     1
    756    762     1
    757   1569     1
    758    763     1
    758   1568     1
    759    763     1
    759   1568     1
    760   1544     1
    760   1546     1
    761   1571     1
    761   1573     1
    762   1542     1
    763   1569     1
    766    790     1
    766    774     1
    766    775     1
    766    777     1
    766    778     1
    767    789     1
    767    770     1
    767    771     1
    767    773     1
    767    776     1
    768    789     1
    768    770     1
    768    771     1
    768    773     1
    768    776     1
    770    772     1
    770    790     1
    771    772     1
    771    790     1
    772    783     1
    772    784     1
    772    780     1
    772    781     1
    773    777     1
    773    778     1
    774    776     1
    774    786     1
    774    783     1
    774    784     1
    775    776     1
    775    786     1
    775    783     1
    775    784     1
    777    785     1
    777    780     1
    777    781     1
    778    785     1
    778    780     1
    778    781     1
    779   1596     1
    780   1595     1
    780    787     1
    781   1595     1
    781    787     1
    782   1623     1
    783    788     1
    783   1622     1
    784    788     1
    784   1622     1
    785   1598     1
    785   1600     1
    786   1625     1
    786   1627     1
    787   1596     1
    788   1623     1
    791    815     1
    791    799     1
    791    800     1
    791    802     1
    791    803     1
    792    814     1
    792    795     1
    792    796     1
    792    798     1
    792    801     1
    793    814     1
    793    795     1
    793    796     1
    793    798     1
    793    801     1
    795    797     1
    795    815     1
    796    797     1
    796    815     1
    797    808     1
    797    809     1
    797    805     1
    797    806     1
    798    802     1
    798    803     1
    799    801     1
    799    811     1
    799    808     1
    799    809     1
    800    801     1
    800    811     1
    800    808     1
    800    809     1
    802    810     1
    802    805     1
    802    806     1
    803    810     1
    803    805     1
    803    806     1
    804   1650     1
    805   1649     1
    805    812     1
    806   1649     1
    806    812     1
    807   1677     1
    808    813     1
    808   1676     1
    809    813     1
    809   1676     1
    810   1652     1
    810   1654     1
    811   1679     1
    811   1681     1
    812   1650     1
    813   1677     1
    816    840     1
    816    824     1
    816    825     1
    816    827     1
    816    828     1
    817    839     1
    817    820     1
    817    821     1
    817    823     1
    817    826     1
    818    839     1
    818    820     1
    818    821     1
    818    823     1
    818    826     1
    820    822     1
    820    840     1
    821    822     1
    821    840     1
    822    833     1
    822    834     1
    822    830     1
    822    831     1
    823    827     1
    823    828     1
    824    826     1
    824    836     1
    824    833     1
    824    834     1
    825    826     1
    825    836     1
    825    833     1
    825    834     1
    827    835     1
    827    830     1
    827    831     1
    828    835     1
    828    830     1
    828    831     1
    829   1704     1
    830   1703     1
    830    837     1
    831   1703     1
    831    837     1
    832   1731     1
    833    838     1
    833   1730     1
    834    838     1
    834   1730     1
    835   1706     1
    835   1708     1
    836   1733     1
    836   1735     1
    837   1704     1
    838   1731     1
    841    865     1
    841    849     1
    841    850     1
    841    852     1
    841    853     1
    842    864     1
    842    845     1
    842    846     1
    842    848     1
    842    851     1
    843    864     1
    843    845     1
    843    846     1
    843    848     1
    843    851     1
    845    847     1
    845    865     1
    846    847     1
    846    865     1
    847    858     1
    847    859     1
    847    855     1
    847    856     1
    848    852     1
    848    853     1
    849    851     1
    849    861     1
    849    858     1
    849    859     1
    850    851     1
    850    861     1
    850    858     1
    850    859     1
    852    860     1
    852    855     1
    852    856     1
    853    860     1
    853    855     1
    853    856     1
    854   1758     1
    855   1757     1
    855    862     1
    856   1757     1
    856    862     1
    857   1785     1
    858    863     1
    858   1784     1
    859    863     1
    859   1784     1
    860   1760     1
    860   1762     1
    861   1787     1
    861   1789     1
    862   1758     1
    863   1785     1
    866    890     1
    866    874     1
    866    875     1
    866    877     1
    866    878     1
    867    889     1
    867    870     1
    867    871     1
    867    873     1
    867    876     1
    868    889     1
    868    870     1
    868    871     1
    868    873     1
    868    876     1
    870    872     1
    870    890     1
    871    872     1
    871    890     1
    872    883     1
    872    884     1
    872    880     1
    872    881     1
    873    877     1
    873    878     1
    874    876     1
    874    886     1
    874    883     1
    874    884     1
    875    876     1
    875    886     1
    875    883     1
    875    884     1
    877    885     1
    877    880     1
    877    881     1
    878    885     1
    878    880     1
    878    881     1
    879   1812     1
    880   1811     1
    880    887     1
    881   1811     1
    881    887     1
    882   1839     1
    883    888     1
    883   1838     1
    884    888     1
    884   1838     1
    885   1814     1
    885   1816     1
    886   1841     1
    886   1843     1
    887   1812     1
    888   1839     1
    891    915     1
    891    899     1
    891    900     1
    891    902     1
    891    903     1
    892    914     1
    892    895     1
    892    896     1
    892    898     1
    892    901     1
    893    914     1
    893    895     1
    893    896     1
    893    898     1
    893    901     1
    895    897     1
    895    915     1
    896    897     1
    896    915     1
    897    908     1
    897    909     1
    897    905     1
    897    906     1
    898    902     1
    898    903     1
    899    901     1
    899    911     1
    899    908     1
    899    909     1
    900    901     1
    900    911     1
    900    908     1
    900    909     1
    902    910     1
    902    905     1
    902    906     1
    903    910     1
    903    905     1
    903    906     1
    904   1866     1
    905   1865     1
    905    912     1
    906   1865     1
    906    912     1
    907   1893     1
    908    913     1
    908   1892     1
    909    913     1
    909   1892     1
    910   1868     1
    910   1870     1
    911   1895     1
    911   1897     1
    912   1866     1
    913   1893     1
    916    940     1
    916    924     1
    916    925     1
    916    927     1
    916    928     1
    917    939     1
    917    920     1
    917    921     1
    917    923     1
    917    926     1
    918    939     1
    918    920     1
    918    921     1
    918    923     1
    918    926     1
    920    922     1
    920    940     1
    921    922     1
    921    940     1
    922    933     1
    922    934     1
    922    930     1
    922    931     1
    923    927     1
    923    928     1
    924    926     1
    924    936     1
    924    933     1
    924    934     1
    925    926     1
    925    936     1
    925    933     1
    925    934     1
    927    935     1
    927    930     1
    927    931     1
    928    935     1
    928    930     1
    928    931     1
    929   1920     1
    930   1919     1
    930    937     1
    931   1919     1
    931    937     1
    932   1947     1
    933    938     1
    933   1946     1
    934    938     1
    934   1946     1
    935   1922     1
    935   1924     1
    936   1949     1
    936   1951     1
    937   1920     1
    938   1947     1
    941    965     1
    941    949     1
    941    950     1
    941    952     1
    941    953     1
    942    964     1
    942    945     1
    942    946     1
    942    948     1
    942    951     1
    943    964     1
    943    945     1
    943    946     1
    943    948     1
    943    951     1
    945    947     1
    945    965     1
    946    947     1
    946    965     1
    947    958     1
    947    959     1
    947    955     1
    947    956     1
    948    952     1
    948    953     1
    949    951     1
    949    961     1
    949    958     1
    949    959     1
    950    951     1
    950    961     1
    950    958     1
    950    959     1
    952    960     1
    952    955     1
    952    956     1
    953    960     1
    953    955     1
    953    956     1
    954   1974     1
    955   1973     1
    955    962     1
    956   1973     1
    956    962     1
    957   2001     1
    958    963     1
    958   2000     1
    959    963     1
    959   2000     1
    960   1976     1
    960   1978     1
    961   2003     1
    961   2005     1
    962   1974     1
    963   2001     1
    966    990     1
    966    974     1
    966    975     1
    966    977     1
    966    978     1
    967    989     1
    967    970     1
    967    971     1
    967    973     1
    967    976     1
    968    989     1
    968    970     1
    968    971     1
    968    973     1
    968    976     1
    970    972     1
    970    990     1
    971    972     1
    971    990     1
    972    983     1
    972    984     1
    972    980     1
    972    981     1
    973    977     1
    973    978     1
    974    976     1
    974    986     1
    974    983     1
    974    984     1
    975    976     1
    975    986     1
    975    983     1
    975    984     1
    977    985     1
    977    980     1
    977    981     1
    978    985     1
    978    980     1
    978    981     1
    979   2028     1
    980   2027     1
    980    987     1
    981   2027     1
    981    987     1
    982   2055     1
    983    988     1
    983   2054     1
    984    988     1
    984   2054     1
    985   2030     1
    985   2032     1
    986   2057     1
    986   2059     1
    987   2028     1
    988   2055     1
    991   1015     1
    991    999     1
    991   1000     1
    991   1002     1
    991   1003     1
    992   1014     1
    992    995     1
    992    996     1
    992    998     1
    992   1001     1
    993   1014     1
    993    995     1
    993    996     1
    993    998     1
    993   1001     1
    995    997     1
    995   1015     1
    996    997     1
    996   1015     1
    997   1008     1
    997   1009     1
    997   1005     1
    997   1006     1
    998   1002     1
    998   1003     1
    999   1001     1
    999   1011     1
    999   1008     1
    999   1009     1
   1000   1001     1
   1000   1011     1
   1000   1008     1
   1000   1009     1
   1002   1010     1
   1002   1005     1
   1002   1006     1
   1003   1010     1
   1003   1005     1
   1003   1006     1
   1004   2082     1
   1005   2081     1
   1005   1012     1
   1006   2081     1
   1006   1012     1
   1007   2109     1
   1008   1013     1
   1008   2108     1
   1009   1013     1
   1009   2108     1
   1010   2084     1
   1010   2086     1
   1011   2111     1
   1011   2113     1
   1012   2082     1
   1013   2109     1
   1016   1040     1
   1016   1024     1
   1016   1025     1
   1016   1027     1
   1016   1028     1
   1017   1039     1
   1017   1020     1
   1017   1021     1
   1017   1023     1
   1017   1026     1
   1018   1039     1
   1018   1020     1
   1018   1021     1
   1018   1023     1
   1018   1026     1
   1020   1022     1
   1020   1040     1
   1021   1022     1
   1021   1040     1
   1022   1033     1
   1022   1034     1
   1022   1030     1
   1022   1031     1
   1023   1027     1
   1023   1028     1
   1024   1026     1
   1024   1036     1
   1024   1033     1
   1024   1034     1
   1025   1026     1
   1025   1036     1
   1025   1033     1
   1025   1034     1
   1027   1035     1
   1027   1030     1
   1027   1031     1
   1028   1035     1
   1028   1030     1
   1028   1031     1
   1029   2136     1
   1030   2135     1
   1030   1037     1
   1031   2135     1
   1031   1037     1
   1032   2163     1
   1033   1038     1
   1033   2162     1
   1034   1038     1
   1034   2162     1
   1035   2138     1
   1035   2140     1
   1036   2165     1
   1036   2167     1
   1037   2136     1
   1038   2163     1
   1041   1065     1
   1041   1049     1
   1041   1050     1
   1041   1052     1
   1041   1053     1
   1042   1064     1
   1042   1045     1
   1042   1046     1
   1042   1048     1
   1042   1051     1
   1043   1064     1
   1043   1045     1
   1043   1046     1
   1043   1048     1
   1043   1051     1
   1045   1047     1
   1045   1065     1
   1046   1047     1
   1046   1065     1
   1047   1058     1
   1047   1059     1
   1047   1055     1
   1047   1056     1
   1048   1052     1
   1048   1053     1
   1049   1051     1
   1049   1061     1
   1049   1058     1
   1049   1059     1
   1050   1051     1
   1050   1061     1
   1050   1058     1
   1050   1059     1
   1052   1060     1
   1052   1055     1
   1052   1056     1
   1053   1060     1
   1053   1055     1
   1053   1056     1
   1054   2190     1
   1055   2189     1
   1055   1062     1
   1056   2189     1
   1056   1062     1
   1057   2217     1
   1058   1063     1
   1058   2216     1
   1059   1063     1
   1059   2216     1
   1060   2192     1
   1060   2194     1
   1061   2219     1
   1061   2221     1
   1062   2190     1
   1063   2217     1
   1066   1090     1
   1066   1074     1
   1066   1075     1
   1066   1077     1
   1066   1078     1
   1067   1089     1
   1067   1070     1
   1067   1071     1
   1067   1073     1
   1067   1076     1
   1068   1089     1
   1068   1070     1
   1068   1071     1
   1068   1073     1
   1068   1076     1
   1070   1072     1
   1070   1090     1
   1071   1072     1
   1071   1090     1
   1072   1083     1
   1072   1084     1
   1072   1080     1
   1072   1081     1
   1073   1077     1
   1073   1078     1
   1074   1076     1
   1074   1086     1
   1074   1083     1
   1074   1084     1
   1075   1076     1
   1075   1086     1
   1075   1083     1
   1075   1084     1
   1077   1085     1
   1077   1080     1
   1077   1081     1
   1078   1085     1
   1078   1080     1
   1078   1081     1
   1079   2244     1
   1080   2243     1
   1080   1087     1
   1081   2243     1
   1081   1087     1
   1082   2271     1
   1083   1088     1
   1083   2270     1
   1084   1088     1
   1084   2270     1
   1085   2246     1
   1085   2248     1
   1086   2273     1
   1086   2275     1
   1087   2244     1
   1088   2271     1
   1091   1115     1
   1091   1099     1
   1091   1100     1
   1091   1102     1
   1091   1103     1
   1092   1114     1
   1092   1095     1
   1092   1096     1
   1092   1098     1
   1092   1101     1
   1093   1114     1
   1093   1095     1
   1093   1096     1
   1093   1098     1
   1093   1101     1
   1095   1097     1
   1095   1115     1
   1096   1097     1
   1096   1115     1
   1097   1108     1
   1097   1109     1
   1097   1105     1
   1097   1106     1
   1098   1102     1
   1098   1103     1
   1099   1101     1
   1099   1111     1
   1099   1108     1
   1099   1109     1
   1100   1101     1
   1100   1111     1
   1100   1108     1
   1100   1109     1
   1102   1110     1
   1102   1105     1
   1102   1106     1
   1103   1110     1
   1103   1105     1
   1103   1106     1
   1104   2298     1
   1105   2297     1
   1105   1112     1
   1106   2297     1
   1106   1112     1
   1107   2325     1
   1108   1113     1
   1108   2324     1
   1109   1113     1
   1109   2324     1
   1110   2300     1
   1110   2302     1
   1111   2327     1
   1111   2329     1
   1112   2298     1
   1113   2325     1
   1116   1140     1
   1116   1124     1
   1116   1125     1
   1116   1127     1
   1116   1128     1
   1117   1139     1
   1117   1120     1
   1117   1121     1
   1117   1123     1
   1117   1126     1
   1118   1139     1
   1118   1120     1
   1118   1121     1
   1118   1123     1
   1118   1126     1
   1120   1122     1
   1120   1140     1
   1121   1122     1
   1121   1140     1
   1122   1133     1
   1122   1134     1
   1122   1130     1
   1122   1131     1
   1123   1127     1
   1123   1128     1
   1124   1126     1
   1124   1136     1
   1124   1133     1
   1124   1134     1
   1125   1126     1
   1125   1136     1
   1125   1133     1
   1125   1134     1
   1127   1135     1
   1127   1130     1
   1127   1131     1
   1128   1135     1
   1128   1130     1
   1128   1131     1
   1129   2352     1
   1130   2351     1
   1130   1137     1
   1131   2351     1
   1131   1137     1
   1132   2379     1
   1133   1138     1
   1133   2378     1
   1134   1138     1
   1134   2378     1
   1135   2354     1
   1135   2356     1
   1136   2381     1
   1136   2383     1
   1137   2352     1
   1138   2379     1
   1141   1165     1
   1141   1149     1
   1141   1150     1
   1141   1152     1
   1141   1153     1
   1142   1164     1
   1142   1145     1
   1142   1146     1
   1142   1148     1
   1142   1151     1
   1143   1164     1
   1143   1145     1
   1143   1146     1
   1143   1148     1
   1143   1151     1
   1145   1147     1
   1145   1165     1
   1146   1147     1
   1146   1165     1
   1147   1158     1
   1147   1159     1
   1147   1155     1
   1147   1156     1
   1148   1152     1
   1148   1153     1
   1149   1151     1
   1149   1161     1
   1149   1158     1
   1149   1159     1
   1150   1151     1
   1150   1161     1
   1150   1158     1
   1150   1159     1
   1152   1160     1
   1152   1155     1
   1152   1156     1
   1153   1160     1
   1153   1155     1
   1153   1156     1
   1154   2406     1
   1155   2405     1
   1155   1162     1
   1156   2405     1
   1156   1162     1
   1157   2433     1
   1158   1163     1
   1158   2432     1
   1159   1163     1
   1159   2432     1
   1160   2408     1
   1160   2410     1
   1161   2435     1
   1161   2437     1
   1162   2406     1
   1163   2433     1
   1166   1190     1
   1166   1174     1
   1166   1175     1
   1166   1177     1
   1166   1178     1
   1167   1189     1
   1167   1170     1
   1167   1171     1
   1167   1173     1
   1167   1176     1
   1168   1189     1
   1168   1170     1
   1168   1171     1
   1168   1173     1
   1168   1176     1
   1170   1172     1
   1170   1190     1
   1171   1172     1
   1171   1190     1
   1172   1183     1
   1172   1184     1
   1172   1180     1
   1172   1181     1
   1173   1177     1
   1173   1178     1
   1174   1176     1
   1174   1186     1
   1174   1183     1
   1174   1184     1
   1175   1176     1
   1175   1186     1
   1175   1183     1
   1175   1184     1
   1177   1185     1
   1177   1180     1
   1177   1181     1
   1178   1185     1
   1178   1180     1
   1178   1181     1
   1179   2460     1
   1180   2459     1
   1180   1187     1
   1181   2459     1
   1181   1187     1
   1182   2487     1
   1183   1188     1
   1183   2486     1
   1184   1188     1
   1184   2486     1
   1185   2462     1
   1185   2464     1
   1186   2489     1
   1186   2491     1
   1187   2460     1
   1188   2487     1
   1191   1215     1
   1191   1199     1
   1191   1200     1
   1191   1202     1
   1191   1203     1
   1192   1214     1
   1192   1195     1
   1192   1196     1
   1192   1198     1
   1192   1201     1
   1193   1214     1
   1193   1195     1
   1193   1196     1
   1193   1198     1
   1193   1201     1
   1195   1197     1
   1195   1215     1
   1196   1197     1
   1196   1215     1
   1197   1208     1
   1197   1209     1
   1197   1205     1
   1197   1206     1
   1198   1202     1
   1198   1203     1
   1199   1201     1
   1199   1211     1
   1199   1208     1
   1199   1209     1
   1200   1201     1
   1200   1211     1
   1200   1208     1
   1200   1209     1
   1202   1210     1
   1202   1205     1
   1202   1206     1
   1203   1210     1
   1203   1205     1
   1203   1206     1
   1204   2514     1
   1205   2513     1
   1205   1212     1
   1206   2513     1
   1206   1212     1
   1207   2541     1
   1208   1213     1
   1208   2540     1
   1209   1213     1
   1209   2540     1
   1210   2516     1
   1210   2518     1
   1211   2543     1
   1211   2545     1
   1212   2514     1
   1213   2541     1
   1216   1240     1
   1216   1224     1
   1216   1225     1
   1216   1227     1
   1216   1228     1
   1217   1239     1
   1217   1220     1
   1217   1221     1
   1217   1223     1
   1217   1226     1
   1218   1239     1
   1218   1220     1
   1218   1221     1
   1218   1223     1
   1218   1226     1
   1220   1222     1
   1220   1240     1
   1221   1222     1
   1221   1240     1
   1222   1233     1
   1222   1234     1
   1222   1230     1
   1222   1231     1
   1223   1227     1
   1223   1228     1
   1224   1226     1
   1224   1236     1
   1224   1233     1
   1224   1234     1
   1225   1226     1
   1225   1236     1
   1225   1233     1
   1225   1234     1
   1227   1235     1
   1227   1230     1
   1227   1231     1
   1228   1235     1
   1228   1230     1
   1228   1231     1
   1229   2568     1
   1230   2567     1
   1230   1237     1
   1231   2567     1
   1231   1237     1
   1232   2595     1
   1233   1238     1
   1233   2594     1
   1234   1238     1
   1234   2594     1
   1235   2570     1
   1235   2572     1
   1236   2597     1
   1236   2599     1
   1237   2568     1
   1238   2595     1
   1241   1265     1
   1241   1249     1
   1241   1250     1
   1241   1252     1
   1241   1253     1
   1242   1264     1
   1242   1245     1
   1242   1246     1
   1242   1248     1
   1242   1251     1
   1243   1264     1
   1243   1245     1
   1243   1246     1
   1243   1248     1
   1243   1251     1
   1245   1247     1
   1245   1265     1
   1246   1247     1
   1246   1265     1
   1247   1258     1
   1247   1259     1
   1247   1255     1
   1247   1256     1
   1248   1252     1
   1248   1253     1
   1249   1251     1
   1249   1261     1
   1249   1258     1
   1249   1259     1
   1250   1251     1
   1250   1261     1
   1250   1258     1
   1250   1259     1
   1252   1260     1
   1252   1255     1
   1252   1256     1
   1253   1260     1
   1253   1255     1
   1253   1256     1
   1254   2622     1
   1255   2621     1
   1255   1262     1
   1256   2621     1
   1256   1262     1
   1257   2649     1
   1258   1263     1
   1258   2648     1
   1259   1263     1
   1259   2648     1
   1260   2624     1
   1260   2626     1
   1261   2651     1
   1261   2653     1
   1262   2622     1
   1263   2649     1
   1266   1290     1
   1266   1274     1
   1266   1275     1
   1266   1277     1
   1266   1278     1
   1267   1289     1
   1267   1270     1
   1267   1271     1
   1267   1273     1
   1267   1276     1
   1268   1289     1
   1268   1270     1
   1268   1271     1
   1268   1273     1
   1268   1276     1
   1270   1272     1
   1270   1290     1
   1271   1272     1
   1271   1290     1
   1272   1283     1
   1272   1284     1
   1272   1280     1
   1272   1281     1
   1273   1277     1
   1273   1278     1
   1274   1276     1
   1274   1286     1
   1274   1283     1
   1274   1284     1
   1275   1276     1
   1275   1286     1
   1275   1283     1
   1275   1284     1
   1277   1285     1
   1277   1280     1
   1277   1281     1
   1278   1285     1
   1278   1280     1
   1278   1281     1
   1279   2676     1
   1280   2675     1
   1280   1287     1
   1281   2675     1
   1281   1287     1
   1282   2703     1
   1283   1288     1
   1283   2702     1
   1284   1288     1
   1284   2702     1
   1285   2678     1
   1285   2680     1
   1286   2705     1
   1286   2707     1
   1287   2676     1
   1288   2703     1
   1291   1315     1
   1291   1299     1
   1291   1300     1
   1291   1302     1
   1291   1303     1
   1292   1314     1
   1292   1295     1
   1292   1296     1
   1292   1298     1
   1292   1301     1
   1293   1314     1
   1293   1295     1
   1293   1296     1
   1293   1298     1
   1293   1301     1
   1295   1297     1
   1295   1315     1
   1296   1297     1
   1296   1315     1
   1297   1308     1
   1297   1309     1
   1297   1305     1
   1297   1306     1
   1298   1302     1
   1298   1303     1
   1299   1301     1
   1299   1311     1
   1299   1308     1
   1299   1309     1
   1300   1301     1
   1300   1311     1
   1300   1308     1
   1300   1309     1
   1302   1310     1
   1302   1305     1
   1302   1306     1
   1303   1310     1
   1303   1305     1
   1303   1306     1
   1304   2730     1
   1305   2729     1
   1305   1312     1
   1306   2729     1
   1306   1312     1
   1307   2757     1
   1308   1313     1
   1308   2756     1
   1309   1313     1
   1309   2756     1
   1310   2732     1
   1310   2734     1
   1311   2759     1
   1311   2761     1
   1312   2730     1
   1313   2757     1
   1316   1340     1
   1316   1324     1
   1316   1325     1
   1316   1327     1
   1316   1328     1
   1317   1339     1
   1317   1320     1
   1317   1321     1
   1317   1323     1
   1317   1326     1
   1318   1339     1
   1318   1320     1
   1318   1321     1
   1318   1323     1
   1318   1326     1
   1320   1322     1
   1320   1340     1
   1321   1322     1
   1321   1340     1
   1322   1333     1
   1322   1334     1
   1322   1330     1
   1322   1331     1
   1323   1327     1
   1323   1328     1
   1324   1326     1
   1324   1336     1
   1324   1333     1
   1324   1334     1
   1325   1326     1
   1325   1336     1
   1325   1333     1
   1325   1334     1
   1327   1335     1
   1327   1330     1
   1327   1331     1
   1328   1335     1
   1328   1330     1
   1328   1331     1
   1329   2784     1
   1330   2783     1
   1330   1337     1
   1331   2783     1
   1331   1337     1
   1332   2811     1
   1333   1338     1
   1333   2810     1
   1334   1338     1
   1334   2810     1
   1335   2786     1
   1335   2788     1
   1336   2813     1
   1336   2815     1
   1337   2784     1
   1338   2811     1
   1341   1365     1
   1341   1349     1
   1341   1350     1
   1341   1352     1
   1341   1353     1
   1342   1364     1
   1342   1345     1
   1342   1346     1
   1342   1348     1
   1342   1351     1
   1343   1364     1
   1343   1345     1
   1343   1346     1
   1343   1348     1
   1343   1351     1
   1345   1347     1
   1345   1365     1
   1346   1347     1
   1346   1365     1
   1347   1358     1
   1347   1359     1
   1347   1355     1
   1347   1356     1
   1348   1352     1
   1348   1353     1
   1349   1351     1
   1349   1361     1
   1349   1358     1
   1349   1359     1
   1350   1351     1
   1350   1361     1
   1350   1358     1
   1350   1359     1
   1352   1360     1
   1352   1355     1
   1352   1356     1
   1353   1360     1
   1353   1355     1
   1353   1356     1
   1354   2838     1
   1355   2837     1
   1355   1362     1
   1356   2837     1
   1356   1362     1
   1357   2865     1
   1358   1363     1
   1358   2864     1
   1359   1363     1
   1359   2864     1
   1360   2840     1
   1360   2842     1
   1361   2867     1
   1361   2869     1
   1362   2838     1
   1363   2865     1
   1366   1390     1
   1366   1374     1
   1366   1375     1
   1366   1377     1
   1366   1378     1
   1367   1389     1
   1367   1370     1
   1367   1371     1
   1367   1373     1
   1367   1376     1
   1368   1389     1
   1368   1370     1
   1368   1371     1
   1368   1373     1
   1368   1376     1
   1370   1372     1
   1370   1390     1
   1371   1372     1
   1371   1390     1
   1372   1383     1
   1372   1384     1
   1372   1380     1
   1372   1381     1
   1373   1377     1
   1373   1378     1
   1374   1376     1
   1374   1386     1
   1374   1383     1
   1374   1384     1
   1375   1376     1
   1375   1386     1
   1375   1383     1
   1375   1384     1
   1377   1385     1
   1377   1380     1
   1377   1381     1
   1378   1385     1
   1378   1380     1
   1378   1381     1
   1379   2892     1
   1380   2891     1
   1380   1387     1
   1381   2891     1
   1381   1387     1
   1382   2919     1
   1383   1388     1
   1383   2918     1
   1384   1388     1
   1384   2918     1
   1385   2894     1
   1385   2896     1
   1386   2921     1
   1386   2923     1
   1387   2892     1
   1388   2919     1
   1391   1415     1
   1391   1399     1
   1391   1400     1
   1391   1402     1
   1391   1403     1
   1392   1414     1
   1392   1395     1
   1392   1396     1
   1392   1398     1
   1392   1401     1
   1393   1414     1
   1393   1395     1
   1393   1396     1
   1393   1398     1
   1393   1401     1
   1395   1397     1
   1395   1415     1
   1396   1397     1
   1396   1415     1
   1397   1408     1
   1397   1409     1
   1397   1405     1
   1397   1406     1
   1398   1402     1
   1398   1403     1
   1399   1401     1
   1399   1411     1
   1399   1408     1
   1399   1409     1
   1400   1401     1
   1400   1411     1
   1400   1408     1
   1400   1409     1
   1402   1410     1
   1402   1405     1
   1402   1406     1
   1403   1410     1
   1403   1405     1
   1403   1406     1
   1404   2946     1
   1405   2945     1
   1405   1412     1
   1406   2945     1
   1406   1412     1
   1407   2973     1
   1408   1413     1
   1408   2972     1
   1409   1413     1
   1409   2972     1
   1410   2948     1
   1410   2950     1
   1411   2975     1
   1411   2977     1
   1412   2946     1
   1413   2973     1
   1416   1440     1
   1416   1424     1
   1416   1425     1
   1416   1427     1
   1416   1428     1
   1417   1439     1
   1417   1420     1
   1417   1421     1
   1417   1423     1
   1417   1426     1
   1418   1439     1
   1418   1420     1
   1418   1421     1
   1418   1423     1
   1418   1426     1
   1420   1422     1
   1420   1440     1
   1421   1422     1
   1421   1440     1
   1422   1433     1
   1422   1434     1
   1422   1430     1
   1422   1431     1
   1423   1427     1
   1423   1428     1
   1424   1426     1
   1424   1436     1
   1424   1433     1
   1424   1434     1
   1425   1426     1
   1425   1436     1
   1425   1433     1
   1425   1434     1
   1427   1435     1
   1427   1430     1
   1427   1431     1
   1428   1435     1
   1428   1430     1
   1428   1431     1
   1429   3000     1
   1430   2999     1
   1430   1437     1
   1431   2999     1
   1431   1437     1
   1432   3027     1
   1433   1438     1
   1433   3026     1
   1434   1438     1
   1434   3026     1
   1435   3002     1
   1435   3004     1
   1436   3029     1
   1436   3031     1
   1437   3000     1
   1438   3027     1
   1441   1465     1
   1441   1449     1
   1441   1450     1
   1441   1452     1
   1441   1453     1
   1442   1464     1
   1442   1445     1
   1442   1446     1
   1442   1448     1
   1442   1451     1
   1443   1464     1
   1443   1445     1
   1443   1446     1
   1443   1448     1
   1443   1451     1
   1445   1447     1
   1445   1465     1
   1446   1447     1
   1446   1465     1
   1447   1458     1
   1447   1459     1
   1447   1455     1
   1447   1456     1
   1448   1452     1
   1448   1453     1
   1449   1451     1
   1449   1461     1
   1449   1458     1
   1449   1459     1
   1450   1451     1
   1450   1461     1
   1450   1458     1
   1450   1459     1
   1452   1460     1
   1452   1455     1
   1452   1456     1
   1453   1460     1
   1453   1455     1
   1453   1456     1
   1454   3054     1
   1455   3053     1
   1455   1462     1
   1456   3053     1
   1456   1462     1
   1457   3081     1
   1458   1463     1
   1458   3080     1
   1459   1463     1
   1459   3080     1
   1460   3056     1
   1460   3058     1
   1461   3083     1
   1461   3085     1
   1462   3054     1
   1463   3081     1
   1466   1490     1
   1466   1474     1
   1466   1475     1
   1466   1477     1
   1466   1478     1
   1467   1489     1
   1467   1470     1
   1467   1471     1
   1467   1473     1
   1467   1476     1
   1468   1489     1
   1468   1470     1
   1468   1471     1
   1468   1473     1
   1468   1476     1
   1470   1472     1
   1470   1490     1
   1471   1472     1
   1471   1490     1
   1472   1483     1
   1472   1484     1
   1472   1480     1
   1472   1481     1
   1473   1477     1
   1473   1478     1
   1474   1476     1
   1474   1486     1
   1474   1483     1
   1474   1484     1
   1475   1476     1
   1475   1486     1
   1475   1483     1
   1475   1484     1
   1477   1485     1
   1477   1480     1
   1477   1481     1
   1478   1485     1
   1478   1480     1
   1478   1481     1
   1479   3108     1
   1480   3107     1
   1480   1487     1
   1481   3107     1
   1481   1487     1
   1482   3135     1
   1483   1488     1
   1483   3134     1
   1484   1488     1
   1484   3134     1
   1485   3110     1
   1485   3112     1
   1486   3137     1
   1486   3139     1
   1487   3108     1
   1488   3135     1
   1491   1515     1
   1491   1499     1
   1491   1500     1
   1491   1502     1
   1491   1503     1
   1492   1514     1
   1492   1495     1
   1492   1496     1
   1492   1498     1
   1492   1501     1
   1493   1514     1
   1493   1495     1
   1493   1496     1
   1493   1498     1
   1493   1501     1
   1495   1497     1
   1495   1515     1
   1496   1497     1
   1496   1515     1
   1497   1508     1
   1497   1509     1
   1497   1505     1
   1497   1506     1
   1498   1502     1
   1498   1503     1
   1499   1501     1
   1499   1511     1
   1499   1508     1
   1499   1509     1
   1500   1501     1
   1500   1511     1
   1500   1508     1
   1500   1509     1
   1502   1510     1
   1502   1505     1
   1502   1506     1
   1503   1510     1
   1503   1505     1
   1503   1506     1
   1504   3162     1
   1505   3161     1
   1505   1512     1
   1506   3161     1
   1506   1512     1
   1507   3189     1
   1508   1513     1
   1508   3188     1
   1509   1513     1
   1509   3188     1
   1510   3164     1
   1510   3166     1
   1511   3191     1
   1511   3193     1
   1512   3162     1
   1513   3189     1
   1516   1540     1
   1516   1524     1
   1516   1525     1
   1516   1527     1
   1516   1528     1
   1517   1539     1
   1517   1520     1
   1517   1521     1
   1517   1523     1
   1517   1526     1
   1518   1539     1
   1518   1520     1
   1518   1521     1
   1518   1523     1
   1518   1526     1
   1520   1522     1
   1520   1540     1
   1521   1522     1
   1521   1540     1
   1522   1533     1
   1522   1534     1
   1522   1530     1
   1522   1531     1
   1523   1527     1
   1523   1528     1
   1524   1526     1
   1524   1536     1
   1524   1533     1
   1524   1534     1
   1525   1526     1
   1525   1536     1
   1525   1533     1
   1525   1534     1
   1527   1535     1
   1527   1530     1
   1527   1531     1
   1528   1535     1
   1528   1530     1
   1528   1531     1
   1529   3216     1
   1530   3215     1
   1530   1537     1
   1531   3215     1
   1531   1537     1
   1532   3243     1
   1533   3242     1
   1533   1538     1
   1534   3242     1
   1534   1538     1
   1535   3218     1
   1535   3220     1
   1536   3245     1
   1536   3247     1
   1537   3216     1
   1538   3243     1
   1541   1547     1
   1541   1548     1
   1542   1545     1
   1542   1544     1
   1542   1546     1
   1544   1549     1
   1544   1547     1
   1544   1548     1
   1545   1560     1
   1545   1561     1
   1545   1552     1
   1545   1554     1
   1546   1549     1
   1546   1547     1
   1546   1548     1
   1547   1550     1
   1547   1551     1
   1548   1550     1
   1548   1551     1
   1549   1563     1
   1549   1564     1
   1549   1555     1
   1549   1556     1
   1550   1552     1
   1550   1554     1
   1551   1560     1
   1551   1561     1
   1552   1557     1
   1552   1555     1
   1552   1556     1
   1554   1557     1
   1554   1555     1
   1554   1556     1
   1555   1558     1
   1555   1559     1
   1556   1558     1
   1556   1559     1
   1560   1565     1
   1560   1563     1
   1560   1564     1
   1561   1565     1
   1561   1563     1
   1561   1564     1
   1563   1566     1
   1563   1567     1
   1564   1566     1
   1564   1567     1
   1568   1574     1
   1568   1575     1
   1569   1572     1
   1569   1571     1
   1569   1573     1
   1571   1576     1
   1571   1574     1
   1571   1575     1
   1572   1587     1
   1572   1588     1
   1572   1579     1
   1572   1581     1
   1573   1576     1
   1573   1574     1
   1573   1575     1
   1574   1577     1
   1574   1578     1
   1575   1577     1
   1575   1578     1
   1576   1590     1
   1576   1591     1
   1576   1582     1
   1576   1583     1
   1577   1579     1
   1577   1581     1
   1578   1587     1
   1578   1588     1
   1579   1584     1
   1579   1582     1
   1579   1583     1
   1581   1584     1
   1581   1582     1
   1581   1583     1
   1582   1585     1
   1582   1586     1
   1583   1585     1
   1583   1586     1
   1587   1592     1
   1587   1590     1
   1587   1591     1
   1588   1592     1
   1588   1590     1
   1588   1591     1
   1590   1593     1
   1590   1594     1
   1591   1593     1
   1591   1594     1
   1595   1601     1
   1595   1602     1
   1596   1599     1
   1596   1598     1
   1596   1600     1
   1598   1603     1
   1598   1601     1
   1598   1602     1
   1599   1614     1
   1599   1615     1
   1599   1606     1
   1599   1608     1
   1600   1603     1
   1600   1601     1
   1600   1602     1
   1601   1604     1
   1601   1605     1
   1602   1604     1
   1602   1605     1
   1603   1617     1
   1603   1618     1
   1603   1609     1
   1603   1610     1
   1604   1606     1
   1604   1608     1
   1605   1614     1
   1605   1615     1
   1606   1611     1
   1606   1609     1
   1606   1610     1
   1608   1611     1
   1608   1609     1
   1608   1610     1
   1609   1612     1
   1609   1613     1
   1610   1612     1
   1610   1613     1
   1614   1619     1
   1614   1617     1
   1614   1618     1
   1615   1619     1
   1615   1617     1
   1615   1618     1
   1617   1620     1
   1617   1621     1
   1618   1620     1
   1618   1621     1
   1622   1628     1
   1622   1629     1
   1623   1626     1
   1623   1625     1
   1623   1627     1
   1625   1630     1
   1625   1628     1
   1625   1629     1
   1626   1641     1
   1626   1642     1
   1626   1633     1
   1626   1635     1
   1627   1630     1
   1627   1628     1
   1627   1629     1
   1628   1631     1
   1628   1632     1
   1629   1631     1
   1629   1632     1
   1630   1644     1
   1630   1645     1
   1630   1636     1
   1630   1637     1
   1631   1633     1
   1631   1635     1
   1632   1641     1
   1632   1642     1
   1633   1638     1
   1633   1636     1
   1633   1637     1
   1635   1638     1
   1635   1636     1
   1635   1637     1
   1636   1639     1
   1636   1640     1
   1637   1639     1
   1637   1640     1
   1641   1646     1
   1641   1644     1
   1641   1645     1
   1642   1646     1
   1642   1644     1
   1642   1645     1
   1644   1647     1
   1644   1648     1
   1645   1647     1
   1645   1648     1
   1649   1655     1
   1649   1656     1
   1650   1653     1
   1650   1652     1
   1650   1654     1
   1652   1657     1
   1652   1655     1
   1652   1656     1
   1653   1668     1
   1653   1669     1
   1653   1660     1
   1653   1662     1
   1654   1657     1
   1654   1655     1
   1654   1656     1
   1655   1658     1
   1655   1659     1
   1656   1658     1
   1656   1659     1
   1657   1671     1
   1657   1672     1
   1657   1663     1
   1657   1664     1
   1658   1660     1
   1658   1662     1
   1659   1668     1
   1659   1669     1
   1660   1665     1
   1660   1663     1
   1660   1664     1
   1662   1665     1
   1662   1663     1
   1662   1664     1
   1663   1666     1
   1663   1667     1
   1664   1666     1
   1664   1667     1
   1668   1673     1
   1668   1671     1
   1668   1672     1
   1669   1673     1
   1669   1671     1
   1669   1672     1
   1671   1674     1
   1671   1675     1
   1672   1674     1
   1672   1675     1
   1676   1682     1
   1676   1683     1
   1677   1680     1
   1677   1679     1
   1677   1681     1
   1679   1684     1
   1679   1682     1
   1679   1683     1
   1680   1695     1
   1680   1696     1
   1680   1687     1
   1680   1689     1
   1681   1684     1
   1681   1682     1
   1681   1683     1
   1682   1685     1
   1682   1686     1
   1683   1685     1
   1683   1686     1
   1684   1698     1
   1684   1699     1
   1684   1690     1
   1684   1691     1
   1685   1687     1
   1685   1689     1
   1686   1695     1
   1686   1696     1
   1687   1692     1
   1687   1690     1
   1687   1691     1
   1689   1692     1
   1689   1690     1
   1689   1691     1
   1690   1693     1
   1690   1694     1
   1691   1693     1
   1691   1694     1
   1695   1700     1
   1695   1698     1
   1695   1699     1
   1696   1700     1
   1696   1698     1
   1696   1699     1
   1698   1701     1
   1698   1702     1
   1699   1701     1
   1699   1702     1
   1703   1709     1
   1703   1710     1
   1704   1707     1
   1704   1706     1
   1704   1708     1
   1706   1711     1
   1706   1709     1
   1706   1710     1
   1707   1722     1
   1707   1723     1
   1707   1714     1
   1707   1716     1
   1708   1711     1
   1708   1709     1
   1708   1710     1
   1709   1712     1
   1709   1713     1
   1710   1712     1
   1710   1713     1
   1711   1725     1
   1711   1726     1
   1711   1717     1
   1711   1718     1
   1712   1714     1
   1712   1716     1
   1713   1722     1
   1713   1723     1
   1714   1719     1
   1714   1717     1
   1714   1718     1
   1716   1719     1
   1716   1717     1
   1716   1718     1
   1717   1720     1
   1717   1721     1
   1718   1720     1
   1718   1721     1
   1722   1727     1
   1722   1725     1
   1722   1726     1
   1723   1727     1
   1723   1725     1
   1723   1726     1
   1725   1728     1
   1725   1729     1
   1726   1728     1
   1726   1729     1
   1730   1736     1
   1730   1737     1
   1731   1734     1
   1731   1733     1
   1731   1735     1
   1733   1738     1
   1733   1736     1
   1733   1737     1
   1734   1749     1
   1734   1750     1
   1734   1741     1
   1734   1743     1
   1735   1738     1
   1735   1736     1
   1735   1737     1
   1736   1739     1
   1736   1740     1
   1737   1739     1
   1737   1740     1
   1738   1752     1
   1738   1753     1
   1738   1744     1
   1738   1745     1
   1739   1741     1
   1739   1743     1
   1740   1749     1
   1740   1750     1
   1741   1746     1
   1741   1744     1
   1741   1745     1
   1743   1746     1
   1743   1744     1
   1743   1745     1
   1744   1747     1
   1744   1748     1
   1745   1747     1
   1745   1748     1
   1749   1754     1
   1749   1752     1
   1749   1753     1
   1750   1754     1
   1750   1752     1
   1750   1753     1
   1752   1755     1
   1752   1756     1
   1753   1755     1
   1753   1756     1
   1757   1763     1
   1757   1764     1
   1758   1761     1
   1758   1760     1
   1758   1762     1
   1760   1765     1
   1760   1763     1
   1760   1764     1
   1761   1776     1
   1761   1777     1
   1761   1768     1
   1761   1770     1
   1762   1765     1
   1762   1763     1
   1762   1764     1
   1763   1766     1
   1763   1767     1
   1764   1766     1
   1764   1767     1
   1765   1779     1
   1765   1780     1
   1765   1771     1
   1765   1772     1
   1766   1768     1
   1766   1770     1
   1767   1776     1
   1767   1777     1
   1768   1773     1
   1768   1771     1
   1768   1772     1
   1770   1773     1
   1770   1771     1
   1770   1772     1
   1771   1774     1
   1771   1775     1
   1772   1774     1
   1772   1775     1
   1776   1781     1
   1776   1779     1
   1776   1780     1
   1777   1781     1
   1777   1779     1
   1777   1780     1
   1779   1782     1
   1779   1783     1
   1780   1782     1
   1780   1783     1
   1784   1790     1
   1784   1791     1
   1785   1788     1
   1785   1787     1
   1785   1789     1
   1787   1792     1
   1787   1790     1
   1787   1791     1
   1788   1803     1
   1788   1804     1
   1788   1795     1
   1788   1797     1
   1789   1792     1
   1789   1790     1
   1789   1791     1
   1790   1793     1
   1790   1794     1
   1791   1793     1
   1791   1794     1
   1792   1806     1
   1792   1807     1
   1792   1798     1
   1792   1799     1
   1793   1795     1
   1793   1797     1
   1794   1803     1
   1794   1804     1
   1795   1800     1
   1795   1798     1
   1795   1799     1
   1797   1800     1
   1797   1798     1
   1797   1799     1
   1798   1801     1
   1798   1802     1
   1799   1801     1
   1799   1802     1
   1803   1808     1
   1803   1806     1
   1803   1807     1
   1804   1808     1
   1804   1806     1
   1804   1807     1
   1806   1809     1
   1806   1810     1
   1807   1809     1
   1807   1810     1
   1811   1817     1
   1811   1818     1
   1812   1815     1
   1812   1814     1
   1812   1816     1
   1814   1819     1
   1814   1817     1
   1814   1818     1
   1815   1830     1
   1815   1831     1
   1815   1822     1
   1815   1824     1
   1816   1819     1
   1816   1817     1
   1816   1818     1
   1817   1820     1
   1817   1821     1
   1818   1820     1
   1818   1821     1
   1819   1833     1
   1819   1834     1
   1819   1825     1
   1819   1826     1
   1820   1822     1
   1820   1824     1
   1821   1830     1
   1821   1831     1
   1822   1827     1
   1822   1825     1
   1822   1826     1
   1824   1827     1
   1824   1825     1
   1824   1826     1
   1825   1828     1
   1825   1829     1
   1826   1828     1
   1826   1829     1
   1830   1835     1
   1830   1833     1
   1830   1834     1
   1831   1835     1
   1831   1833     1
   1831   1834     1
   1833   1836     1
   1833   1837     1
   1834   1836     1
   1834   1837     1
   1838   1844     1
   1838   1845     1
   1839   1842     1
   1839   1841     1
   1839   1843     1
   1841   1846     1
   1841   1844     1
   1841   1845     1
   1842   1857     1
   1842   1858     1
   1842   1849     1
   1842   1851     1
   1843   1846     1
   1843   1844     1
   1843   1845     1
   1844   1847     1
   1844   1848     1
   1845   1847     1
   1845   1848     1
   1846   1860     1
   1846   1861     1
   1846   1852     1
   1846   1853     1
   1847   1849     1
   1847   1851     1
   1848   1857     1
   1848   1858     1
   1849   1854     1
   1849   1852     1
   1849   1853     1
   1851   1854     1
   1851   1852     1
   1851   1853     1
   1852   1855     1
   1852   1856     1
   1853   1855     1
   1853   1856     1
   1857   1862     1
   1857   1860     1
   1857   1861     1
   1858   1862     1
   1858   1860     1
   1858   1861     1
   1860   1863     1
   1860   1864     1
   1861   1863     1
   1861   1864     1
   1865   1871     1
   1865   1872     1
   1866   1869     1
   1866   1868     1
   1866   1870     1
   1868   1873     1
   1868   1871     1
   1868   1872     1
   1869   1884     1
   1869   1885     1
   1869   1876     1
   1869   1878     1
   1870   1873     1
   1870   1871     1
   1870   1872     1
   1871   1874     1
   1871   1875     1
   1872   1874     1
   1872   1875     1
   1873   1887     1
   1873   1888     1
   1873   1879     1
   1873   1880     1
   1874   1876     1
   1874   1878     1
   1875   1884     1
   1875   1885     1
   1876   1881     1
   1876   1879     1
   1876   1880     1
   1878   1881     1
   1878   1879     1
   1878   1880     1
   1879   1882     1
   1879   1883     1
   1880   1882     1
   1880   1883     1
   1884   1889     1
   1884   1887     1
   1884   1888     1
   1885   1889     1
   1885   1887     1
   1885   1888     1
   1887   1890     1
   1887   1891     1
   1888   1890     1
   1888   1891     1
   1892   1898     1
   1892   1899     1
   1893   1896     1
   1893   1895     1
   1893   1897     1
   1895   1900     1
   1895   1898     1
   1895   1899     1
   1896   1911     1
   1896   1912     1
   1896   1903     1
   1896   1905     1
   1897   1900     1
   1897   1898     1
   1897   1899     1
   1898   1901     1
   1898   1902     1
   1899   1901     1
   1899   1902     1
   1900   1914     1
   1900   1915     1
   1900   1906     1
   1900   1907     1
   1901   1903     1
   1901   1905     1
   1902   1911     1
   1902   1912     1
   1903   1908     1
   1903   1906     1
   1903   1907     1
   1905   1908     1
   1905   1906     1
   1905   1907     1
   1906   1909     1
   1906   1910     1
   1907   1909     1
   1907   1910     1
   1911   1916     1
   1911   1914     1
   1911   1915     1
   1912   1916     1
   1912   1914     1
   1912   1915     1
   1914   1917     1
   1914   1918     1
   1915   1917     1
   1915   1918     1
   1919   1925     1
   1919   1926     1
   1920   1923     1
   1920   1922     1
   1920   1924     1
   1922   1927     1
   1922   1925     1
   1922   1926     1
   1923   1938     1
   1923   1939     1
   1923   1930     1
   1923   1932     1
   1924   1927     1
   1924   1925     1
   1924   1926     1
   1925   1928     1
   1925   1929     1
   1926   1928     1
   1926   1929     1
   1927   1941     1
   1927   1942     1
   1927   1933     1
   1927   1934     1
   1928   1930     1
   1928   1932     1
   1929   1938     1
   1929   1939     1
   1930   1935     1
   1930   1933     1
   1930   1934     1
   1932   1935     1
   1932   1933     1
   1932   1934     1
   1933   1936     1
   1933   1937     1
   1934   1936     1
   1934   1937     1
   1938   1943     1
   1938   1941     1
   1938   1942     1
   1939   1943     1
   1939   1941     1
   1939   1942     1
   1941   1944     1
   1941   1945     1
   1942   1944     1
   1942   1945     1
   1946   1952     1
   1946   1953     1
   1947   1950     1
   1947   1949     1
   1947   1951     1
   1949   1954     1
   1949   1952     1
   1949   1953     1
   1950   1965     1
   1950   1966     1
   1950   1957     1
   1950   1959     1
   1951   1954     1
   1951   1952     1
   1951   1953     1
   1952   1955     1
   1952   1956     1
   1953   1955     1
   1953   1956     1
   1954   1968     1
   1954   1969     1
   1954   1960     1
   1954   1961     1
   1955   1957     1
   1955   1959     1
   1956   1965     1
   1956   1966     1
   1957   1962     1
   1957   1960     1
   1957   1961     1
   1959   1962     1
   1959   1960     1
   1959   1961     1
   1960   1963     1
   1960   1964     1
   1961   1963     1
   1961   1964     1
   1965   1970     1
   1965   1968     1
   1965   1969     1
   1966   1970     1
   1966   1968     1
   1966   1969     1
   1968   1971     1
   1968   1972     1
   1969   1971     1
   1969   1972     1
   1973   1979     1
   1973   1980     1
   1974   1977     1
   1974   1976     1
   1974   1978     1
   1976   1981     1
   1976   1979     1
   1976   1980     1
   1977   1992     1
   1977   1993     1
   1977   1984     1
   1977   1986     1
   1978   1981     1
   1978   1979     1
   1978   1980     1
   1979   1982     1
   1979   1983     1
   1980   1982     1
   1980   1983     1
   1981   1995     1
   1981   1996     1
   1981   1987     1
   1981   1988     1
   1982   1984     1
   1982   1986     1
   1983   1992     1
   1983   1993     1
   1984   1989     1
   1984   1987     1
   1984   1988     1
   1986   1989     1
   1986   1987     1
   1986   1988     1
   1987   1990     1
   1987   1991     1
   1988   1990     1
   1988   1991     1
   1992   1997     1
   1992   1995     1
   1992   1996     1
   1993   1997     1
   1993   1995     1
   1993   1996     1
   1995   1998     1
   1995   1999     1
   1996   1998     1
   1996   1999     1
   2000   2006     1
   2000   2007     1
   2001   2004     1
   2001   2003     1
   2001   2005     1
   2003   2008     1
   2003   2006     1
   2003   2007     1
   2004   2019     1
   2004   2020     1
   2004   2011     1
   2004   2013     1
   2005   2008     1
   2005   2006     1
   2005   2007     1
   2006   2009     1
   2006   2010     1
   2007   2009     1
   2007   2010     1
   2008   2022     1
   2008   2023     1
   2008   2014     1
   2008   2015     1
   2009   2011     1
   2009   2013     1
   2010   2019     1
   2010   2020     1
   2011   2016     1
   2011   2014     1
   2011   2015     1
   2013   2016     1
   2013   2014     1
   2013   2015     1
   2014   2017     1
   2014   2018     1
   2015   2017     1
   2015   2018     1
   2019   2024     1
   2019   2022     1
   2019   2023     1
   2020   2024     1
   2020   2022     1
   2020   2023     1
   2022   2025     1
   2022   2026     1
   2023   2025     1
   2023   2026     1
   2027   2033     1
   2027   2034     1
   2028   2031     1
   2028   2030     1
   2028   2032     1
   2030   2035     1
   2030   2033     1
   2030   2034     1
   2031   2046     1
   2031   2047     1
   2031   2038     1
   2031   2040     1
   2032   2035     1
   2032   2033     1
   2032   2034     1
   2033   2036     1
   2033   2037     1
   2034   2036     1
   2034   2037     1
   2035   2049     1
   2035   2050     1
   2035   2041     1
   2035   2042     1
   2036   2038     1
   2036   2040     1
   2037   2046     1
   2037   2047     1
   2038   2043     1
   2038   2041     1
   2038   2042     1
   2040   2043     1
   2040   2041     1
   2040   2042     1
   2041   2044     1
   2041   2045     1
   2042   2044     1
   2042   2045     1
   2046   2051     1
   2046   2049     1
   2046   2050     1
   2047   2051     1
   2047   2049     1
   2047   2050     1
   2049   2052     1
   2049   2053     1
   2050   2052     1
   2050   2053     1
   2054   2060     1
   2054   2061     1
   2055   2058     1
   2055   2057     1
   2055   2059     1
   2057   2062     1
   2057   2060     1
   2057   2061     1
   2058   2073     1
   2058   2074     1
   2058   2065     1
   2058   2067     1
   2059   2062     1
   2059   2060     1
   2059   2061     1
   2060   2063     1
   2060   2064     1
   2061   2063     1
   2061   2064     1
   2062   2076     1
   2062   2077     1
   2062   2068     1
   2062   2069     1
   2063   2065     1
   2063   2067     1
   2064   2073     1
   2064   2074     1
   2065   2070     1
   2065   2068     1
   2065   2069     1
   2067   2070     1
   2067   2068     1
   2067   2069     1
   2068   2071     1
   2068   2072     1
   2069   2071     1
   2069   2072     1
   2073   2078     1
   2073   2076     1
   2073   2077     1
   2074   2078     1
   2074   2076     1
   2074   2077     1
   2076   2079     1
   2076   2080     1
   2077   2079     1
   2077   2080     1
   2081   2087     1
   2081   2088     1
   2082   2085     1
   2082   2084     1
   2082   2086     1
   2084   2089     1
   2084   2087     1
   2084   2088     1
   2085   2100     1
   2085   2101     1
   2085   2092     1
   2085   2094     1
   2086   2089     1
   2086   2087     1
   2086   2088     1
   2087   2090     1
   2087   2091     1
   2088   2090     1
   2088   2091     1
   2089   2103     1
   2089   2104     1
   2089   2095     1
   2089   2096     1
   2090   2092     1
   2090   2094     1
   2091   2100     1
   2091   2101     1
   2092   2097     1
   2092   2095     1
   2092   2096     1
   2094   2097     1
   2094   2095     1
   2094   2096     1
   2095   2098     1
   2095   2099     1
   2096   2098     1
   2096   2099     1
   2100   2105     1
   2100   2103     1
   2100   2104     1
   2101   2105     1
   2101   2103     1
   2101   2104     1
   2103   2106     1
   2103   2107     1
   2104   2106     1
   2104   2107     1
   2108   2114     1
   2108   2115     1
   2109   2112     1
   2109   2111     1
   2109   2113     1
   2111   2116     1
   2111   2114     1
   2111   2115     1
   2112   2127     1
   2112   2128     1
   2112   2119     1
   2112   2121     1
   2113   2116     1
   2113   2114     1
   2113   2115     1
   2114   2117     1
   2114   2118     1
   2115   2117     1
   2115   2118     1
   2116   2130     1
   2116   2131     1
   2116   2122     1
   2116   2123     1
   2117   2119     1
   2117   2121     1
   2118   2127     1
   2118   2128     1
   2119   2124     1
   2119   2122     1
   2119   2123     1
   2121   2124     1
   2121   2122     1
   2121   2123     1
   2122   2125     1
   2122   2126     1
   2123   2125     1
   2123   2126     1
   2127   2132     1
   2127   2130     1
   2127   2131     1
   2128   2132     1
   2128   2130     1
   2128   2131     1
   2130   2133     1
   2130   2134     1
   2131   2133     1
   2131   2134     1
   2135   2141     1
   2135   2142     1
   2136   2139     1
   2136   2138     1
   2136   2140     1
   2138   2143     1
   2138   2141     1
   2138   2142     1
   2139   2154     1
   2139   2155     1
   2139   2146     1
   2139   2148     1
   2140   2143     1
   2140   2141     1
   2140   2142     1
   2141   2144     1
   2141   2145     1
   2142   2144     1
   2142   2145     1
   2143   2157     1
   2143   2158     1
   2143   2149     1
   2143   2150     1
   2144   2146     1
   2144   2148     1
   2145   2154     1
   2145   2155     1
   2146   2151     1
   2146   2149     1
   2146   2150     1
   2148   2151     1
   2148   2149     1
   2148   2150     1
   2149   2152     1
   2149   2153     1
   2150   2152     1
   2150   2153     1
   2154   2159     1
   2154   2157     1
   2154   2158     1
   2155   2159     1
   2155   2157     1
   2155   2158     1
   2157   2160     1
   2157   2161     1
   2158   2160     1
   2158   2161     1
   2162   2168     1
   2162   2169     1
   2163   2166     1
   2163   2165     1
   2163   2167     1
   2165   2170     1
   2165   2168     1
   2165   2169     1
   2166   2181     1
   2166   2182     1
   2166   2173     1
   2166   2175     1
   2167   2170     1
   2167   2168     1
   2167   2169     1
   2168   2171     1
   2168   2172     1
   2169   2171     1
   2169   2172     1
   2170   2184     1
   2170   2185     1
   2170   2176     1
   2170   2177     1
   2171   2173     1
   2171   2175     1
   2172   2181     1
   2172   2182     1
   2173   2178     1
   2173   2176     1
   2173   2177     1
   2175   2178     1
   2175   2176     1
   2175   2177     1
   2176   2179     1
   2176   2180     1
   2177   2179     1
   2177   2180     1
   2181   2186     1
   2181   2184     1
   2181   2185     1
   2182   2186     1
   2182   2184     1
   2182   2185     1
   2184   2187     1
   2184   2188     1
   2185   2187     1
   2185   2188     1
   2189   2195     1
   2189   2196     1
   2190   2193     1
   2190   2192     1
   2190   2194     1
   2192   2197     1
   2192   2195     1
   2192   2196     1
   2193   2208     1
   2193   2209     1
   2193   2200     1
   2193   2202     1
   2194   2197     1
   2194   2195     1
   2194   2196     1
   2195   2198     1
   2195   2199     1
   2196   2198     1
   2196   2199     1
   2197   2211     1
   2197   2212     1
   2197   2203     1
   2197   2204     1
   2198   2200     1
   2198   2202     1
   2199   2208     1
   2199   2209     1
   2200   2205     1
   2200   2203     1
   2200   2204     1
   2202   2205     1
   2202   2203     1
   2202   2204     1
   2203   2206     1
   2203   2207     1
   2204   2206     1
   2204   2207     1
   2208   2213     1
   2208   2211     1
   2208   2212     1
   2209   2213     1
   2209   2211     1
   2209   2212     1
   2211   2214     1
   2211   2215     1
   2212   2214     1
   2212   2215     1
   2216   2222     1
   2216   2223     1
   2217   2220     1
   2217   2219     1
   2217   2221     1
   2219   2224     1
   2219   2222     1
   2219   2223     1
   2220   2235     1
   2220   2236     1
   2220   2227     1
   2220   2229     1
   2221   2224     1
   2221   2222     1
   2221   2223     1
   2222   2225     1
   2222   2226     1
   2223   2225     1
   2223   2226     1
   2224   2238     1
   2224   2239     1
   2224   2230     1
   2224   2231     1
   2225   2227     1
   2225   2229     1
   2226   2235     1
   2226   2236     1
   2227   2232     1
   2227   2230     1
   2227   2231     1
   2229   2232     1
   2229   2230     1
   2229   2231     1
   2230   2233     1
   2230   2234     1
   2231   2233     1
   2231   2234     1
   2235   2240     1
   2235   2238     1
   2235   2239     1
   2236   2240     1
   2236   2238     1
   2236   2239     1
   2238   2241     1
   2238   2242     1
   2239   2241     1
   2239   2242     1
   2243   2249     1
   2243   2250     1
   2244   2247     1
   2244   2246     1
   2244   2248     1
   2246   2251     1
   2246   2249     1
   2246   2250     1
   2247   2262     1
   2247   2263     1
   2247   2254     1
   2247   2256     1
   2248   2251     1
   2248   2249     1
   2248   2250     1
   2249   2252     1
   2249   2253     1
   2250   2252     1
   2250   2253     1
   2251   2265     1
   2251   2266     1
   2251   2257     1
   2251   2258     1
   2252   2254     1
   2252   2256     1
   2253   2262     1
   2253   2263     1
   2254   2259     1
   2254   2257     1
   2254   2258     1
   2256   2259     1
   2256   2257     1
   2256   2258     1
   2257   2260     1
   2257   2261     1
   2258   2260     1
   2258   2261     1
   2262   2267     1
   2262   2265     1
   2262   2266     1
   2263   2267     1
   2263   2265     1
   2263   2266     1
   2265   2268     1
   2265   2269     1
   2266   2268     1
   2266   2269     1
   2270   2276     1
   2270   2277     1
   2271   2274     1
   2271   2273     1
   2271   2275     1
   2273   2278     1
   2273   2276     1
   2273   2277     1
   2274   2289     1
   2274   2290     1
   2274   2281     1
   2274   2283     1
   2275   2278     1
   2275   2276     1
   2275   2277     1
   2276   2279     1
   2276   2280     1
   2277   2279     1
   2277   2280     1
   2278   2292     1
   2278   2293     1
   2278   2284     1
   2278   2285     1
   2279   2281     1
   2279   2283     1
   2280   2289     1
   2280   2290     1
   2281   2286     1
   2281   2284     1
   2281   2285     1
   2283   2286     1
   2283   2284     1
   2283   2285     1
   2284   2287     1
   2284   2288     1
   2285   2287     1
   2285   2288     1
   2289   2294     1
   2289   2292     1
   2289   2293     1
   2290   2294     1
   2290   2292     1
   2290   2293     1
   2292   2295     1
   2292   2296     1
   2293   2295     1
   2293   2296     1
   2297   2303     1
   2297   2304     1
   2298   2301     1
   2298   2300     1
   2298   2302     1
   2300   2305     1
   2300   2303     1
   2300   2304     1
   2301   2316     1
   2301   2317     1
   2301   2308     1
   2301   2310     1
   2302   2305     1
   2302   2303     1
   2302   2304     1
   2303   2306     1
   2303   2307     1
   2304   2306     1
   2304   2307     1
   2305   2319     1
   2305   2320     1
   2305   2311     1
   2305   2312     1
   2306   2308     1
   2306   2310     1
   2307   2316     1
   2307   2317     1
   2308   2313     1
   2308   2311     1
   2308   2312     1
   2310   2313     1
   2310   2311     1
   2310   2312     1
   2311   2314     1
   2311   2315     1
   2312   2314     1
   2312   2315     1
   2316   2321     1
   2316   2319     1
   2316   2320     1
   2317   2321     1
   2317   2319     1
   2317   2320     1
   2319   2322     1
   2319   2323     1
   2320   2322     1
   2320   2323     1
   2324   2330     1
   2324   2331     1
   2325   2328     1
   2325   2327     1
   2325   2329     1
   2327   2332     1
   2327   2330     1
   2327   2331     1
   2328   2343     1
   2328   2344     1
   2328   2335     1
   2328   2337     1
   2329   2332     1
   2329   2330     1
   2329   2331     1
   2330   2333     1
   2330   2334     1
   2331   2333     1
   2331   2334     1
   2332   2346     1
   2332   2347     1
   2332   2338     1
   2332   2339     1
   2333   2335     1
   2333   2337     1
   2334   2343     1
   2334   2344     1
   2335   2340     1
   2335   2338     1
   2335   2339     1
   2337   2340     1
   2337   2338     1
   2337   2339     1
   2338   2341     1
   2338   2342     1
   2339   2341     1
   2339   2342     1
   2343   2348     1
   2343   2346     1
   2343   2347     1
   2344   2348     1
   2344   2346     1
   2344   2347     1
   2346   2349     1
   2346   2350     1
   2347   2349     1
   2347   2350     1
   2351   2357     1
   2351   2358     1
   2352   2355     1
   2352   2354     1
   2352   2356     1
   2354   2359     1
   2354   2357     1
   2354   2358     1
   2355   2370     1
   2355   2371     1
   2355   2362     1
   2355   2364     1
   2356   2359     1
   2356   2357     1
   2356   2358     1
   2357   2360     1
   2357   2361     1
   2358   2360     1
   2358   2361     1
   2359   2373     1
   2359   2374     1
   2359   2365     1
   2359   2366     1
   2360   2362     1
   2360   2364     1
   2361   2370     1
   2361   2371     1
   2362   2367     1
   2362   2365     1
   2362   2366     1
   2364   2367     1
   2364   2365     1
   2364   2366     1
   2365   2368     1
   2365   2369     1
   2366   2368     1
   2366   2369     1
   2370   2375     1
   2370   2373     1
   2370   2374     1
   2371   2375     1
   2371   2373     1
   2371   2374     1
   2373   2376     1
   2373   2377     1
   2374   2376     1
   2374   2377     1
   2378   2384     1
   2378   2385     1
   2379   2382     1
   2379   2381     1
   2379   2383     1
   2381   2386     1
   2381   2384     1
   2381   2385     1
   2382   2397     1
   2382   2398     1
   2382   2389     1
   2382   2391     1
   2383   2386     1
   2383   2384     1
   2383   2385     1
   2384   2387     1
   2384   2388     1
   2385   2387     1
   2385   2388     1
   2386   2400     1
   2386   2401     1
   2386   2392     1
   2386   2393     1
   2387   2389     1
   2387   2391     1
   2388   2397     1
   2388   2398     1
   2389   2394     1
   2389   2392     1
   2389   2393     1
   2391   2394     1
   2391   2392     1
   2391   2393     1
   2392   2395     1
   2392   2396     1
   2393   2395     1
   2393   2396     1
   2397   2402     1
   2397   2400     1
   2397   2401     1
   2398   2402     1
   2398   2400     1
   2398   2401     1
   2400   2403     1
   2400   2404     1
   2401   2403     1
   2401   2404     1
   2405   2411     1
   2405   2412     1
   2406   2409     1
   2406   2408     1
   2406   2410     1
   2408   2413     1
   2408   2411     1
   2408   2412     1
   2409   2424     1
   2409   2425     1
   2409   2416     1
   2409   2418     1
   2410   2413     1
   2410   2411     1
   2410   2412     1
   2411   2414     1
   2411   2415     1
   2412   2414     1
   2412   2415     1
   2413   2427     1
   2413   2428     1
   2413   2419     1
   2413   2420     1
   2414   2416     1
   2414   2418     1
   2415   2424     1
   2415   2425     1
   2416   2421     1
   2416   2419     1
   2416   2420     1
   2418   2421     1
   2418   2419     1
   2418   2420     1
   2419   2422     1
   2419   2423     1
   2420   2422     1
   2420   2423     1
   2424   2429     1
   2424   2427     1
   2424   2428     1
   2425   2429     1
   2425   2427     1
   2425   2428     1
   2427   2430     1
   2427   2431     1
   2428   2430     1
   2428   2431     1
   2432   2438     1
   2432   2439     1
   2433   2436     1
   2433   2435     1
   2433   2437     1
   2435   2440     1
   2435   2438     1
   2435   2439     1
   2436   2451     1
   2436   2452     1
   2436   2443     1
   2436   2445     1
   2437   2440     1
   2437   2438     1
   2437   2439     1
   2438   2441     1
   2438   2442     1
   2439   2441     1
   2439   2442     1
   2440   2454     1
   2440   2455     1
   2440   2446     1
   2440   2447     1
   2441   2443     1
   2441   2445     1
   2442   2451     1
   2442   2452     1
   2443   2448     1
   2443   2446     1
   2443   2447     1
   2445   2448     1
   2445   2446     1
   2445   2447     1
   2446   2449     1
   2446   2450     1
   2447   2449     1
   2447   2450     1
   2451   2456     1
   2451   2454     1
   2451   2455     1
   2452   2456     1
   2452   2454     1
   2452   2455     1
   2454   2457     1
   2454   2458     1
   2455   2457     1
   2455   2458     1
   2459   2465     1
   2459   2466     1
   2460   2463     1
   2460   2462     1
   2460   2464     1
   2462   2467     1
   2462   2465     1
   2462   2466     1
   2463   2478     1
   2463   2479     1
   2463   2470     1
   2463   2472     1
   2464   2467     1
   2464   2465     1
   2464   2466     1
   2465   2468     1
   2465   2469     1
   2466   2468     1
   2466   2469     1
   2467   2481     1
   2467   2482     1
   2467   2473     1
   2467   2474     1
   2468   2470     1
   2468   2472     1
   2469   2478     1
   2469   2479     1
   2470   2475     1
   2470   2473     1
   2470   2474     1
   2472   2475     1
   2472   2473     1
   2472   2474     1
   2473   2476     1
   2473   2477     1
   2474   2476     1
   2474   2477     1
   2478   2483     1
   2478   2481     1
   2478   2482     1
   2479   2483     1
   2479   2481     1
   2479   2482     1
   2481   2484     1
   2481   2485     1
   2482   2484     1
   2482   2485     1
   2486   2492     1
   2486   2493     1
   2487   2490     1
   2487   2489     1
   2487   2491     1
   2489   2494     1
   2489   2492     1
   2489   2493     1
   2490   2505     1
   2490   2506     1
   2490   2497     1
   2490   2499     1
   2491   2494     1
   2491   2492     1
   2491   2493     1
   2492   2495     1
   2492   2496     1
   2493   2495     1
   2493   2496     1
   2494   2508     1
   2494   2509     1
   2494   2500     1
   2494   2501     1
   2495   2497     1
   2495   2499     1
   2496   2505     1
   2496   2506     1
   2497   2502     1
   2497   2500     1
   2497   2501     1
   2499   2502     1
   2499   2500     1
   2499   2501     1
   2500   2503     1
   2500   2504     1
   2501   2503     1
   2501   2504     1
   2505   2510     1
   2505   2508     1
   2505   2509     1
   2506   2510     1
   2506   2508     1
   2506   2509     1
   2508   2511     1
   2508   2512     1
   2509   2511     1
   2509   2512     1
   2513   2519     1
   2513   2520     1
   2514   2517     1
   2514   2516     1
   2514   2518     1
   2516   2521     1
   2516   2519     1
   2516   2520     1
   2517   2532     1
   2517   2533     1
   2517   2524     1
   2517   2526     1
   2518   2521     1
   2518   2519     1
   2518   2520     1
   2519   2522     1
   2519   2523     1
   2520   2522     1
   2520   2523     1
   2521   2535     1
   2521   2536     1
   2521   2527     1
   2521   2528     1
   2522   2524     1
   2522   2526     1
   2523   2532     1
   2523   2533     1
   2524   2529     1
   2524   2527     1
   2524   2528     1
   2526   2529     1
   2526   2527     1
   2526   2528     1
   2527   2530     1
   2527   2531     1
   2528   2530     1
   2528   2531     1
   2532   2537     1
   2532   2535     1
   2532   2536     1
   2533   2537     1
   2533   2535     1
   2533   2536     1
   2535   2538     1
   2535   2539     1
   2536   2538     1
   2536   2539     1
   2540   2546     1
   2540   2547     1
   2541   2544     1
   2541   2543     1
   2541   2545     1
   2543   2548     1
   2543   2546     1
   2543   2547     1
   2544   2559     1
   2544   2560     1
   2544   2551     1
   2544   2553     1
   2545   2548     1
   2545   2546     1
   2545   2547     1
   2546   2549     1
   2546   2550     1
   2547   2549     1
   2547   2550     1
   2548   2562     1
   2548   2563     1
   2548   2554     1
   2548   2555     1
   2549   2551     1
   2549   2553     1
   2550   2559     1
   2550   2560     1
   2551   2556     1
   2551   2554     1
   2551   2555     1
   2553   2556     1
   2553   2554     1
   2553   2555     1
   2554   2557     1
   2554   2558     1
   2555   2557     1
   2555   2558     1
   2559   2564     1
   2559   2562     1
   2559   2563     1
   2560   2564     1
   2560   2562     1
   2560   2563     1
   2562   2565     1
   2562   2566     1
   2563   2565     1
   2563   2566     1
   2567   2573     1
   2567   2574     1
   2568   2571     1
   2568   2570     1
   2568   2572     1
   2570   2575     1
   2570   2573     1
   2570   2574     1
   2571   2586     1
   2571   2587     1
   2571   2578     1
   2571   2580     1
   2572   2575     1
   2572   2573     1
   2572   2574     1
   2573   2576     1
   2573   2577     1
   2574   2576     1
   2574   2577     1
   2575   2589     1
   2575   2590     1
   2575   2581     1
   2575   2582     1
   2576   2578     1
   2576   2580     1
   2577   2586     1
   2577   2587     1
   2578   2583     1
   2578   2581     1
   2578   2582     1
   2580   2583     1
   2580   2581     1
   2580   2582     1
   2581   2584     1
   2581   2585     1
   2582   2584     1
   2582   2585     1
   2586   2591     1
   2586   2589     1
   2586   2590     1
   2587   2591     1
   2587   2589     1
   2587   2590     1
   2589   2592     1
   2589   2593     1
   2590   2592     1
   2590   2593     1
   2594   2600     1
   2594   2601     1
   2595   2598     1
   2595   2597     1
   2595   2599     1
   2597   2602     1
   2597   2600     1
   2597   2601     1
   2598   2613     1
   2598   2614     1
   2598   2605     1
   2598   2607     1
   2599   2602     1
   2599   2600     1
   2599   2601     1
   2600   2603     1
   2600   2604     1
   2601   2603     1
   2601   2604     1
   2602   2616     1
   2602   2617     1
   2602   2608     1
   2602   2609     1
   2603   2605     1
   2603   2607     1
   2604   2613     1
   2604   2614     1
   2605   2610     1
   2605   2608     1
   2605   2609     1
   2607   2610     1
   2607   2608     1
   2607   2609     1
   2608   2611     1
   2608   2612     1
   2609   2611     1
   2609   2612     1
   2613   2618     1
   2613   2616     1
   2613   2617     1
   2614   2618     1
   2614   2616     1
   2614   2617     1
   2616   2619     1
   2616   2620     1
   2617   2619     1
   2617   2620     1
   2621   2627     1
   2621   2628     1
   2622   2625     1
   2622   2624     1
   2622   2626     1
   2624   2629     1
   2624   2627     1
   2624   2628     1
   2625   2640     1
   2625   2641     1
   2625   2632     1
   2625   2634     1
   2626   2629     1
   2626   2627     1
   2626   2628     1
   2627   2630     1
   2627   2631     1
   2628   2630     1
   2628   2631     1
   2629   2643     1
   2629   2644     1
   2629   2635     1
   2629   2636     1
   2630   2632     1
   2630   2634     1
   2631   2640     1
   2631   2641     1
   2632   2637     1
   2632   2635     1
   2632   2636     1
   2634   2637     1
   2634   2635     1
   2634   2636     1
   2635   2638     1
   2635   2639     1
   2636   2638     1
   2636   2639     1
   2640   2645     1
   2640   2643     1
   2640   2644     1
   2641   2645     1
   2641   2643     1
   2641   2644     1
   2643   2646     1
   2643   2647     1
   2644   2646     1
   2644   2647     1
   2648   2654     1
   2648   2655     1
   2649   2652     1
   2649   2651     1
   2649   2653     1
   2651   2656     1
   2651   2654     1
   2651   2655     1
   2652   2667     1
   2652   2668     1
   2652   2659     1
   2652   2661     1
   2653   2656     1
   2653   2654     1
   2653   2655     1
   2654   2657     1
   2654   2658     1
   2655   2657     1
   2655   2658     1
   2656   2670     1
   2656   2671     1
   2656   2662     1
   2656   2663     1
   2657   2659     1
   2657   2661     1
   2658   2667     1
   2658   2668     1
   2659   2664     1
   2659   2662     1
   2659   2663     1
   2661   2664     1
   2661   2662     1
   2661   2663     1
   2662   2665     1
   2662   2666     1
   2663   2665     1
   2663   2666     1
   2667   2672     1
   2667   2670     1
   2667   2671     1
   2668   2672     1
   2668   2670     1
   2668   2671     1
   2670   2673     1
   2670   2674     1
   2671   2673     1
   2671   2674     1
   2675   2681     1
   2675   2682     1
   2676   2679     1
   2676   2678     1
   2676   2680     1
   2678   2683     1
   2678   2681     1
   2678   2682     1
   2679   2694     1
   2679   2695     1
   2679   2686     1
   2679   2688     1
   2680   2683     1
   2680   2681     1
   2680   2682     1
   2681   2684     1
   2681   2685     1
   2682   2684     1
   2682   2685     1
   2683   2697     1
   2683   2698     1
   2683   2689     1
   2683   2690     1
   2684   2686     1
   2684   2688     1
   2685   2694     1
   2685   2695     1
   2686   2691     1
   2686   2689     1
   2686   2690     1
   2688   2691     1
   2688   2689     1
   2688   2690     1
   2689   2692     1
   2689   2693     1
   2690   2692     1
   2690   2693     1
   2694   2699     1
   2694   2697     1
   2694   2698     1
   2695   2699     1
   2695   2697     1
   2695   2698     1
   2697   2700     1
   2697   2701     1
   2698   2700     1
   2698   2701     1
   2702   2708     1
   2702   2709     1
   2703   2706     1
   2703   2705     1
   2703   2707     1
   2705   2710     1
   2705   2708     1
   2705   2709     1
   2706   2721     1
   2706   2722     1
   2706   2713     1
   2706   2715     1
   2707   2710     1
   2707   2708     1
   2707   2709     1
   2708   2711     1
   2708   2712     1
   2709   2711     1
   2709   2712     1
   2710   2724     1
   2710   2725     1
   2710   2716     1
   2710   2717     1
   2711   2713     1
   2711   2715     1
   2712   2721     1
   2712   2722     1
   2713   2718     1
   2713   2716     1
   2713   2717     1
   2715   2718     1
   2715   2716     1
   2715   2717     1
   2716   2719     1
   2716   2720     1
   2717   2719     1
   2717   2720     1
   2721   2726     1
   2721   2724     1
   2721   2725     1
   2722   2726     1
   2722   2724     1
   2722   2725     1
   2724   2727     1
   2724   2728     1
   2725   2727     1
   2725   2728     1
   2729   2735     1
   2729   2736     1
   2730   2733     1
   2730   2732     1
   2730   2734     1
   2732   2737     1
   2732   2735     1
   2732   2736     1
   2733   2748     1
   2733   2749     1
   2733   2740     1
   2733   2742     1
   2734   2737     1
   2734   2735     1
   2734   2736     1
   2735   2738     1
   2735   2739     1
   2736   2738     1
   2736   2739     1
   2737   2751     1
   2737   2752     1
   2737   2743     1
   2737   2744     1
   2738   2740     1
   2738   2742     1
   2739   2748     1
   2739   2749     1
   2740   2745     1
   2740   2743     1
   2740   2744     1
   2742   2745     1
   2742   2743     1
   2742   2744     1
   2743   2746     1
   2743   2747     1
   2744   2746     1
   2744   2747     1
   2748   2753     1
   2748   2751     1
   2748   2752     1
   2749   2753     1
   2749   2751     1
   2749   2752     1
   2751   2754     1
   2751   2755     1
   2752   2754     1
   2752   2755     1
   2756   2762     1
   2756   2763     1
   2757   2760     1
   2757   2759     1
   2757   2761     1
   2759   2764     1
   2759   2762     1
   2759   2763     1
   2760   2775     1
   2760   2776     1
   2760   2767     1
   2760   2769     1
   2761   2764     1
   2761   2762     1
   2761   2763     1
   2762   2765     1
   2762   2766     1
   2763   2765     1
   2763   2766     1
   2764   2778     1
   2764   2779     1
   2764   2770     1
   2764   2771     1
   2765   2767     1
   2765   2769     1
   2766   2775     1
   2766   2776     1
   2767   2772     1
   2767   2770     1
   2767   2771     1
   2769   2772     1
   2769   2770     1
   2769   2771     1
   2770   2773     1
   2770   2774     1
   2771   2773     1
   2771   2774     1
   2775   2780     1
   2775   2778     1
   2775   2779     1
   2776   2780     1
   2776   2778     1
   2776   2779     1
   2778   2781     1
   2778   2782     1
   2779   2781     1
   2779   2782     1
   2783   2789     1
   2783   2790     1
   2784   2787     1
   2784   2786     1
   2784   2788     1
   2786   2791     1
   2786   2789     1
   2786   2790     1
   2787   2802     1
   2787   2803     1
   2787   2794     1
   2787   2796     1
   2788   2791     1
   2788   2789     1
   2788   2790     1
   2789   2792     1
   2789   2793     1
   2790   2792     1
   2790   2793     1
   2791   2805     1
   2791   2806     1
   2791   2797     1
   2791   2798     1
   2792   2794     1
   2792   2796     1
   2793   2802     1
   2793   2803     1
   2794   2799     1
   2794   2797     1
   2794   2798     1
   2796   2799     1
   2796   2797     1
   2796   2798     1
   2797   2800     1
   2797   2801     1
   2798   2800     1
   2798   2801     1
   2802   2807     1
   2802   2805     1
   2802   2806     1
   2803   2807     1
   2803   2805     1
   2803   2806     1
   2805   2808     1
   2805   2809     1
   2806   2808     1
   2806   2809     1
   2810   2816     1
   2810   2817     1
   2811   2814     1
   2811   2813     1
   2811   2815     1
   2813   2818     1
   2813   2816     1
   2813   2817     1
   2814   2829     1
   2814   2830     1
   2814   2821     1
   2814   2823     1
   2815   2818     1
   2815   2816     1
   2815   2817     1
   2816   2819     1
   2816   2820     1
   2817   2819     1
   2817   2820     1
   2818   2832     1
   2818   2833     1
   2818   2824     1
   2818   2825     1
   2819   2821     1
   2819   2823     1
   2820   2829     1
   2820   2830     1
   2821   2826     1
   2821   2824     1
   2821   2825     1
   2823   2826     1
   2823   2824     1
   2823   2825     1
   2824   2827     1
   2824   2828     1
   2825   2827     1
   2825   2828     1
   2829   2834     1
   2829   2832     1
   2829   2833     1
   2830   2834     1
   2830   2832     1
   2830   2833     1
   2832   2835     1
   2832   2836     1
   2833   2835     1
   2833   2836     1
   2837   2843     1
   2837   2844     1
   2838   2841     1
   2838   2840     1
   2838   2842     1
   2840   2845     1
   2840   2843     1
   2840   2844     1
   2841   2856     1
   2841   2857     1
   2841   2848     1
   2841   2850     1
   2842   2845     1
   2842   2843     1
   2842   2844     1
   2843   2846     1
   2843   2847     1
   2844   2846     1
   2844   2847     1
   2845   2859     1
   2845   2860     1
   2845   2851     1
   2845   2852     1
   2846   2848     1
   2846   2850     1
   2847   2856     1
   2847   2857     1
   2848   2853     1
   2848   2851     1
   2848   2852     1
   2850   2853     1
   2850   2851     1
   2850   2852     1
   2851   2854     1
   2851   2855     1
   2852   2854     1
   2852   2855     1
   2856   2861     1
   2856   2859     1
   2856   2860     1
   2857   2861     1
   2857   2859     1
   2857   2860     1
   2859   2862     1
   2859   2863     1
   2860   2862     1
   2860   2863     1
   2864   2870     1
   2864   2871     1
   2865   2868     1
   2865   2867     1
   2865   2869     1
   2867   2872     1
   2867   2870     1
   2867   2871     1
   2868   2883     1
   2868   2884     1
   2868   2875     1
   2868   2877     1
   2869   2872     1
   2869   2870     1
   2869   2871     1
   2870   2873     1
   2870   2874     1
   2871   2873     1
   2871   2874     1
   2872   2886     1
   2872   2887     1
   2872   2878     1
   2872   2879     1
   2873   2875     1
   2873   2877     1
   2874   2883     1
   2874   2884     1
   2875   2880     1
   2875   2878     1
   2875   2879     1
   2877   2880     1
   2877   2878     1
   2877   2879     1
   2878   2881     1
   2878   2882     1
   2879   2881     1
   2879   2882     1
   2883   2888     1
   2883   2886     1
   2883   2887     1
   2884   2888     1
   2884   2886     1
   2884   2887     1
   2886   2889     1
   2886   2890     1
   2887   2889     1
   2887   2890     1
   2891   2897     1
   2891   2898     1
   2892   2895     1
   2892   2894     1
   2892   2896     1
   2894   2899     1
   2894   2897     1
   2894   2898     1
   2895   2910     1
   2895   2911     1
   2895   2902     1
   2895   2904     1
   2896   2899     1
   2896   2897     1
   2896   2898     1
   2897   2900     1
   2897   2901     1
   2898   2900     1
   2898   2901     1
   2899   2913     1
   2899   2914     1
   2899   2905     1
   2899   2906     1
   2900   2902     1
   2900   2904     1
   2901   2910     1
   2901   2911     1
   2902   2907     1
   2902   2905     1
   2902   2906     1
   2904   2907     1
   2904   2905     1
   2904   2906     1
   2905   2908     1
   2905   2909     1
   2906   2908     1
   2906   2909     1
   2910   2915     1
   2910   2913     1
   2910   2914     1
   2911   2915     1
   2911   2913     1
   2911   2914     1
   2913   2916     1
   2913   2917     1
   2914   2916     1
   2914   2917     1
   2918   2924     1
   2918   2925     1
   2919   2922     1
   2919   2921     1
   2919   2923     1
   2921   2926     1
   2921   2924     1
   2921   2925     1
   2922   2937     1
   2922   2938     1
   2922   2929     1
   2922   2931     1
   2923   2926     1
   2923   2924     1
   2923   2925     1
   2924   2927     1
   2924   2928     1
   2925   2927     1
   2925   2928     1
   2926   2940     1
   2926   2941     1
   2926   2932     1
   2926   2933     1
   2927   2929     1
   2927   2931     1
   2928   2937     1
   2928   2938     1
   2929   2934     1
   2929   2932     1
   2929   2933     1
   2931   2934     1
   2931   2932     1
   2931   2933     1
   2932   2935     1
   2932   2936     1
   2933   2935     1
   2933   2936     1
   2937   2942     1
   2937   2940     1
   2937   2941     1
   2938   2942     1
   2938   2940     1
   2938   2941     1
   2940   2943     1
   2940   2944     1
   2941   2943     1
   2941   2944     1
   2945   2951     1
   2945   2952     1
   2946   2949     1
   2946   2948     1
   2946   2950     1
   2948   2953     1
   2948   2951     1
   2948   2952     1
   2949   2964     1
   2949   2965     1
   2949   2956     1
   2949   2958     1
   2950   2953     1
   2950   2951     1
   2950   2952     1
   2951   2954     1
   2951   2955     1
   2952   2954     1
   2952   2955     1
   2953   2967     1
   2953   2968     1
   2953   2959     1
   2953   2960     1
   2954   2956     1
   2954   2958     1
   2955   2964     1
   2955   2965     1
   2956   2961     1
   2956   2959     1
   2956   2960     1
   2958   2961     1
   2958   2959     1
   2958   2960     1
   2959   2962     1
   2959   2963     1
   2960   2962     1
   2960   2963     1
   2964   2969     1
   2964   2967     1
   2964   2968     1
   2965   2969     1
   2965   2967     1
   2965   2968     1
   2967   2970     1
   2967   2971     1
   2968   2970     1
   2968   2971     1
   2972   2978     1
   2972   2979     1
   2973   2976     1
   2973   2975     1
   2973   2977     1
   2975   2980     1
   2975   2978     1
   2975   2979     1
   2976   2991     1
   2976   2992     1
   2976   2983     1
   2976   2985     1
   2977   2980     1
   2977   2978     1
   2977   2979     1
   2978   2981     1
   2978   2982     1
   2979   2981     1
   2979   2982     1
   2980   2994     1
   2980   2995     1
   2980   2986     1
   2980   2987     1
   2981   2983     1
   2981   2985     1
   2982   2991     1
   2982   2992     1
   2983   2988     1
   2983   2986     1
   2983   2987     1
   2985   2988     1
   2985   2986     1
   2985   2987     1
   2986   2989     1
   2986   2990     1
   2987   2989     1
   2987   2990     1
   2991   2996     1
   2991   2994     1
   2991   2995     1
   2992   2996     1
   2992   2994     1
   2992   2995     1
   2994   2997     1
   2994   2998     1
   2995   2997     1
   2995   2998     1
   2999   3005     1
   2999   3006     1
   3000   3003     1
   3000   3002     1
   3000   3004     1
   3002   3007     1
   3002   3005     1
   3002   3006     1
   3003   3018     1
   3003   3019     1
   3003   3010     1
   3003   3012     1
   3004   3007     1
   3004   3005     1
   3004   3006     1
   3005   3008     1
   3005   3009     1
   3006   3008     1
   3006   3009     1
   3007   3021     1
   3007   3022     1
   3007   3013     1
   3007   3014     1
   3008   3010     1
   3008   3012     1
   3009   3018     1
   3009   3019     1
   3010   3015     1
   3010   3013     1
   3010   3014     1
   3012   3015     1
   3012   3013     1
   3012   3014     1
   3013   3016     1
   3013   3017     1
   3014   3016     1
   3014   3017     1
   3018   3023     1
   3018   3021     1
   3018   3022     1
   3019   3023     1
   3019   3021     1
   3019   3022     1
   3021   3024     1
   3021   3025     1
   3022   3024     1
   3022   3025     1
   3026   3032     1
   3026   3033     1
   3027   3030     1
   3027   3029     1
   3027   3031     1
   3029   3034     1
   3029   3032     1
   3029   3033     1
   3030   3045     1
   3030   3046     1
   3030   3037     1
   3030   3039     1
   3031   3034     1
   3031   3032     1
   3031   3033     1
   3032   3035     1
   3032   3036     1
   3033   3035     1
   3033   3036     1
   3034   3048     1
   3034   3049     1
   3034   3040     1
   3034   3041     1
   3035   3037     1
   3035   3039     1
   3036   3045     1
   3036   3046     1
   3037   3042     1
   3037   3040     1
   3037   3041     1
   3039   3042     1
   3039   3040     1
   3039   3041     1
   3040   3043     1
   3040   3044     1
   3041   3043     1
   3041   3044     1
   3045   3050     1
   3045   3048     1
   3045   3049     1
   3046   3050     1
   3046   3048     1
   3046   3049     1
   3048   3051     1
   3048   3052     1
   3049   3051     1
   3049   3052     1
   3053   3059     1
   3053   3060     1
   3054   3057     1
   3054   3056     1
   3054   3058     1
   3056   3061     1
   3056   3059     1
   3056   3060     1
   3057   3072     1
   3057   3073     1
   3057   3064     1
   3057   3066     1
   3058   3061     1
   3058   3059     1
   3058   3060     1
   3059   3062     1
   3059   3063     1
   3060   3062     1
   3060   3063     1
   3061   3075     1
   3061   3076     1
   3061   3067     1
   3061   3068     1
   3062   3064     1
   3062   3066     1
   3063   3072     1
   3063   3073     1
   3064   3069     1
   3064   3067     1
   3064   3068     1
   3066   3069     1
   3066   3067     1
   3066   3068     1
   3067   3070     1
   3067   3071     1
   3068   3070     1
   3068   3071     1
   3072   3077     1
   3072   3075     1
   3072   3076     1
   3073   3077     1
   3073   3075     1
   3073   3076     1
   3075   3078     1
   3075   3079     1
   3076   3078     1
   3076   3079     1
   3080   3086     1
   3080   3087     1
   3081   3084     1
   3081   3083     1
   3081   3085     1
   3083   3088     1
   3083   3086     1
   3083   3087     1
   3084   3099     1
   3084   3100     1
   3084   3091     1
   3084   3093     1
   3085   3088     1
   3085   3086     1
   3085   3087     1
   3086   3089     1
   3086   3090     1
   3087   3089     1
   3087   3090     1
   3088   3102     1
   3088   3103     1
   3088   3094     1
   3088   3095     1
   3089   3091     1
   3089   3093     1
   3090   3099     1
   3090   3100     1
   3091   3096     1
   3091   3094     1
   3091   3095     1
   3093   3096     1
   3093   3094     1
   3093   3095     1
   3094   3097     1
   3094   3098     1
   3095   3097     1
   3095   3098     1
   3099   3104     1
   3099   3102     1
   3099   3103     1
   3100   3104     1
   3100   3102     1
   3100   3103     1
   3102   3105     1
   3102   3106     1
   3103   3105     1
   3103   3106     1
   3107   3113     1
   3107   3114     1
   3108   3111     1
   3108   3110     1
   3108   3112     1
   3110   3115     1
   3110   3113     1
   3110   3114     1
   3111   3126     1
   3111   3127     1
   3111   3118     1
   3111   3120     1
   3112   3115     1
   3112   3113     1
   3112   3114     1
   3113   3116     1
   3113   3117     1
   3114   3116     1
   3114   3117     1
   3115   3129     1
   3115   3130     1
   3115   3121     1
   3115   3122     1
   3116   3118     1
   3116   3120     1
   3117   3126     1
   3117   3127     1
   3118   3123     1
   3118   3121     1
   3118   3122     1
   3120   3123     1
   3120   3121     1
   3120   3122     1
   3121   3124     1
   3121   3125     1
   3122   3124     1
   3122   3125     1
   3126   3131     1
   3126   3129     1
   3126   3130     1
   3127   3131     1
   3127   3129     1
   3127   3130     1
   3129   3132     1
   3129   3133     1
   3130   3132     1
   3130   3133     1
   3134   3140     1
   3134   3141     1
   3135   3138     1
   3135   3137     1
   3135   3139     1
   3137   3142     1
   3137   3140     1
   3137   3141     1
   3138   3153     1
   3138   3154     1
   3138   3145     1
   3138   3147     1
   3139   3142     1
   3139   3140     1
   3139   3141     1
   3140   3143     1
   3140   3144     1
   3141   3143     1
   3141   3144     1
   3142   3156     1
   3142   3157     1
   3142   3148     1
   3142   3149     1
   3143   3145     1
   3143   3147     1
   3144   3153     1
   3144   3154     1
   3145   3150     1
   3145   3148     1
   3145   3149     1
   3147   3150     1
   3147   3148     1
   3147   3149     1
   3148   3151     1
   3148   3152     1
   3149   3151     1
   3149   3152     1
   3153   3158     1
   3153   3156     1
   3153   3157     1
   3154   3158     1
   3154   3156     1
   3154   3157     1
   3156   3159     1
   3156   3160     1
   3157   3159     1
   3157   3160     1
   3161   3167     1
   3161   3168     1
   3162   3165     1
   3162   3164     1
   3162   3166     1
   3164   3169     1
   3164   3167     1
   3164   3168     1
   3165   3180     1
   3165   3181     1
   3165   3172     1
   3165   3174     1
   3166   3169     1
   3166   3167     1
   3166   3168     1
   3167   3170     1
   3167   3171     1
   3168   3170     1
   3168   3171     1
   3169   3183     1
   3169   3184     1
   3169   3175     1
   3169   3176     1
   3170   3172     1
   3170   3174     1
   3171   3180     1
   3171   3181     1
   3172   3177     1
   3172   3175     1
   3172   3176     1
   3174   3177     1
   3174   3175     1
   3174   3176     1
   3175   3178     1
   3175   3179     1
   3176   3178     1
   3176   3179     1
   3180   3185     1
   3180   3183     1
   3180   3184     1
   3181   3185     1
   3181   3183     1
   3181   3184     1
   3183   3186     1
   3183   3187     1
   3184   3186     1
   3184   3187     1
   3188   3194     1
   3188   3195     1
   3189   3192     1
   3189   3191     1
   3189   3193     1
   3191   3196     1
   3191   3194     1
   3191   3195     1
   3192   3207     1
   3192   3208     1
   3192   3199     1
   3192   3201     1
   3193   3196     1
   3193   3194     1
   3193   3195     1
   3194   3197     1
   3194   3198     1
   3195   3197     1
   3195   3198     1
   3196   3210     1
   3196   3211     1
   3196   3202     1
   3196   3203     1
   3197   3199     1
   3197   3201     1
   3198   3207     1
   3198   3208     1
   3199   3204     1
   3199   3202     1
   3199   3203     1
   3201   3204     1
   3201   3202     1
   3201   3203     1
   3202   3205     1
   3202   3206     1
   3203   3205     1
   3203   3206     1
   3207   3212     1
   3207   3210     1
   3207   3211     1
   3208   3212     1
   3208   3210     1
   3208   3211     1
   3210   3213     1
   3210   3214     1
   3211   3213     1
   3211   3214     1
   3215   3221     1
   3215   3222     1
   3216   3219     1
   3216   3218     1
   3216   3220     1
   3218   3223     1
   3218   3221     1
   3218   3222     1
   3219   3234     1
   3219   3235     1
   3219   3226     1
   3219   3228     1
   3220   3223     1
   3220   3221     1
   3220   3222     1
   3221   3224     1
   3221   3225     1
   3222   3224     1
   3222   3225     1
   3223   3237     1
   3223   3238     1
   3223   3229     1
   3223   3230     1
   3224   3226     1
   3224   3228     1
   3225   3234     1
   3225   3235     1
   3226   3231     1
   3226   3229     1
   3226   3230     1
   3228   3231     1
   3228   3229     1
   3228   3230     1
   3229   3232     1
   3229   3233     1
   3230   3232     1
   3230   3233     1
   3234   3239     1
   3234   3237     1
   3234   3238     1
   3235   3239     1
   3235   3237     1
   3235   3238     1
   3237   3240     1
   3237   3241     1
   3238   3240     1
   3238   3241     1
   3242   3248     1
   3242   3249     1
   3243   3246     1
   3243   3245     1
   3243   3247     1
   3245   3250     1
   3245   3248     1
   3245   3249     1
   3246   3261     1
   3246   3262     1
   3246   3253     1
   3246   3255     1
   3247   3250     1
   3247   3248     1
   3247   3249     1
   3248   3251     1
   3248   3252     1
   3249   3251     1
   3249   3252     1
   3250   3264     1
   3250   3265     1
   3250   3256     1
   3250   3257     1
   3251   3253     1
   3251   3255     1
   3252   3261     1
   3252   3262     1
   3253   3258     1
   3253   3256     1
   3253   3257     1
   3255   3258     1
   3255   3256     1
   3255   3257     1
   3256   3259     1
   3256   3260     1
   3257   3259     1
   3257   3260     1
   3261   3266     1
   3261   3264     1
   3261   3265     1
   3262   3266     1
   3262   3264     1
   3262   3265     1
   3264   3267     1
   3264   3268     1
   3265   3267     1
   3265   3268     1

[ angles ]
;    ai     aj     ak funct         c0         c1         c2         c3
      1      4      7     1   111.0400475 552.288000
      1      8      9     1   112.3500484 533.878400
      1      8     12     1   112.3500484 533.878400
      4      1      8     1   111.0400475 552.288000
      4      7     15     1   112.3500484 533.878400
      4      7     18     1   112.3500484 533.878400
      7     15     21     1   111.0400475 552.288000
      7     18     24     1   111.0400475 552.288000
      8      9     30     1   111.0400475 552.288000
      8     12     27     1   111.0400475 552.288000
      9      8     12     1   112.3500484 533.878400
      9     30     34     1   111.0400475 529.694400
     12     27     33     1   111.0400475 529.694400
     15      7     18     1   112.3500484 533.878400
     15     21     35     1   111.0400475 529.694400
     18     24     36     1   111.0400475 529.694400
     21     35     38     1   123.2000528 564.003200
     21     35    114     1   115.1800491 558.982400
     24     36     39     1   123.2000528 564.003200
     24     36    139     1   115.1800491 558.982400
     27     33     37     1   123.2000528 564.003200
     27     33     64     1   115.1800491 558.982400
     30     34     40     1   123.2000528 564.003200
     30     34     89     1   115.1800491 558.982400
     33     64     44     1   120.6900519 530.531200
     34     89     69     1   120.6900519 530.531200
     35    114     94     1   120.6900519 530.531200
     36    139    119     1   120.6900519 530.531200
     37     33     64     1   123.0500530 620.905600
     38     35    114     1   123.0500530 620.905600
     39     36    139     1   123.0500530 620.905600
     40     34     89     1   123.0500530 620.905600
     41     44     64     1   111.6100477 551.451200
     41     47     48     1   112.3500484 533.878400
     41     47     51     1   112.3500484 533.878400
     44     41     47     1   111.0400475 552.288000
     47     48     57     1   111.0400475 552.288000
     47     51     54     1   111.0400475 552.288000
     48     47     51     1   112.3500484 533.878400
     48     57     61     1   111.0400475 529.694400
     51     54     60     1   111.0400475 529.694400
     54     60     62     1   123.2000528 564.003200
     54     60    164     1   115.1800491 558.982400
     57     61     63     1   123.2000528 564.003200
     57     61    189     1   115.1800491 558.982400
     60    164    144     1   120.6900519 530.531200
     61    189    169     1   120.6900519 530.531200
     62     60    164     1   123.0500530 620.905600
     63     61    189     1   123.0500530 620.905600
     66     69     89     1   111.6100477 551.451200
     66     72     73     1   112.3500484 533.878400
     66     72     76     1   112.3500484 533.878400
     69     66     72     1   111.0400475 552.288000
     72     73     82     1   111.0400475 552.288000
     72     76     79     1   111.0400475 552.288000
     73     72     76     1   112.3500484 533.878400
     73     82     86     1   111.0400475 529.694400
     76     79     85     1   111.0400475 529.694400
     79     85     87     1   123.2000528 564.003200
     79     85    214     1   115.1800491 558.982400
     82     86     88     1   123.2000528 564.003200
     82     86    239     1   115.1800491 558.982400
     85    214    194     1   120.6900519 530.531200
     86    239    219     1   120.6900519 530.531200
     87     85    214     1   123.0500530 620.905600
     88     86    239     1   123.0500530 620.905600
     91     94    114     1   111.6100477 551.451200
     91     97     98     1   112.3500484 533.878400
     91     97    101     1   112.3500484 533.878400
     94     91     97     1   111.0400475 552.288000
     97     98    107     1   111.0400475 552.288000
     97    101    104     1   111.0400475 552.288000
     98     97    101     1   112.3500484 533.878400
     98    107    111     1   111.0400475 529.694400
    101    104    110     1   111.0400475 529.694400
    104    110    112     1   123.2000528 564.003200
    104    110    264     1   115.1800491 558.982400
    107    111    113     1   123.2000528 564.003200
    107    111    289     1   115.1800491 558.982400
    110    264    244     1   120.6900519 530.531200
    111    289    269     1   120.6900519 530.531200
    112    110    264     1   123.0500530 620.905600
    113    111    289     1   123.0500530 620.905600
    116    119    139     1   111.6100477 551.451200
    116    122    123     1   112.3500484 533.878400
    116    122    126     1   112.3500484 533.878400
    119    116    122     1   111.0400475 552.288000
    122    123    132     1   111.0400475 552.288000
    122    126    129     1   111.0400475 552.288000
    123    122    126     1   112.3500484 533.878400
    123    132    136     1   111.0400475 529.694400
    126    129    135     1   111.0400475 529.694400
    129    135    137     1   123.2000528 564.003200
    129    135    314     1   115.1800491 558.982400
    132    136    138     1   123.2000528 564.003200
    132    136    339     1   115.1800491 558.982400
    135    314    294     1   120.6900519 530.531200
    136    339    319     1   120.6900519 530.531200
    137    135    314     1   123.0500530 620.905600
    138    136    339     1   123.0500530 620.905600
    141    144    164     1   111.6100477 551.451200
    141    147    148     1   112.3500484 533.878400
    141    147    151     1   112.3500484 533.878400
    144    141    147     1   111.0400475 552.288000
    147    148    157     1   111.0400475 552.288000
    147    151    154     1   111.0400475 552.288000
    148    147    151     1   112.3500484 533.878400
    148    157    161     1   111.0400475 529.694400
    151    154    160     1   111.0400475 529.694400
    154    160    162     1   123.2000528 564.003200
    154    160    364     1   115.1800491 558.982400
    157    161    163     1   123.2000528 564.003200
    157    161    389     1   115.1800491 558.982400
    160    364    344     1   120.6900519 530.531200
    161    389    369     1   120.6900519 530.531200
    162    160    364     1   123.0500530 620.905600
    163    161    389     1   123.0500530 620.905600
    166    169    189     1   111.6100477 551.451200
    166    172    173     1   112.3500484 533.878400
    166    172    176     1   112.3500484 533.878400
    169    166    172     1   111.0400475 552.288000
    172    173    182     1   111.0400475 552.288000
    172    176    179     1   111.0400475 552.288000
    173    172    176     1   112.3500484 533.878400
    173    182    186     1   111.0400475 529.694400
    176    179    185     1   111.0400475 529.694400
    179    185    187     1   123.2000528 564.003200
    179    185    414     1   115.1800491 558.982400
    182    186    188     1   123.2000528 564.003200
    182    186    439     1   115.1800491 558.982400
    185    414    394     1   120.6900519 530.531200
    186    439    419     1   120.6900519 530.531200
    187    185    414     1   123.0500530 620.905600
    188    186    439     1   123.0500530 620.905600
    191    194    214     1   111.6100477 551.451200
    191    197    198     1   112.3500484 533.878400
    191    197    201     1   112.3500484 533.878400
    194    191    197     1   111.0400475 552.288000
    197    198    207     1   111.0400475 552.288000
    197    201    204     1   111.0400475 552.288000
    198    197    201     1   112.3500484 533.878400
    198    207    211     1   111.0400475 529.694400
    201    204    210     1   111.0400475 529.694400
    204    210    212     1   123.2000528 564.003200
    204    210    464     1   115.1800491 558.982400
    207    211    213     1   123.2000528 564.003200
    207    211    489     1   115.1800491 558.982400
    210    464    444     1   120.6900519 530.531200
    211    489    469     1   120.6900519 530.531200
    212    210    464     1   123.0500530 620.905600
    213    211    489     1   123.0500530 620.905600
    216    219    239     1   111.6100477 551.451200
    216    222    223     1   112.3500484 533.878400
    216    222    226     1   112.3500484 533.878400
    219    216    222     1   111.0400475 552.288000
    222    223    232     1   111.0400475 552.288000
    222    226    229     1   111.0400475 552.288000
    223    222    226     1   112.3500484 533.878400
    223    232    236     1   111.0400475 529.694400
    226    229    235     1   111.0400475 529.694400
    229    235    237     1   123.2000528 564.003200
    229    235    514     1   115.1800491 558.982400
    232    236    238     1   123.2000528 564.003200
    232    236    539     1   115.1800491 558.982400
    235    514    494     1   120.6900519 530.531200
    236    539    519     1   120.6900519 530.531200
    237    235    514     1   123.0500530 620.905600
    238    236    539     1   123.0500530 620.905600
    241    244    264     1   111.6100477 551.451200
    241    247    248     1   112.3500484 533.878400
    241    247    251     1   112.3500484 533.878400
    244    241    247     1   111.0400475 552.288000
    247    248    257     1   111.0400475 552.288000
    247    251    254     1   111.0400475 552.288000
    248    247    251     1   112.3500484 533.878400
    248    257    261     1   111.0400475 529.694400
    251    254    260     1   111.0400475 529.694400
    254    260    262     1   123.2000528 564.003200
    254    260    564     1   115.1800491 558.982400
    257    261    263     1   123.2000528 564.003200
    257    261    589     1   115.1800491 558.982400
    260    564    544     1   120.6900519 530.531200
    261    589    569     1   120.6900519 530.531200
    262    260    564     1   123.0500530 620.905600
    263    261    589     1   123.0500530 620.905600
    266    269    289     1   111.6100477 551.451200
    266    272    273     1   112.3500484 533.878400
    266    272    276     1   112.3500484 533.878400
    269    266    272     1   111.0400475 552.288000
    272    273    282     1   111.0400475 552.288000
    272    276    279     1   111.0400475 552.288000
    273    272    276     1   112.3500484 533.878400
    273    282    286     1   111.0400475 529.694400
    276    279    285     1   111.0400475 529.694400
    279    285    287     1   123.2000528 564.003200
    279    285    614     1   115.1800491 558.982400
    282    286    288     1   123.2000528 564.003200
    282    286    639     1   115.1800491 558.982400
    285    614    594     1   120.6900519 530.531200
    286    639    619     1   120.6900519 530.531200
    287    285    614     1   123.0500530 620.905600
    288    286    639     1   123.0500530 620.905600
    291    294    314     1   111.6100477 551.451200
    291    297    298     1   112.3500484 533.878400
    291    297    301     1   112.3500484 533.878400
    294    291    297     1   111.0400475 552.288000
    297    298    307     1   111.0400475 552.288000
    297    301    304     1   111.0400475 552.288000
    298    297    301     1   112.3500484 533.878400
    298    307    311     1   111.0400475 529.694400
    301    304    310     1   111.0400475 529.694400
    304    310    312     1   123.2000528 564.003200
    304    310    664     1   115.1800491 558.982400
    307    311    313     1   123.2000528 564.003200
    307    311    689     1   115.1800491 558.982400
    310    664    644     1   120.6900519 530.531200
    311    689    669     1   120.6900519 530.531200
    312    310    664     1   123.0500530 620.905600
    313    311    689     1   123.0500530 620.905600
    316    319    339     1   111.6100477 551.451200
    316    322    323     1   112.3500484 533.878400
    316    322    326     1   112.3500484 533.878400
    319    316    322     1   111.0400475 552.288000
    322    323    332     1   111.0400475 552.288000
    322    326    329     1   111.0400475 552.288000
    323    322    326     1   112.3500484 533.878400
    323    332    336     1   111.0400475 529.694400
    326    329    335     1   111.0400475 529.694400
    329    335    337     1   123.2000528 564.003200
    329    335    714     1   115.1800491 558.982400
    332    336    338     1   123.2000528 564.003200
    332    336    739     1   115.1800491 558.982400
    335    714    694     1   120.6900519 530.531200
    336    739    719     1   120.6900519 530.531200
    337    335    714     1   123.0500530 620.905600
    338    336    739     1   123.0500530 620.905600
    341    344    364     1   111.6100477 551.451200
    341    347    348     1   112.3500484 533.878400
    341    347    351     1   112.3500484 533.878400
    344    341    347     1   111.0400475 552.288000
    347    348    357     1   111.0400475 552.288000
    347    351    354     1   111.0400475 552.288000
    348    347    351     1   112.3500484 533.878400
    348    357    361     1   111.0400475 529.694400
    351    354    360     1   111.0400475 529.694400
    354    360    362     1   123.2000528 564.003200
    354    360    764     1   115.1800491 558.982400
    357    361    363     1   123.2000528 564.003200
    357    361    789     1   115.1800491 558.982400
    360    764    744     1   120.6900519 530.531200
    361    789    769     1   120.6900519 530.531200
    362    360    764     1   123.0500530 620.905600
    363    361    789     1   123.0500530 620.905600
    366    369    389     1   111.6100477 551.451200
    366    372    373     1   112.3500484 533.878400
    366    372    376     1   112.3500484 533.878400
    369    366    372     1   111.0400475 552.288000
    372    373    382     1   111.0400475 552.288000
    372    376    379     1   111.0400475 552.288000
    373    372    376     1   112.3500484 533.878400
    373    382    386     1   111.0400475 529.694400
    376    379    385     1   111.0400475 529.694400
    379    385    387     1   123.2000528 564.003200
    379    385    814     1   115.1800491 558.982400
    382    386    388     1   123.2000528 564.003200
    382    386    839     1   115.1800491 558.982400
    385    814    794     1   120.6900519 530.531200
    386    839    819     1   120.6900519 530.531200
    387    385    814     1   123.0500530 620.905600
    388    386    839     1   123.0500530 620.905600
    391    394    414     1   111.6100477 551.451200
    391    397    398     1   112.3500484 533.878400
    391    397    401     1   112.3500484 533.878400
    394    391    397     1   111.0400475 552.288000
    397    398    407     1   111.0400475 552.288000
    397    401    404     1   111.0400475 552.288000
    398    397    401     1   112.3500484 533.878400
    398    407    411     1   111.0400475 529.694400
    401    404    410     1   111.0400475 529.694400
    404    410    412     1   123.2000528 564.003200
    404    410    864     1   115.1800491 558.982400
    407    411    413     1   123.2000528 564.003200
    407    411    889     1   115.1800491 558.982400
    410    864    844     1   120.6900519 530.531200
    411    889    869     1   120.6900519 530.531200
    412    410    864     1   123.0500530 620.905600
    413    411    889     1   123.0500530 620.905600
    416    419    439     1   111.6100477 551.451200
    416    422    423     1   112.3500484 533.878400
    416    422    426     1   112.3500484 533.878400
    419    416    422     1   111.0400475 552.288000
    422    423    432     1   111.0400475 552.288000
    422    426    429     1   111.0400475 552.288000
    423    422    426     1   112.3500484 533.878400
    423    432    436     1   111.0400475 529.694400
    426    429    435     1   111.0400475 529.694400
    429    435    437     1   123.2000528 564.003200
    429    435    914     1   115.1800491 558.982400
    432    436    438     1   123.2000528 564.003200
    432    436    939     1   115.1800491 558.982400
    435    914    894     1   120.6900519 530.531200
    436    939    919     1   120.6900519 530.531200
    437    435    914     1   123.0500530 620.905600
    438    436    939     1   123.0500530 620.905600
    441    444    464     1   111.6100477 551.451200
    441    447    448     1   112.3500484 533.878400
    441    447    451     1   112.3500484 533.878400
    444    441    447     1   111.0400475 552.288000
    447    448    457     1   111.0400475 552.288000
    447    451    454     1   111.0400475 552.288000
    448    447    451     1   112.3500484 533.878400
    448    457    461     1   111.0400475 529.694400
    451    454    460     1   111.0400475 529.694400
    454    460    462     1   123.2000528 564.003200
    454    460    964     1   115.1800491 558.982400
    457    461    463     1   123.2000528 564.003200
    457    461    989     1   115.1800491 558.982400
    460    964    944     1   120.6900519 530.531200
    461    989    969     1   120.6900519 530.531200
    462    460    964     1   123.0500530 620.905600
    463    461    989     1   123.0500530 620.905600
    466    469    489     1   111.6100477 551.451200
    466    472    473     1   112.3500484 533.878400
    466    472    476     1   112.3500484 533.878400
    469    466    472     1   111.0400475 552.288000
    472    473    482     1   111.0400475 552.288000
    472    476    479     1   111.0400475 552.288000
    473    472    476     1   112.3500484 533.878400
    473    482    486     1   111.0400475 529.694400
    476    479    485     1   111.0400475 529.694400
    479    485    487     1   123.2000528 564.003200
    479    485   1014     1   115.1800491 558.982400
    482    486    488     1   123.2000528 564.003200
    482    486   1039     1   115.1800491 558.982400
    485   1014    994     1   120.6900519 530.531200
    486   1039   1019     1   120.6900519 530.531200
    487    485   1014     1   123.0500530 620.905600
    488    486   1039     1   123.0500530 620.905600
    491    494    514     1   111.6100477 551.451200
    491    497    498     1   112.3500484 533.878400
    491    497    501     1   112.3500484 533.878400
    494    491    497     1   111.0400475 552.288000
    497    498    507     1   111.0400475 552.288000
    497    501    504     1   111.0400475 552.288000
    498    497    501     1   112.3500484 533.878400
    498    507    511     1   111.0400475 529.694400
    501    504    510     1   111.0400475 529.694400
    504    510    512     1   123.2000528 564.003200
    504    510   1064     1   115.1800491 558.982400
    507    511    513     1   123.2000528 564.003200
    507    511   1089     1   115.1800491 558.982400
    510   1064   1044     1   120.6900519 530.531200
    511   1089   1069     1   120.6900519 530.531200
    512    510   1064     1   123.0500530 620.905600
    513    511   1089     1   123.0500530 620.905600
    516    519    539     1   111.6100477 551.451200
    516    522    523     1   112.3500484 533.878400
    516    522    526     1   112.3500484 533.878400
    519    516    522     1   111.0400475 552.288000
    522    523    532     1   111.0400475 552.288000
    522    526    529     1   111.0400475 552.288000
    523    522    526     1   112.3500484 533.878400
    523    532    536     1   111.0400475 529.694400
    526    529    535     1   111.0400475 529.694400
    529    535    537     1   123.2000528 564.003200
    529    535   1114     1   115.1800491 558.982400
    532    536    538     1   123.2000528 564.003200
    532    536   1139     1   115.1800491 558.982400
    535   1114   1094     1   120.6900519 530.531200
    536   1139   1119     1   120.6900519 530.531200
    537    535   1114     1   123.0500530 620.905600
    538    536   1139     1   123.0500530 620.905600
    541    544    564     1   111.6100477 551.451200
    541    547    548     1   112.3500484 533.878400
    541    547    551     1   112.3500484 533.878400
    544    541    547     1   111.0400475 552.288000
    547    548    557     1   111.0400475 552.288000
    547    551    554     1   111.0400475 552.288000
    548    547    551     1   112.3500484 533.878400
    548    557    561     1   111.0400475 529.694400
    551    554    560     1   111.0400475 529.694400
    554    560    562     1   123.2000528 564.003200
    554    560   1164     1   115.1800491 558.982400
    557    561    563     1   123.2000528 564.003200
    557    561   1189     1   115.1800491 558.982400
    560   1164   1144     1   120.6900519 530.531200
    561   1189   1169     1   120.6900519 530.531200
    562    560   1164     1   123.0500530 620.905600
    563    561   1189     1   123.0500530 620.905600
    566    569    589     1   111.6100477 551.451200
    566    572    573     1   112.3500484 533.878400
    566    572    576     1   112.3500484 533.878400
    569    566    572     1   111.0400475 552.288000
    572    573    582     1   111.0400475 552.288000
    572    576    579     1   111.0400475 552.288000
    573    572    576     1   112.3500484 533.878400
    573    582    586     1   111.0400475 529.694400
    576    579    585     1   111.0400475 529.694400
    579    585    587     1   123.2000528 564.003200
    579    585   1214     1   115.1800491 558.982400
    582    586    588     1   123.2000528 564.003200
    582    586   1239     1   115.1800491 558.982400
    585   1214   1194     1   120.6900519 530.531200
    586   1239   1219     1   120.6900519 530.531200
    587    585   1214     1   123.0500530 620.905600
    588    586   1239     1   123.0500530 620.905600
    591    594    614     1   111.6100477 551.451200
    591    597    598     1   112.3500484 533.878400
    591    597    601     1   112.3500484 533.878400
    594    591    597     1   111.0400475 552.288000
    597    598    607     1   111.0400475 552.288000
    597    601    604     1   111.0400475 552.288000
    598    597    601     1   112.3500484 533.878400
    598    607    611     1   111.0400475 529.694400
    601    604    610     1   111.0400475 529.694400
    604    610    612     1   123.2000528 564.003200
    604    610   1264     1   115.1800491 558.982400
    607    611    613     1   123.2000528 564.003200
    607    611   1289     1   115.1800491 558.982400
    610   1264   1244     1   120.6900519 530.531200
    611   1289   1269     1   120.6900519 530.531200
    612    610   1264     1   123.0500530 620.905600
    613    611   1289     1   123.0500530 620.905600
    616    619    639     1   111.6100477 551.451200
    616    622    623     1   112.3500484 533.878400
    616    622    626     1   112.3500484 533.878400
    619    616    622     1   111.0400475 552.288000
    622    623    632     1   111.0400475 552.288000
    622    626    629     1   111.0400475 552.288000
    623    622    626     1   112.3500484 533.878400
    623    632    636     1   111.0400475 529.694400
    626    629    635     1   111.0400475 529.694400
    629    635    637     1   123.2000528 564.003200
    629    635   1314     1   115.1800491 558.982400
    632    636    638     1   123.2000528 564.003200
    632    636   1339     1   115.1800491 558.982400
    635   1314   1294     1   120.6900519 530.531200
    636   1339   1319     1   120.6900519 530.531200
    637    635   1314     1   123.0500530 620.905600
    638    636   1339     1   123.0500530 620.905600
    641    644    664     1   111.6100477 551.451200
    641    647    648     1   112.3500484 533.878400
    641    647    651     1   112.3500484 533.878400
    644    641    647     1   111.0400475 552.288000
    647    648    657     1   111.0400475 552.288000
    647    651    654     1   111.0400475 552.288000
    648    647    651     1   112.3500484 533.878400
    648    657    661     1   111.0400475 529.694400
    651    654    660     1   111.0400475 529.694400
    654    660    662     1   123.2000528 564.003200
    654    660   1364     1   115.1800491 558.982400
    657    661    663     1   123.2000528 564.003200
    657    661   1389     1   115.1800491 558.982400
    660   1364   1344     1   120.6900519 530.531200
    661   1389   1369     1   120.6900519 530.531200
    662    660   1364     1   123.0500530 620.905600
    663    661   1389     1   123.0500530 620.905600
    666    669    689     1   111.6100477 551.451200
    666    672    673     1   112.3500484 533.878400
    666    672    676     1   112.3500484 533.878400
    669    666    672     1   111.0400475 552.288000
    672    673    682     1   111.0400475 552.288000
    672    676    679     1   111.0400475 552.288000
    673    672    676     1   112.3500484 533.878400
    673    682    686     1   111.0400475 529.694400
    676    679    685     1   111.0400475 529.694400
    679    685    687     1   123.2000528 564.003200
    679    685   1414     1   115.1800491 558.982400
    682    686    688     1   123.2000528 564.003200
    682    686   1439     1   115.1800491 558.982400
    685   1414   1394     1   120.6900519 530.531200
    686   1439   1419     1   120.6900519 530.531200
    687    685   1414     1   123.0500530 620.905600
    688    686   1439     1   123.0500530 620.905600
    691    694    714     1   111.6100477 551.451200
    691    697    698     1   112.3500484 533.878400
    691    697    701     1   112.3500484 533.878400
    694    691    697     1   111.0400475 552.288000
    697    698    707     1   111.0400475 552.288000
    697    701    704     1   111.0400475 552.288000
    698    697    701     1   112.3500484 533.878400
    698    707    711     1   111.0400475 529.694400
    701    704    710     1   111.0400475 529.694400
    704    710    712     1   123.2000528 564.003200
    704    710   1464     1   115.1800491 558.982400
    707    711    713     1   123.2000528 564.003200
    707    711   1489     1   115.1800491 558.982400
    710   1464   1444     1   120.6900519 530.531200
    711   1489   1469     1   120.6900519 530.531200
    712    710   1464     1   123.0500530 620.905600
    713    711   1489     1   123.0500530 620.905600
    716    719    739     1   111.6100477 551.451200
    716    722    723     1   112.3500484 533.878400
    716    722    726     1   112.3500484 533.878400
    719    716    722     1   111.0400475 552.288000
    722    723    732     1   111.0400475 552.288000
    722    726    729     1   111.0400475 552.288000
    723    722    726     1   112.3500484 533.878400
    723    732    736     1   111.0400475 529.694400
    726    729    735     1   111.0400475 529.694400
    729    735    737     1   123.2000528 564.003200
    729    735   1514     1   115.1800491 558.982400
    732    736    738     1   123.2000528 564.003200
    732    736   1539     1   115.1800491 558.982400
    735   1514   1494     1   120.6900519 530.531200
    736   1539   1519     1   120.6900519 530.531200
    737    735   1514     1   123.0500530 620.905600
    738    736   1539     1   123.0500530 620.905600
    741    744    764     1   111.6100477 551.451200
    741    747    748     1   112.3500484 533.878400
    741    747    751     1   112.3500484 533.878400
    744    741    747     1   111.0400475 552.288000
    747    748    757     1   111.0400475 552.288000
    747    751    754     1   111.0400475 552.288000
    748    747    751     1   112.3500484 533.878400
    748    757    761     1   111.0400475 529.694400
    751    754    760     1   111.0400475 529.694400
    754    760   1541     1   115.1800491 558.982400
    754    760    762     1   123.2000528 564.003200
    757    761    763     1   123.2000528 564.003200
    757    761   1568     1   115.1800491 558.982400
    760   1541   1543     1   120.6900519 530.531200
    761   1568   1570     1   120.6900519 530.531200
    762    760   1541     1   123.0500530 620.905600
    763    761   1568     1   123.0500530 620.905600
    766    769    789     1   111.6100477 551.451200
    766    772    773     1   112.3500484 533.878400
    766    772    776     1   112.3500484 533.878400
    769    766    772     1   111.0400475 552.288000
    772    773    782     1   111.0400475 552.288000
    772    776    779     1   111.0400475 552.288000
    773    772    776     1   112.3500484 533.878400
    773    782    786     1   111.0400475 529.694400
    776    779    785     1   111.0400475 529.694400
    779    785   1595     1   115.1800491 558.982400
    779    785    787     1   123.2000528 564.003200
    782    786    788     1   123.2000528 564.003200
    782    786   1622     1   115.1800491 558.982400
    785   1595   1597     1   120.6900519 530.531200
    786   1622   1624     1   120.6900519 530.531200
    787    785   1595     1   123.0500530 620.905600
    788    786   1622     1   123.0500530 620.905600
    791    794    814     1   111.6100477 551.451200
    791    797    798     1   112.3500484 533.878400
    791    797    801     1   112.3500484 533.878400
    794    791    797     1   111.0400475 552.288000
    797    798    807     1   111.0400475 552.288000
    797    801    804     1   111.0400475 552.288000
    798    797    801     1   112.3500484 533.878400
    798    807    811     1   111.0400475 529.694400
    801    804    810     1   111.0400475 529.694400
    804    810   1649     1   115.1800491 558.982400
    804    810    812     1   123.2000528 564.003200
    807    811    813     1   123.2000528 564.003200
    807    811   1676     1   115.1800491 558.982400
    810   1649   1651     1   120.6900519 530.531200
    811   1676   1678     1   120.6900519 530.531200
    812    810   1649     1   123.0500530 620.905600
    813    811   1676     1   123.0500530 620.905600
    816    819    839     1   111.6100477 551.451200
    816    822    823     1   112.3500484 533.878400
    816    822    826     1   112.3500484 533.878400
    819    816    822     1   111.0400475 552.288000
    822    823    832     1   111.0400475 552.288000
    822    826    829     1   111.0400475 552.288000
    823    822    826     1   112.3500484 533.878400
    823    832    836     1   111.0400475 529.694400
    826    829    835     1   111.0400475 529.694400
    829    835   1703     1   115.1800491 558.982400
    829    835    837     1   123.2000528 564.003200
    832    836    838     1   123.2000528 564.003200
    832    836   1730     1   115.1800491 558.982400
    835   1703   1705     1   120.6900519 530.531200
    836   1730   1732     1   120.6900519 530.531200
    837    835   1703     1   123.0500530 620.905600
    838    836   1730     1   123.0500530 620.905600
    841    844    864     1   111.6100477 551.451200
    841    847    848     1   112.3500484 533.878400
    841    847    851     1   112.3500484 533.878400
    844    841    847     1   111.0400475 552.288000
    847    848    857     1   111.0400475 552.288000
    847    851    854     1   111.0400475 552.288000
    848    847    851     1   112.3500484 533.878400
    848    857    861     1   111.0400475 529.694400
    851    854    860     1   111.0400475 529.694400
    854    860   1757     1   115.1800491 558.982400
    854    860    862     1   123.2000528 564.003200
    857    861    863     1   123.2000528 564.003200
    857    861   1784     1   115.1800491 558.982400
    860   1757   1759     1   120.6900519 530.531200
    861   1784   1786     1   120.6900519 530.531200
    862    860   1757     1   123.0500530 620.905600
    863    861   1784     1   123.0500530 620.905600
    866    869    889     1   111.6100477 551.451200
    866    872    873     1   112.3500484 533.878400
    866    872    876     1   112.3500484 533.878400
    869    866    872     1   111.0400475 552.288000
    872    873    882     1   111.0400475 552.288000
    872    876    879     1   111.0400475 552.288000
    873    872    876     1   112.3500484 533.878400
    873    882    886     1   111.0400475 529.694400
    876    879    885     1   111.0400475 529.694400
    879    885   1811     1   115.1800491 558.982400
    879    885    887     1   123.2000528 564.003200
    882    886    888     1   123.2000528 564.003200
    882    886   1838     1   115.1800491 558.982400
    885   1811   1813     1   120.6900519 530.531200
    886   1838   1840     1   120.6900519 530.531200
    887    885   1811     1   123.0500530 620.905600
    888    886   1838     1   123.0500530 620.905600
    891    894    914     1   111.6100477 551.451200
    891    897    898     1   112.3500484 533.878400
    891    897    901     1   112.3500484 533.878400
    894    891    897     1   111.0400475 552.288000
    897    898    907     1   111.0400475 552.288000
    897    901    904     1   111.0400475 552.288000
    898    897    901     1   112.3500484 533.878400
    898    907    911     1   111.0400475 529.694400
    901    904    910     1   111.0400475 529.694400
    904    910   1865     1   115.1800491 558.982400
    904    910    912     1   123.2000528 564.003200
    907    911    913     1   123.2000528 564.003200
    907    911   1892     1   115.1800491 558.982400
    910   1865   1867     1   120.6900519 530.531200
    911   1892   1894     1   120.6900519 530.531200
    912    910   1865     1   123.0500530 620.905600
    913    911   1892     1   123.0500530 620.905600
    916    919    939     1   111.6100477 551.451200
    916    922    923     1   112.3500484 533.878400
    916    922    926     1   112.3500484 533.878400
    919    916    922     1   111.0400475 552.288000
    922    923    932     1   111.0400475 552.288000
    922    926    929     1   111.0400475 552.288000
    923    922    926     1   112.3500484 533.878400
    923    932    936     1   111.0400475 529.694400
    926    929    935     1   111.0400475 529.694400
    929    935   1919     1   115.1800491 558.982400
    929    935    937     1   123.2000528 564.003200
    932    936    938     1   123.2000528 564.003200
    932    936   1946     1   115.1800491 558.982400
    935   1919   1921     1   120.6900519 530.531200
    936   1946   1948     1   120.6900519 530.531200
    937    935   1919     1   123.0500530 620.905600
    938    936   1946     1   123.0500530 620.905600
    941    944    964     1   111.6100477 551.451200
    941    947    948     1   112.3500484 533.878400
    941    947    951     1   112.3500484 533.878400
    944    941    947     1   111.0400475 552.288000
    947    948    957     1   111.0400475 552.288000
    947    951    954     1   111.0400475 552.288000
    948    947    951     1   112.3500484 533.878400
    948    957    961     1   111.0400475 529.694400
    951    954    960     1   111.0400475 529.694400
    954    960   1973     1   115.1800491 558.982400
    954    960    962     1   123.2000528 564.003200
    957    961    963     1   123.2000528 564.003200
    957    961   2000     1   115.1800491 558.982400
    960   1973   1975     1   120.6900519 530.531200
    961   2000   2002     1   120.6900519 530.531200
    962    960   1973     1   123.0500530 620.905600
    963    961   2000     1   123.0500530 620.905600
    966    969    989     1   111.6100477 551.451200
    966    972    973     1   112.3500484 533.878400
    966    972    976     1   112.3500484 533.878400
    969    966    972     1   111.0400475 552.288000
    972    973    982     1   111.0400475 552.288000
    972    976    979     1   111.0400475 552.288000
    973    972    976     1   112.3500484 533.878400
    973    982    986     1   111.0400475 529.694400
    976    979    985     1   111.0400475 529.694400
    979    985   2027     1   115.1800491 558.982400
    979    985    987     1   123.2000528 564.003200
    982    986    988     1   123.2000528 564.003200
    982    986   2054     1   115.1800491 558.982400
    985   2027   2029     1   120.6900519 530.531200
    986   2054   2056     1   120.6900519 530.531200
    987    985   2027     1   123.0500530 620.905600
    988    986   2054     1   123.0500530 620.905600
    991    994   1014     1   111.6100477 551.451200
    991    997    998     1   112.3500484 533.878400
    991    997   1001     1   112.3500484 533.878400
    994    991    997     1   111.0400475 552.288000
    997    998   1007     1   111.0400475 552.288000
    997   1001   1004     1   111.0400475 552.288000
    998    997   1001     1   112.3500484 533.878400
    998   1007   1011     1   111.0400475 529.694400
   1001   1004   1010     1   111.0400475 529.694400
   1004   1010   2081     1   115.1800491 558.982400
   1004   1010   1012     1   123.2000528 564.003200
   1007   1011   1013     1   123.2000528 564.003200
   1007   1011   2108     1   115.1800491 558.982400
   1010   2081   2083     1   120.6900519 530.531200
   1011   2108   2110     1   120.6900519 530.531200
   1012   1010   2081     1   123.0500530 620.905600
   1013   1011   2108     1   123.0500530 620.905600
   1016   1019   1039     1   111.6100477 551.451200
   1016   1022   1023     1   112.3500484 533.878400
   1016   1022   1026     1   112.3500484 533.878400
   1019   1016   1022     1   111.0400475 552.288000
   1022   1023   1032     1   111.0400475 552.288000
   1022   1026   1029     1   111.0400475 552.288000
   1023   1022   1026     1   112.3500484 533.878400
   1023   1032   1036     1   111.0400475 529.694400
   1026   1029   1035     1   111.0400475 529.694400
   1029   1035   2135     1   115.1800491 558.982400
   1029   1035   1037     1   123.2000528 564.003200
   1032   1036   1038     1   123.2000528 564.003200
   1032   1036   2162     1   115.1800491 558.982400
   1035   2135   2137     1   120.6900519 530.531200
   1036   2162   2164     1   120.6900519 530.531200
   1037   1035   2135     1   123.0500530 620.905600
   1038   1036   2162     1   123.0500530 620.905600
   1041   1044   1064     1   111.6100477 551.451200
   1041   1047   1048     1   112.3500484 533.878400
   1041   1047   1051     1   112.3500484 533.878400
   1044   1041   1047     1   111.0400475 552.288000
   1047   1048   1057     1   111.0400475 552.288000
   1047   1051   1054     1   111.0400475 552.288000
   1048   1047   1051     1   112.3500484 533.878400
   1048   1057   1061     1   111.0400475 529.694400
   1051   1054   1060     1   111.0400475 529.694400
   1054   1060   2189     1   115.1800491 558.982400
   1054   1060   1062     1   123.2000528 564.003200
   1057   1061   1063     1   123.2000528 564.003200
   1057   1061   2216     1   115.1800491 558.982400
   1060   2189   2191     1   120.6900519 530.531200
   1061   2216   2218     1   120.6900519 530.531200
   1062   1060   2189     1   123.0500530 620.905600
   1063   1061   2216     1   123.0500530 620.905600
   1066   1069   1089     1   111.6100477 551.451200
   1066   1072   1073     1   112.3500484 533.878400
   1066   1072   1076     1   112.3500484 533.878400
   1069   1066   1072     1   111.0400475 552.288000
   1072   1073   1082     1   111.0400475 552.288000
   1072   1076   1079     1   111.0400475 552.288000
   1073   1072   1076     1   112.3500484 533.878400
   1073   1082   1086     1   111.0400475 529.694400
   1076   1079   1085     1   111.0400475 529.694400
   1079   1085   2243     1   115.1800491 558.982400
   1079   1085   1087     1   123.2000528 564.003200
   1082   1086   1088     1   123.2000528 564.003200
   1082   1086   2270     1   115.1800491 558.982400
   1085   2243   2245     1   120.6900519 530.531200
   1086   2270   2272     1   120.6900519 530.531200
   1087   1085   2243     1   123.0500530 620.905600
   1088   1086   2270     1   123.0500530 620.905600
   1091   1094   1114     1   111.6100477 551.451200
   1091   1097   1098     1   112.3500484 533.878400
   1091   1097   1101     1   112.3500484 533.878400
   1094   1091   1097     1   111.0400475 552.288000
   1097   1098   1107     1   111.0400475 552.288000
   1097   1101   1104     1   111.0400475 552.288000
   1098   1097   1101     1   112.3500484 533.878400
   1098   1107   1111     1   111.0400475 529.694400
   1101   1104   1110     1   111.0400475 529.694400
   1104   1110   2297     1   115.1800491 558.982400
   1104   1110   1112     1   123.2000528 564.003200
   1107   1111   1113     1   123.2000528 564.003200
   1107   1111   2324     1   115.1800491 558.982400
   1110   2297   2299     1   120.6900519 530.531200
   1111   2324   2326     1   120.6900519 530.531200
   1112   1110   2297     1   123.0500530 620.905600
   1113   1111   2324     1   123.0500530 620.905600
   1116   1119   1139     1   111.6100477 551.451200
   1116   1122   1123     1   112.3500484 533.878400
   1116   1122   1126     1   112.3500484 533.878400
   1119   1116   1122     1   111.0400475 552.288000
   1122   1123   1132     1   111.0400475 552.288000
   1122   1126   1129     1   111.0400475 552.288000
   1123   1122   1126     1   112.3500484 533.878400
   1123   1132   1136     1   111.0400475 529.694400
   1126   1129   1135     1   111.0400475 529.694400
   1129   1135   2351     1   115.1800491 558.982400
   1129   1135   1137     1   123.2000528 564.003200
   1132   1136   1138     1   123.2000528 564.003200
   1132   1136   2378     1   115.1800491 558.982400
   1135   2351   2353     1   120.6900519 530.531200
   1136   2378   2380     1   120.6900519 530.531200
   1137   1135   2351     1   123.0500530 620.905600
   1138   1136   2378     1   123.0500530 620.905600
   1141   1144   1164     1   111.6100477 551.451200
   1141   1147   1148     1   112.3500484 533.878400
   1141   1147   1151     1   112.3500484 533.878400
   1144   1141   1147     1   111.0400475 552.288000
   1147   1148   1157     1   111.0400475 552.288000
   1147   1151   1154     1   111.0400475 552.288000
   1148   1147   1151     1   112.3500484 533.878400
   1148   1157   1161     1   111.0400475 529.694400
   1151   1154   1160     1   111.0400475 529.694400
   1154   1160   2405     1   115.1800491 558.982400
   1154   1160   1162     1   123.2000528 564.003200
   1157   1161   1163     1   123.2000528 564.003200
   1157   1161   2432     1   115.1800491 558.982400
   1160   2405   2407     1   120.6900519 530.531200
   1161   2432   2434     1   120.6900519 530.531200
   1162   1160   2405     1   123.0500530 620.905600
   1163   1161   2432     1   123.0500530 620.905600
   1166   1169   1189     1   111.6100477 551.451200
   1166   1172   1173     1   112.3500484 533.878400
   1166   1172   1176     1   112.3500484 533.878400
   1169   1166   1172     1   111.0400475 552.288000
   1172   1173   1182     1   111.0400475 552.288000
   1172   1176   1179     1   111.0400475 552.288000
   1173   1172   1176     1   112.3500484 533.878400
   1173   1182   1186     1   111.0400475 529.694400
   1176   1179   1185     1   111.0400475 529.694400
   1179   1185   2459     1   115.1800491 558.982400
   1179   1185   1187     1   123.2000528 564.003200
   1182   1186   1188     1   123.2000528 564.003200
   1182   1186   2486     1   115.1800491 558.982400
   1185   2459   2461     1   120.6900519 530.531200
   1186   2486   2488     1   120.6900519 530.531200
   1187   1185   2459     1   123.0500530 620.905600
   1188   1186   2486     1   123.0500530 620.905600
   1191   1194   1214     1   111.6100477 551.451200
   1191   1197   1198     1   112.3500484 533.878400
   1191   1197   1201     1   112.3500484 533.878400
   1194   1191   1197     1   111.0400475 552.288000
   1197   1198   1207     1   111.0400475 552.288000
   1197   1201   1204     1   111.0400475 552.288000
   1198   1197   1201     1   112.3500484 533.878400
   1198   1207   1211     1   111.0400475 529.694400
   1201   1204   1210     1   111.0400475 529.694400
   1204   1210   2513     1   115.1800491 558.982400
   1204   1210   1212     1   123.2000528 564.003200
   1207   1211   1213     1   123.2000528 564.003200
   1207   1211   2540     1   115.1800491 558.982400
   1210   2513   2515     1   120.6900519 530.531200
   1211   2540   2542     1   120.6900519 530.531200
   1212   1210   2513     1   123.0500530 620.905600
   1213   1211   2540     1   123.0500530 620.905600
   1216   1219   1239     1   111.6100477 551.451200
   1216   1222   1223     1   112.3500484 533.878400
   1216   1222   1226     1   112.3500484 533.878400
   1219   1216   1222     1   111.0400475 552.288000
   1222   1223   1232     1   111.0400475 552.288000
   1222   1226   1229     1   111.0400475 552.288000
   1223   1222   1226     1   112.3500484 533.878400
   1223   1232   1236     1   111.0400475 529.694400
   1226   1229   1235     1   111.0400475 529.694400
   1229   1235   2567     1   115.1800491 558.982400
   1229   1235   1237     1   123.2000528 564.003200
   1232   1236   1238     1   123.2000528 564.003200
   1232   1236   2594     1   115.1800491 558.982400
   1235   2567   2569     1   120.6900519 530.531200
   1236   2594   2596     1   120.6900519 530.531200
   1237   1235   2567     1   123.0500530 620.905600
   1238   1236   2594     1   123.0500530 620.905600
   1241   1244   1264     1   111.6100477 551.451200
   1241   1247   1248     1   112.3500484 533.878400
   1241   1247   1251     1   112.3500484 533.878400
   1244   1241   1247     1   111.0400475 552.288000
   1247   1248   1257     1   111.0400475 552.288000
   1247   1251   1254     1   111.0400475 552.288000
   1248   1247   1251     1   112.3500484 533.878400
   1248   1257   1261     1   111.0400475 529.694400
   1251   1254   1260     1   111.0400475 529.694400
   1254   1260   2621     1   115.1800491 558.982400
   1254   1260   1262     1   123.2000528 564.003200
   1257   1261   1263     1   123.2000528 564.003200
   1257   1261   2648     1   115.1800491 558.982400
   1260   2621   2623     1   120.6900519 530.531200
   1261   2648   2650     1   120.6900519 530.531200
   1262   1260   2621     1   123.0500530 620.905600
   1263   1261   2648     1   123.0500530 620.905600
   1266   1269   1289     1   111.6100477 551.451200
   1266   1272   1273     1   112.3500484 533.878400
   1266   1272   1276     1   112.3500484 533.878400
   1269   1266   1272     1   111.0400475 552.288000
   1272   1273   1282     1   111.0400475 552.288000
   1272   1276   1279     1   111.0400475 552.288000
   1273   1272   1276     1   112.3500484 533.878400
   1273   1282   1286     1   111.0400475 529.694400
   1276   1279   1285     1   111.0400475 529.694400
   1279   1285   2675     1   115.1800491 558.982400
   1279   1285   1287     1   123.2000528 564.003200
   1282   1286   1288     1   123.2000528 564.003200
   1282   1286   2702     1   115.1800491 558.982400
   1285   2675   2677     1   120.6900519 530.531200
   1286   2702   2704     1   120.6900519 530.531200
   1287   1285   2675     1   123.0500530 620.905600
   1288   1286   2702     1   123.0500530 620.905600
   1291   1294   1314     1   111.6100477 551.451200
   1291   1297   1298     1   112.3500484 533.878400
   1291   1297   1301     1   112.3500484 533.878400
   1294   1291   1297     1   111.0400475 552.288000
   1297   1298   1307     1   111.0400475 552.288000
   1297   1301   1304     1   111.0400475 552.288000
   1298   1297   1301     1   112.3500484 533.878400
   1298   1307   1311     1   111.0400475 529.694400
   1301   1304   1310     1   111.0400475 529.694400
   1304   1310   2729     1   115.1800491 558.982400
   1304   1310   1312     1   123.2000528 564.003200
   1307   1311   1313     1   123.2000528 564.003200
   1307   1311   2756     1   115.1800491 558.982400
   1310   2729   2731     1   120.6900519 530.531200
   1311   2756   2758     1   120.6900519 530.531200
   1312   1310   2729     1   123.0500530 620.905600
   1313   1311   2756     1   123.0500530 620.905600
   1316   1319   1339     1   111.6100477 551.451200
   1316   1322   1323     1   112.3500484 533.878400
   1316   1322   1326     1   112.3500484 533.878400
   1319   1316   1322     1   111.0400475 552.288000
   1322   1323   1332     1   111.0400475 552.288000
   1322   1326   1329     1   111.0400475 552.288000
   1323   1322   1326     1   112.3500484 533.878400
   1323   1332   1336     1   111.0400475 529.694400
   1326   1329   1335     1   111.0400475 529.694400
   1329   1335   2783     1   115.1800491 558.982400
   1329   1335   1337     1   123.2000528 564.003200
   1332   1336   1338     1   123.2000528 564.003200
   1332   1336   2810     1   115.1800491 558.982400
   1335   2783   2785     1   120.6900519 530.531200
   1336   2810   2812     1   120.6900519 530.531200
   1337   1335   2783     1   123.0500530 620.905600
   1338   1336   2810     1   123.0500530 620.905600
   1341   1344   1364     1   111.6100477 551.451200
   1341   1347   1348     1   112.3500484 533.878400
   1341   1347   1351     1   112.3500484 533.878400
   1344   1341   1347     1   111.0400475 552.288000
   1347   1348   1357     1   111.0400475 552.288000
   1347   1351   1354     1   111.0400475 552.288000
   1348   1347   1351     1   112.3500484 533.878400
   1348   1357   1361     1   111.0400475 529.694400
   1351   1354   1360     1   111.0400475 529.694400
   1354   1360   2837     1   115.1800491 558.982400
   1354   1360   1362     1   123.2000528 564.003200
   1357   1361   1363     1   123.2000528 564.003200
   1357   1361   2864     1   115.1800491 558.982400
   1360   2837   2839     1   120.6900519 530.531200
   1361   2864   2866     1   120.6900519 530.531200
   1362   1360   2837     1   123.0500530 620.905600
   1363   1361   2864     1   123.0500530 620.905600
   1366   1369   1389     1   111.6100477 551.451200
   1366   1372   1373     1   112.3500484 533.878400
   1366   1372   1376     1   112.3500484 533.878400
   1369   1366   1372     1   111.0400475 552.288000
   1372   1373   1382     1   111.0400475 552.288000
   1372   1376   1379     1   111.0400475 552.288000
   1373   1372   1376     1   112.3500484 533.878400
   1373   1382   1386     1   111.0400475 529.694400
   1376   1379   1385     1   111.0400475 529.694400
   1379   1385   2891     1   115.1800491 558.982400
   1379   1385   1387     1   123.2000528 564.003200
   1382   1386   1388     1   123.2000528 564.003200
   1382   1386   2918     1   115.1800491 558.982400
   1385   2891   2893     1   120.6900519 530.531200
   1386   2918   2920     1   120.6900519 530.531200
   1387   1385   2891     1   123.0500530 620.905600
   1388   1386   2918     1   123.0500530 620.905600
   1391   1394   1414     1   111.6100477 551.451200
   1391   1397   1398     1   112.3500484 533.878400
   1391   1397   1401     1   112.3500484 533.878400
   1394   1391   1397     1   111.0400475 552.288000
   1397   1398   1407     1   111.0400475 552.288000
   1397   1401   1404     1   111.0400475 552.288000
   1398   1397   1401     1   112.3500484 533.878400
   1398   1407   1411     1   111.0400475 529.694400
   1401   1404   1410     1   111.0400475 529.694400
   1404   1410   2945     1   115.1800491 558.982400
   1404   1410   1412     1   123.2000528 564.003200
   1407   1411   1413     1   123.2000528 564.003200
   1407   1411   2972     1   115.1800491 558.982400
   1410   2945   2947     1   120.6900519 530.531200
   1411   2972   2974     1   120.6900519 530.531200
   1412   1410   2945     1   123.0500530 620.905600
   1413   1411   2972     1   123.0500530 620.905600
   1416   1419   1439     1   111.6100477 551.451200
   1416   1422   1423     1   112.3500484 533.878400
   1416   1422   1426     1   112.3500484 533.878400
   1419   1416   1422     1   111.0400475 552.288000
   1422   1423   1432     1   111.0400475 552.288000
   1422   1426   1429     1   111.0400475 552.288000
   1423   1422   1426     1   112.3500484 533.878400
   1423   1432   1436     1   111.0400475 529.694400
   1426   1429   1435     1   111.0400475 529.694400
   1429   1435   2999     1   115.1800491 558.982400
   1429   1435   1437     1   123.2000528 564.003200
   1432   1436   1438     1   123.2000528 564.003200
   1432   1436   3026     1   115.1800491 558.982400
   1435   2999   3001     1   120.6900519 530.531200
   1436   3026   3028     1   120.6900519 530.531200
   1437   1435   2999     1   123.0500530 620.905600
   1438   1436   3026     1   123.0500530 620.905600
   1441   1444   1464     1   111.6100477 551.451200
   1441   1447   1448     1   112.3500484 533.878400
   1441   1447   1451     1   112.3500484 533.878400
   1444   1441   1447     1   111.0400475 552.288000
   1447   1448   1457     1   111.0400475 552.288000
   1447   1451   1454     1   111.0400475 552.288000
   1448   1447   1451     1   112.3500484 533.878400
   1448   1457   1461     1   111.0400475 529.694400
   1451   1454   1460     1   111.0400475 529.694400
   1454   1460   3053     1   115.1800491 558.982400
   1454   1460   1462     1   123.2000528 564.003200
   1457   1461   1463     1   123.2000528 564.003200
   1457   1461   3080     1   115.1800491 558.982400
   1460   3053   3055     1   120.6900519 530.531200
   1461   3080   3082     1   120.6900519 530.531200
   1462   1460   3053     1   123.0500530 620.905600
   1463   1461   3080     1   123.0500530 620.905600
   1466   1469   1489     1   111.6100477 551.451200
   1466   1472   1473     1   112.3500484 533.878400
   1466   1472   1476     1   112.3500484 533.878400
   1469   1466   1472     1   111.0400475 552.288000
   1472   1473   1482     1   111.0400475 552.288000
   1472   1476   1479     1   111.0400475 552.288000
   1473   1472   1476     1   112.3500484 533.878400
   1473   1482   1486     1   111.0400475 529.694400
   1476   1479   1485     1   111.0400475 529.694400
   1479   1485   3107     1   115.1800491 558.982400
   1479   1485   1487     1   123.2000528 564.003200
   1482   1486   1488     1   123.2000528 564.003200
   1482   1486   3134     1   115.1800491 558.982400
   1485   3107   3109     1   120.6900519 530.531200
   1486   3134   3136     1   120.6900519 530.531200
   1487   1485   3107     1   123.0500530 620.905600
   1488   1486   3134     1   123.0500530 620.905600
   1491   1494   1514     1   111.6100477 551.451200
   1491   1497   1498     1   112.3500484 533.878400
   1491   1497   1501     1   112.3500484 533.878400
   1494   1491   1497     1   111.0400475 552.288000
   1497   1498   1507     1   111.0400475 552.288000
   1497   1501   1504     1   111.0400475 552.288000
   1498   1497   1501     1   112.3500484 533.878400
   1498   1507   1511     1   111.0400475 529.694400
   1501   1504   1510     1   111.0400475 529.694400
   1504   1510   3161     1   115.1800491 558.982400
   1504   1510   1512     1   123.2000528 564.003200
   1507   1511   1513     1   123.2000528 564.003200
   1507   1511   3188     1   115.1800491 558.982400
   1510   3161   3163     1   120.6900519 530.531200
   1511   3188   3190     1   120.6900519 530.531200
   1512   1510   3161     1   123.0500530 620.905600
   1513   1511   3188     1   123.0500530 620.905600
   1516   1519   1539     1   111.6100477 551.451200
   1516   1522   1523     1   112.3500484 533.878400
   1516   1522   1526     1   112.3500484 533.878400
   1519   1516   1522     1   111.0400475 552.288000
   1522   1523   1532     1   111.0400475 552.288000
   1522   1526   1529     1   111.0400475 552.288000
   1523   1522   1526     1   112.3500484 533.878400
   1523   1532   1536     1   111.0400475 529.694400
   1526   1529   1535     1   111.0400475 529.694400
   1529   1535   3215     1   115.1800491 558.982400
   1529   1535   1537     1   123.2000528 564.003200
   1532   1536   3242     1   115.1800491 558.982400
   1532   1536   1538     1   123.2000528 564.003200
   1535   3215   3217     1   120.6900519 530.531200
   1536   3242   3244     1   120.6900519 530.531200
   1537   1535   3215     1   123.0500530 620.905600
   1538   1536   3242     1   123.0500530 620.905600
   1541   1543   1545     1   111.6100477 551.451200
   1543   1545   1549     1   111.0400475 552.288000
   1545   1549   1550     1   112.3500484 533.878400
   1545   1549   1551     1   112.3500484 533.878400
   1549   1550   1562     1   111.0400475 552.288000
   1549   1551   1553     1   111.0400475 552.288000
   1550   1549   1551     1   112.3500484 533.878400
   1550   1562   1565     1   111.0400475 529.694400
   1551   1553   1557     1   111.0400475 529.694400
   1553   1557   1558     1   123.2000528 564.003200
   1553   1557   1559     1   123.2000528 564.003200
   1558   1557   1559     1   130.2500561 651.867200
   1562   1565   1566     1   123.2000528 564.003200
   1562   1565   1567     1   123.2000528 564.003200
   1566   1565   1567     1   130.2500561 651.867200
   1568   1570   1572     1   111.6100477 551.451200
   1570   1572   1576     1   111.0400475 552.288000
   1572   1576   1577     1   112.3500484 533.878400
   1572   1576   1578     1   112.3500484 533.878400
   1576   1577   1589     1   111.0400475 552.288000
   1576   1578   1580     1   111.0400475 552.288000
   1577   1589   1592     1   111.0400475 529.694400
   1577   1576   1578     1   112.3500484 533.878400
   1578   1580   1584     1   111.0400475 529.694400
   1580   1584   1585     1   123.2000528 564.003200
   1580   1584   1586     1   123.2000528 564.003200
   1585   1584   1586     1   130.2500561 651.867200
   1589   1592   1593     1   123.2000528 564.003200
   1589   1592   1594     1   123.2000528 564.003200
   1593   1592   1594     1   130.2500561 651.867200
   1595   1597   1599     1   111.6100477 551.451200
   1597   1599   1603     1   111.0400475 552.288000
   1599   1603   1604     1   112.3500484 533.878400
   1599   1603   1605     1   112.3500484 533.878400
   1603   1604   1616     1   111.0400475 552.288000
   1603   1605   1607     1   111.0400475 552.288000
   1604   1603   1605     1   112.3500484 533.878400
   1604   1616   1619     1   111.0400475 529.694400
   1605   1607   1611     1   111.0400475 529.694400
   1607   1611   1612     1   123.2000528 564.003200
   1607   1611   1613     1   123.2000528 564.003200
   1612   1611   1613     1   130.2500561 651.867200
   1616   1619   1620     1   123.2000528 564.003200
   1616   1619   1621     1   123.2000528 564.003200
   1620   1619   1621     1   130.2500561 651.867200
   1622   1624   1626     1   111.6100477 551.451200
   1624   1626   1630     1   111.0400475 552.288000
   1626   1630   1631     1   112.3500484 533.878400
   1626   1630   1632     1   112.3500484 533.878400
   1630   1631   1643     1   111.0400475 552.288000
   1630   1632   1634     1   111.0400475 552.288000
   1631   1643   1646     1   111.0400475 529.694400
   1631   1630   1632     1   112.3500484 533.878400
   1632   1634   1638     1   111.0400475 529.694400
   1634   1638   1639     1   123.2000528 564.003200
   1634   1638   1640     1   123.2000528 564.003200
   1639   1638   1640     1   130.2500561 651.867200
   1643   1646   1647     1   123.2000528 564.003200
   1643   1646   1648     1   123.2000528 564.003200
   1647   1646   1648     1   130.2500561 651.867200
   1649   1651   1653     1   111.6100477 551.451200
   1651   1653   1657     1   111.0400475 552.288000
   1653   1657   1658     1   112.3500484 533.878400
   1653   1657   1659     1   112.3500484 533.878400
   1657   1658   1670     1   111.0400475 552.288000
   1657   1659   1661     1   111.0400475 552.288000
   1658   1657   1659     1   112.3500484 533.878400
   1658   1670   1673     1   111.0400475 529.694400
   1659   1661   1665     1   111.0400475 529.694400
   1661   1665   1666     1   123.2000528 564.003200
   1661   1665   1667     1   123.2000528 564.003200
   1666   1665   1667     1   130.2500561 651.867200
   1670   1673   1674     1   123.2000528 564.003200
   1670   1673   1675     1   123.2000528 564.003200
   1674   1673   1675     1   130.2500561 651.867200
   1676   1678   1680     1   111.6100477 551.451200
   1678   1680   1684     1   111.0400475 552.288000
   1680   1684   1685     1   112.3500484 533.878400
   1680   1684   1686     1   112.3500484 533.878400
   1684   1685   1697     1   111.0400475 552.288000
   1684   1686   1688     1   111.0400475 552.288000
   1685   1697   1700     1   111.0400475 529.694400
   1685   1684   1686     1   112.3500484 533.878400
   1686   1688   1692     1   111.0400475 529.694400
   1688   1692   1693     1   123.2000528 564.003200
   1688   1692   1694     1   123.2000528 564.003200
   1693   1692   1694     1   130.2500561 651.867200
   1697   1700   1701     1   123.2000528 564.003200
   1697   1700   1702     1   123.2000528 564.003200
   1701   1700   1702     1   130.2500561 651.867200
   1703   1705   1707     1   111.6100477 551.451200
   1705   1707   1711     1   111.0400475 552.288000
   1707   1711   1712     1   112.3500484 533.878400
   1707   1711   1713     1   112.3500484 533.878400
   1711   1712   1724     1   111.0400475 552.288000
   1711   1713   1715     1   111.0400475 552.288000
   1712   1711   1713     1   112.3500484 533.878400
   1712   1724   1727     1   111.0400475 529.694400
   1713   1715   1719     1   111.0400475 529.694400
   1715   1719   1720     1   123.2000528 564.003200
   1715   1719   1721     1   123.2000528 564.003200
   1720   1719   1721     1   130.2500561 651.867200
   1724   1727   1728     1   123.2000528 564.003200
   1724   1727   1729     1   123.2000528 564.003200
   1728   1727   1729     1   130.2500561 651.867200
   1730   1732   1734     1   111.6100477 551.451200
   1732   1734   1738     1   111.0400475 552.288000
   1734   1738   1739     1   112.3500484 533.878400
   1734   1738   1740     1   112.3500484 533.878400
   1738   1739   1751     1   111.0400475 552.288000
   1738   1740   1742     1   111.0400475 552.288000
   1739   1751   1754     1   111.0400475 529.694400
   1739   1738   1740     1   112.3500484 533.878400
   1740   1742   1746     1   111.0400475 529.694400
   1742   1746   1747     1   123.2000528 564.003200
   1742   1746   1748     1   123.2000528 564.003200
   1747   1746   1748     1   130.2500561 651.867200
   1751   1754   1755     1   123.2000528 564.003200
   1751   1754   1756     1   123.2000528 564.003200
   1755   1754   1756     1   130.2500561 651.867200
   1757   1759   1761     1   111.6100477 551.451200
   1759   1761   1765     1   111.0400475 552.288000
   1761   1765   1766     1   112.3500484 533.878400
   1761   1765   1767     1   112.3500484 533.878400
   1765   1766   1778     1   111.0400475 552.288000
   1765   1767   1769     1   111.0400475 552.288000
   1766   1765   1767     1   112.3500484 533.878400
   1766   1778   1781     1   111.0400475 529.694400
   1767   1769   1773     1   111.0400475 529.694400
   1769   1773   1774     1   123.2000528 564.003200
   1769   1773   1775     1   123.2000528 564.003200
   1774   1773   1775     1   130.2500561 651.867200
   1778   1781   1782     1   123.2000528 564.003200
   1778   1781   1783     1   123.2000528 564.003200
   1782   1781   1783     1   130.2500561 651.867200
   1784   1786   1788     1   111.6100477 551.451200
   1786   1788   1792     1   111.0400475 552.288000
   1788   1792   1793     1   112.3500484 533.878400
   1788   1792   1794     1   112.3500484 533.878400
   1792   1793   1805     1   111.0400475 552.288000
   1792   1794   1796     1   111.0400475 552.288000
   1793   1805   1808     1   111.0400475 529.694400
   1793   1792   1794     1   112.3500484 533.878400
   1794   1796   1800     1   111.0400475 529.694400
   1796   1800   1801     1   123.2000528 564.003200
   1796   1800   1802     1   123.2000528 564.003200
   1801   1800   1802     1   130.2500561 651.867200
   1805   1808   1809     1   123.2000528 564.003200
   1805   1808   1810     1   123.2000528 564.003200
   1809   1808   1810     1   130.2500561 651.867200
   1811   1813   1815     1   111.6100477 551.451200
   1813   1815   1819     1   111.0400475 552.288000
   1815   1819   1820     1   112.3500484 533.878400
   1815   1819   1821     1   112.3500484 533.878400
   1819   1820   1832     1   111.0400475 552.288000
   1819   1821   1823     1   111.0400475 552.288000
   1820   1819   1821     1   112.3500484 533.878400
   1820   1832   1835     1   111.0400475 529.694400
   1821   1823   1827     1   111.0400475 529.694400
   1823   1827   1828     1   123.2000528 564.003200
   1823   1827   1829     1   123.2000528 564.003200
   1828   1827   1829     1   130.2500561 651.867200
   1832   1835   1836     1   123.2000528 564.003200
   1832   1835   1837     1   123.2000528 564.003200
   1836   1835   1837     1   130.2500561 651.867200
   1838   1840   1842     1   111.6100477 551.451200
   1840   1842   1846     1   111.0400475 552.288000
   1842   1846   1847     1   112.3500484 533.878400
   1842   1846   1848     1   112.3500484 533.878400
   1846   1847   1859     1   111.0400475 552.288000
   1846   1848   1850     1   111.0400475 552.288000
   1847   1859   1862     1   111.0400475 529.694400
   1847   1846   1848     1   112.3500484 533.878400
   1848   1850   1854     1   111.0400475 529.694400
   1850   1854   1855     1   123.2000528 564.003200
   1850   1854   1856     1   123.2000528 564.003200
   1855   1854   1856     1   130.2500561 651.867200
   1859   1862   1863     1   123.2000528 564.003200
   1859   1862   1864     1   123.2000528 564.003200
   1863   1862   1864     1   130.2500561 651.867200
   1865   1867   1869     1   111.6100477 551.451200
   1867   1869   1873     1   111.0400475 552.288000
   1869   1873   1874     1   112.3500484 533.878400
   1869   1873   1875     1   112.3500484 533.878400
   1873   1874   1886     1   111.0400475 552.288000
   1873   1875   1877     1   111.0400475 552.288000
   1874   1873   1875     1   112.3500484 533.878400
   1874   1886   1889     1   111.0400475 529.694400
   1875   1877   1881     1   111.0400475 529.694400
   1877   1881   1882     1   123.2000528 564.003200
   1877   1881   1883     1   123.2000528 564.003200
   1882   1881   1883     1   130.2500561 651.867200
   1886   1889   1890     1   123.2000528 564.003200
   1886   1889   1891     1   123.2000528 564.003200
   1890   1889   1891     1   130.2500561 651.867200
   1892   1894   1896     1   111.6100477 551.451200
   1894   1896   1900     1   111.0400475 552.288000
   1896   1900   1901     1   112.3500484 533.878400
   1896   1900   1902     1   112.3500484 533.878400
   1900   1901   1913     1   111.0400475 552.288000
   1900   1902   1904     1   111.0400475 552.288000
   1901   1913   1916     1   111.0400475 529.694400
   1901   1900   1902     1   112.3500484 533.878400
   1902   1904   1908     1   111.0400475 529.694400
   1904   1908   1909     1   123.2000528 564.003200
   1904   1908   1910     1   123.2000528 564.003200
   1909   1908   1910     1   130.2500561 651.867200
   1913   1916   1917     1   123.2000528 564.003200
   1913   1916   1918     1   123.2000528 564.003200
   1917   1916   1918     1   130.2500561 651.867200
   1919   1921   1923     1   111.6100477 551.451200
   1921   1923   1927     1   111.0400475 552.288000
   1923   1927   1928     1   112.3500484 533.878400
   1923   1927   1929     1   112.3500484 533.878400
   1927   1928   1940     1   111.0400475 552.288000
   1927   1929   1931     1   111.0400475 552.288000
   1928   1927   1929     1   112.3500484 533.878400
   1928   1940   1943     1   111.0400475 529.694400
   1929   1931   1935     1   111.0400475 529.694400
   1931   1935   1936     1   123.2000528 564.003200
   1931   1935   1937     1   123.2000528 564.003200
   1936   1935   1937     1   130.2500561 651.867200
   1940   1943   1944     1   123.2000528 564.003200
   1940   1943   1945     1   123.2000528 564.003200
   1944   1943   1945     1   130.2500561 651.867200
   1946   1948   1950     1   111.6100477 551.451200
   1948   1950   1954     1   111.0400475 552.288000
   1950   1954   1955     1   112.3500484 533.878400
   1950   1954   1956     1   112.3500484 533.878400
   1954   1955   1967     1   111.0400475 552.288000
   1954   1956   1958     1   111.0400475 552.288000
   1955   1967   1970     1   111.0400475 529.694400
   1955   1954   1956     1   112.3500484 533.878400
   1956   1958   1962     1   111.0400475 529.694400
   1958   1962   1963     1   123.2000528 564.003200
   1958   1962   1964     1   123.2000528 564.003200
   1963   1962   1964     1   130.2500561 651.867200
   1967   1970   1971     1   123.2000528 564.003200
   1967   1970   1972     1   123.2000528 564.003200
   1971   1970   1972     1   130.2500561 651.867200
   1973   1975   1977     1   111.6100477 551.451200
   1975   1977   1981     1   111.0400475 552.288000
   1977   1981   1982     1   112.3500484 533.878400
   1977   1981   1983     1   112.3500484 533.878400
   1981   1982   1994     1   111.0400475 552.288000
   1981   1983   1985     1   111.0400475 552.288000
   1982   1981   1983     1   112.3500484 533.878400
   1982   1994   1997     1   111.0400475 529.694400
   1983   1985   1989     1   111.0400475 529.694400
   1985   1989   1990     1   123.2000528 564.003200
   1985   1989   1991     1   123.2000528 564.003200
   1990   1989   1991     1   130.2500561 651.867200
   1994   1997   1998     1   123.2000528 564.003200
   1994   1997   1999     1   123.2000528 564.003200
   1998   1997   1999     1   130.2500561 651.867200
   2000   2002   2004     1   111.6100477 551.451200
   2002   2004   2008     1   111.0400475 552.288000
   2004   2008   2009     1   112.3500484 533.878400
   2004   2008   2010     1   112.3500484 533.878400
   2008   2009   2021     1   111.0400475 552.288000
   2008   2010   2012     1   111.0400475 552.288000
   2009   2021   2024     1   111.0400475 529.694400
   2009   2008   2010     1   112.3500484 533.878400
   2010   2012   2016     1   111.0400475 529.694400
   2012   2016   2017     1   123.2000528 564.003200
   2012   2016   2018     1   123.2000528 564.003200
   2017   2016   2018     1   130.2500561 651.867200
   2021   2024   2025     1   123.2000528 564.003200
   2021   2024   2026     1   123.2000528 564.003200
   2025   2024   2026     1   130.2500561 651.867200
   2027   2029   2031     1   111.6100477 551.451200
   2029   2031   2035     1   111.0400475 552.288000
   2031   2035   2036     1   112.3500484 533.878400
   2031   2035   2037     1   112.3500484 533.878400
   2035   2036   2048     1   111.0400475 552.288000
   2035   2037   2039     1   111.0400475 552.288000
   2036   2035   2037     1   112.3500484 533.878400
   2036   2048   2051     1   111.0400475 529.694400
   2037   2039   2043     1   111.0400475 529.694400
   2039   2043   2044     1   123.2000528 564.003200
   2039   2043   2045     1   123.2000528 564.003200
   2044   2043   2045     1   130.2500561 651.867200
   2048   2051   2052     1   123.2000528 564.003200
   2048   2051   2053     1   123.2000528 564.003200
   2052   2051   2053     1   130.2500561 651.867200
   2054   2056   2058     1   111.6100477 551.451200
   2056   2058   2062     1   111.0400475 552.288000
   2058   2062   2063     1   112.3500484 533.878400
   2058   2062   2064     1   112.3500484 533.878400
   2062   2063   2075     1   111.0400475 552.288000
   2062   2064   2066     1   111.0400475 552.288000
   2063   2075   2078     1   111.0400475 529.694400
   2063   2062   2064     1   112.3500484 533.878400
   2064   2066   2070     1   111.0400475 529.694400
   2066   2070   2071     1   123.2000528 564.003200
   2066   2070   2072     1   123.2000528 564.003200
   2071   2070   2072     1   130.2500561 651.867200
   2075   2078   2079     1   123.2000528 564.003200
   2075   2078   2080     1   123.2000528 564.003200
   2079   2078   2080     1   130.2500561 651.867200
   2081   2083   2085     1   111.6100477 551.451200
   2083   2085   2089     1   111.0400475 552.288000
   2085   2089   2090     1   112.3500484 533.878400
   2085   2089   2091     1   112.3500484 533.878400
   2089   2090   2102     1   111.0400475 552.288000
   2089   2091   2093     1   111.0400475 552.288000
   2090   2089   2091     1   112.3500484 533.878400
   2090   2102   2105     1   111.0400475 529.694400
   2091   2093   2097     1   111.0400475 529.694400
   2093   2097   2098     1   123.2000528 564.003200
   2093   2097   2099     1   123.2000528 564.003200
   2098   2097   2099     1   130.2500561 651.867200
   2102   2105   2106     1   123.2000528 564.003200
   2102   2105   2107     1   123.2000528 564.003200
   2106   2105   2107     1   130.2500561 651.867200
   2108   2110   2112     1   111.6100477 551.451200
   2110   2112   2116     1   111.0400475 552.288000
   2112   2116   2117     1   112.3500484 533.878400
   2112   2116   2118     1   112.3500484 533.878400
   2116   2117   2129     1   111.0400475 552.288000
   2116   2118   2120     1   111.0400475 552.288000
   2117   2129   2132     1   111.0400475 529.694400
   2117   2116   2118     1   112.3500484 533.878400
   2118   2120   2124     1   111.0400475 529.694400
   2120   2124   2125     1   123.2000528 564.003200
   2120   2124   2126     1   123.2000528 564.003200
   2125   2124   2126     1   130.2500561 651.867200
   2129   2132   2133     1   123.2000528 564.003200
   2129   2132   2134     1   123.2000528 564.003200
   2133   2132   2134     1   130.2500561 651.867200
   2135   2137   2139     1   111.6100477 551.451200
   2137   2139   2143     1   111.0400475 552.288000
   2139   2143   2144     1   112.3500484 533.878400
   2139   2143   2145     1   112.3500484 533.878400
   2143   2144   2156     1   111.0400475 552.288000
   2143   2145   2147     1   111.0400475 552.288000
   2144   2143   2145     1   112.3500484 533.878400
   2144   2156   2159     1   111.0400475 529.694400
   2145   2147   2151     1   111.0400475 529.694400
   2147   2151   2152     1   123.2000528 564.003200
   2147   2151   2153     1   123.2000528 564.003200
   2152   2151   2153     1   130.2500561 651.867200
   2156   2159   2160     1   123.2000528 564.003200
   2156   2159   2161     1   123.2000528 564.003200
   2160   2159   2161     1   130.2500561 651.867200
   2162   2164   2166     1   111.6100477 551.451200
   2164   2166   2170     1   111.0400475 552.288000
   2166   2170   2171     1   112.3500484 533.878400
   2166   2170   2172     1   112.3500484 533.878400
   2170   2171   2183     1   111.0400475 552.288000
   2170   2172   2174     1   111.0400475 552.288000
   2171   2183   2186     1   111.0400475 529.694400
   2171   2170   2172     1   112.3500484 533.878400
   2172   2174   2178     1   111.0400475 529.694400
   2174   2178   2179     1   123.2000528 564.003200
   2174   2178   2180     1   123.2000528 564.003200
   2179   2178   2180     1   130.2500561 651.867200
   2183   2186   2187     1   123.2000528 564.003200
   2183   2186   2188     1   123.2000528 564.003200
   2187   2186   2188     1   130.2500561 651.867200
   2189   2191   2193     1   111.6100477 551.451200
   2191   2193   2197     1   111.0400475 552.288000
   2193   2197   2198     1   112.3500484 533.878400
   2193   2197   2199     1   112.3500484 533.878400
   2197   2198   2210     1   111.0400475 552.288000
   2197   2199   2201     1   111.0400475 552.288000
   2198   2197   2199     1   112.3500484 533.878400
   2198   2210   2213     1   111.0400475 529.694400
   2199   2201   2205     1   111.0400475 529.694400
   2201   2205   2206     1   123.2000528 564.003200
   2201   2205   2207     1   123.2000528 564.003200
   2206   2205   2207     1   130.2500561 651.867200
   2210   2213   2214     1   123.2000528 564.003200
   2210   2213   2215     1   123.2000528 564.003200
   2214   2213   2215     1   130.2500561 651.867200
   2216   2218   2220     1   111.6100477 551.451200
   2218   2220   2224     1   111.0400475 552.288000
   2220   2224   2225     1   112.3500484 533.878400
   2220   2224   2226     1   112.3500484 533.878400
   2224   2225   2237     1   111.0400475 552.288000
   2224   2226   2228     1   111.0400475 552.288000
   2225   2237   2240     1   111.0400475 529.694400
   2225   2224   2226     1   112.3500484 533.878400
   2226   2228   2232     1   111.0400475 529.694400
   2228   2232   2233     1   123.2000528 564.003200
   2228   2232   2234     1   123.2000528 564.003200
   2233   2232   2234     1   130.2500561 651.867200
   2237   2240   2241     1   123.2000528 564.003200
   2237   2240   2242     1   123.2000528 564.003200
   2241   2240   2242     1   130.2500561 651.867200
   2243   2245   2247     1   111.6100477 551.451200
   2245   2247   2251     1   111.0400475 552.288000
   2247   2251   2252     1   112.3500484 533.878400
   2247   2251   2253     1   112.3500484 533.878400
   2251   2252   2264     1   111.0400475 552.288000
   2251   2253   2255     1   111.0400475 552.288000
   2252   2251   2253     1   112.3500484 533.878400
   2252   2264   2267     1   111.0400475 529.694400
   2253   2255   2259     1   111.0400475 529.694400
   2255   2259   2260     1   123.2000528 564.003200
   2255   2259   2261     1   123.2000528 564.003200
   2260   2259   2261     1   130.2500561 651.867200
   2264   2267   2268     1   123.2000528 564.003200
   2264   2267   2269     1   123.2000528 564.003200
   2268   2267   2269     1   130.2500561 651.867200
   2270   2272   2274     1   111.6100477 551.451200
   2272   2274   2278     1   111.0400475 552.288000
   2274   2278   2279     1   112.3500484 533.878400
   2274   2278   2280     1   112.3500484 533.878400
   2278   2279   2291     1   111.0400475 552.288000
   2278   2280   2282     1   111.0400475 552.288000
   2279   2291   2294     1   111.0400475 529.694400
   2279   2278   2280     1   112.3500484 533.878400
   2280   2282   2286     1   111.0400475 529.694400
   2282   2286   2287     1   123.2000528 564.003200
   2282   2286   2288     1   123.2000528 564.003200
   2287   2286   2288     1   130.2500561 651.867200
   2291   2294   2295     1   123.2000528 564.003200
   2291   2294   2296     1   123.2000528 564.003200
   2295   2294   2296     1   130.2500561 651.867200
   2297   2299   2301     1   111.6100477 551.451200
   2299   2301   2305     1   111.0400475 552.288000
   2301   2305   2306     1   112.3500484 533.878400
   2301   2305   2307     1   112.3500484 533.878400
   2305   2306   2318     1   111.0400475 552.288000
   2305   2307   2309     1   111.0400475 552.288000
   2306   2305   2307     1   112.3500484 533.878400
   2306   2318   2321     1   111.0400475 529.694400
   2307   2309   2313     1   111.0400475 529.694400
   2309   2313   2314     1   123.2000528 564.003200
   2309   2313   2315     1   123.2000528 564.003200
   2314   2313   2315     1   130.2500561 651.867200
   2318   2321   2322     1   123.2000528 564.003200
   2318   2321   2323     1   123.2000528 564.003200
   2322   2321   2323     1   130.2500561 651.867200
   2324   2326   2328     1   111.6100477 551.451200
   2326   2328   2332     1   111.0400475 552.288000
   2328   2332   2333     1   112.3500484 533.878400
   2328   2332   2334     1   112.3500484 533.878400
   2332   2333   2345     1   111.0400475 552.288000
   2332   2334   2336     1   111.0400475 552.288000
   2333   2345   2348     1   111.0400475 529.694400
   2333   2332   2334     1   112.3500484 533.878400
   2334   2336   2340     1   111.0400475 529.694400
   2336   2340   2341     1   123.2000528 564.003200
   2336   2340   2342     1   123.2000528 564.003200
   2341   2340   2342     1   130.2500561 651.867200
   2345   2348   2349     1   123.2000528 564.003200
   2345   2348   2350     1   123.2000528 564.003200
   2349   2348   2350     1   130.2500561 651.867200
   2351   2353   2355     1   111.6100477 551.451200
   2353   2355   2359     1   111.0400475 552.288000
   2355   2359   2360     1   112.3500484 533.878400
   2355   2359   2361     1   112.3500484 533.878400
   2359   2360   2372     1   111.0400475 552.288000
   2359   2361   2363     1   111.0400475 552.288000
   2360   2359   2361     1   112.3500484 533.878400
   2360   2372   2375     1   111.0400475 529.694400
   2361   2363   2367     1   111.0400475 529.694400
   2363   2367   2368     1   123.2000528 564.003200
   2363   2367   2369     1   123.2000528 564.003200
   2368   2367   2369     1   130.2500561 651.867200
   2372   2375   2376     1   123.2000528 564.003200
   2372   2375   2377     1   123.2000528 564.003200
   2376   2375   2377     1   130.2500561 651.867200
   2378   2380   2382     1   111.6100477 551.451200
   2380   2382   2386     1   111.0400475 552.288000
   2382   2386   2387     1   112.3500484 533.878400
   2382   2386   2388     1   112.3500484 533.878400
   2386   2387   2399     1   111.0400475 552.288000
   2386   2388   2390     1   111.0400475 552.288000
   2387   2399   2402     1   111.0400475 529.694400
   2387   2386   2388     1   112.3500484 533.878400
   2388   2390   2394     1   111.0400475 529.694400
   2390   2394   2395     1   123.2000528 564.003200
   2390   2394   2396     1   123.2000528 564.003200
   2395   2394   2396     1   130.2500561 651.867200
   2399   2402   2403     1   123.2000528 564.003200
   2399   2402   2404     1   123.2000528 564.003200
   2403   2402   2404     1   130.2500561 651.867200
   2405   2407   2409     1   111.6100477 551.451200
   2407   2409   2413     1   111.0400475 552.288000
   2409   2413   2414     1   112.3500484 533.878400
   2409   2413   2415     1   112.3500484 533.878400
   2413   2414   2426     1   111.0400475 552.288000
   2413   2415   2417     1   111.0400475 552.288000
   2414   2413   2415     1   112.3500484 533.878400
   2414   2426   2429     1   111.0400475 529.694400
   2415   2417   2421     1   111.0400475 529.694400
   2417   2421   2422     1   123.2000528 564.003200
   2417   2421   2423     1   123.2000528 564.003200
   2422   2421   2423     1   130.2500561 651.867200
   2426   2429   2430     1   123.2000528 564.003200
   2426   2429   2431     1   123.2000528 564.003200
   2430   2429   2431     1   130.2500561 651.867200
   2432   2434   2436     1   111.6100477 551.451200
   2434   2436   2440     1   111.0400475 552.288000
   2436   2440   2441     1   112.3500484 533.878400
   2436   2440   2442     1   112.3500484 533.878400
   2440   2441   2453     1   111.0400475 552.288000
   2440   2442   2444     1   111.0400475 552.288000
   2441   2453   2456     1   111.0400475 529.694400
   2441   2440   2442     1   112.3500484 533.878400
   2442   2444   2448     1   111.0400475 529.694400
   2444   2448   2449     1   123.2000528 564.003200
   2444   2448   2450     1   123.2000528 564.003200
   2449   2448   2450     1   130.2500561 651.867200
   2453   2456   2457     1   123.2000528 564.003200
   2453   2456   2458     1   123.2000528 564.003200
   2457   2456   2458     1   130.2500561 651.867200
   2459   2461   2463     1   111.6100477 551.451200
   2461   2463   2467     1   111.0400475 552.288000
   2463   2467   2468     1   112.3500484 533.878400
   2463   2467   2469     1   112.3500484 533.878400
   2467   2468   2480     1   111.0400475 552.288000
   2467   2469   2471     1   111.0400475 552.288000
   2468   2467   2469     1   112.3500484 533.878400
   2468   2480   2483     1   111.0400475 529.694400
   2469   2471   2475     1   111.0400475 529.694400
   2471   2475   2476     1   123.2000528 564.003200
   2471   2475   2477     1   123.2000528 564.003200
   2476   2475   2477     1   130.2500561 651.867200
   2480   2483   2484     1   123.2000528 564.003200
   2480   2483   2485     1   123.2000528 564.003200
   2484   2483   2485     1   130.2500561 651.867200
   2486   2488   2490     1   111.6100477 551.451200
   2488   2490   2494     1   111.0400475 552.288000
   2490   2494   2495     1   112.3500484 533.878400
   2490   2494   2496     1   112.3500484 533.878400
   2494   2495   2507     1   111.0400475 552.288000
   2494   2496   2498     1   111.0400475 552.288000
   2495   2507   2510     1   111.0400475 529.694400
   2495   2494   2496     1   112.3500484 533.878400
   2496   2498   2502     1   111.0400475 529.694400
   2498   2502   2503     1   123.2000528 564.003200
   2498   2502   2504     1   123.2000528 564.003200
   2503   2502   2504     1   130.2500561 651.867200
   2507   2510   2511     1   123.2000528 564.003200
   2507   2510   2512     1   123.2000528 564.003200
   2511   2510   2512     1   130.2500561 651.867200
   2513   2515   2517     1   111.6100477 551.451200
   2515   2517   2521     1   111.0400475 552.288000
   2517   2521   2522     1   112.3500484 533.878400
   2517   2521   2523     1   112.3500484 533.878400
   2521   2522   2534     1   111.0400475 552.288000
   2521   2523   2525     1   111.0400475 552.288000
   2522   2521   2523     1   112.3500484 533.878400
   2522   2534   2537     1   111.0400475 529.694400
   2523   2525   2529     1   111.0400475 529.694400
   2525   2529   2530     1   123.2000528 564.003200
   2525   2529   2531     1   123.2000528 564.003200
   2530   2529   2531     1   130.2500561 651.867200
   2534   2537   2538     1   123.2000528 564.003200
   2534   2537   2539     1   123.2000528 564.003200
   2538   2537   2539     1   130.2500561 651.867200
   2540   2542   2544     1   111.6100477 551.451200
   2542   2544   2548     1   111.0400475 552.288000
   2544   2548   2549     1   112.3500484 533.878400
   2544   2548   2550     1   112.3500484 533.878400
   2548   2549   2561     1   111.0400475 552.288000
   2548   2550   2552     1   111.0400475 552.288000
   2549   2561   2564     1   111.0400475 529.694400
   2549   2548   2550     1   112.3500484 533.878400
   2550   2552   2556     1   111.0400475 529.694400
   2552   2556   2557     1   123.2000528 564.003200
   2552   2556   2558     1   123.2000528 564.003200
   2557   2556   2558     1   130.2500561 651.867200
   2561   2564   2565     1   123.2000528 564.003200
   2561   2564   2566     1   123.2000528 564.003200
   2565   2564   2566     1   130.2500561 651.867200
   2567   2569   2571     1   111.6100477 551.451200
   2569   2571   2575     1   111.0400475 552.288000
   2571   2575   2576     1   112.3500484 533.878400
   2571   2575   2577     1   112.3500484 533.878400
   2575   2576   2588     1   111.0400475 552.288000
   2575   2577   2579     1   111.0400475 552.288000
   2576   2575   2577     1   112.3500484 533.878400
   2576   2588   2591     1   111.0400475 529.694400
   2577   2579   2583     1   111.0400475 529.694400
   2579   2583   2584     1   123.2000528 564.003200
   2579   2583   2585     1   123.2000528 564.003200
   2584   2583   2585     1   130.2500561 651.867200
   2588   2591   2592     1   123.2000528 564.003200
   2588   2591   2593     1   123.2000528 564.003200
   2592   2591   2593     1   130.2500561 651.867200
   2594   2596   2598     1   111.6100477 551.451200
   2596   2598   2602     1   111.0400475 552.288000
   2598   2602   2603     1   112.3500484 533.878400
   2598   2602   2604     1   112.3500484 533.878400
   2602   2603   2615     1   111.0400475 552.288000
   2602   2604   2606     1   111.0400475 552.288000
   2603   2615   2618     1   111.0400475 529.694400
   2603   2602   2604     1   112.3500484 533.878400
   2604   2606   2610     1   111.0400475 529.694400
   2606   2610   2611     1   123.2000528 564.003200
   2606   2610   2612     1   123.2000528 564.003200
   2611   2610   2612     1   130.2500561 651.867200
   2615   2618   2619     1   123.2000528 564.003200
   2615   2618   2620     1   123.2000528 564.003200
   2619   2618   2620     1   130.2500561 651.867200
   2621   2623   2625     1   111.6100477 551.451200
   2623   2625   2629     1   111.0400475 552.288000
   2625   2629   2630     1   112.3500484 533.878400
   2625   2629   2631     1   112.3500484 533.878400
   2629   2630   2642     1   111.0400475 552.288000
   2629   2631   2633     1   111.0400475 552.288000
   2630   2629   2631     1   112.3500484 533.878400
   2630   2642   2645     1   111.0400475 529.694400
   2631   2633   2637     1   111.0400475 529.694400
   2633   2637   2638     1   123.2000528 564.003200
   2633   2637   2639     1   123.2000528 564.003200
   2638   2637   2639     1   130.2500561 651.867200
   2642   2645   2646     1   123.2000528 564.003200
   2642   2645   2647     1   123.2000528 564.003200
   2646   2645   2647     1   130.2500561 651.867200
   2648   2650   2652     1   111.6100477 551.451200
   2650   2652   2656     1   111.0400475 552.288000
   2652   2656   2657     1   112.3500484 533.878400
   2652   2656   2658     1   112.3500484 533.878400
   2656   2657   2669     1   111.0400475 552.288000
   2656   2658   2660     1   111.0400475 552.288000
   2657   2669   2672     1   111.0400475 529.694400
   2657   2656   2658     1   112.3500484 533.878400
   2658   2660   2664     1   111.0400475 529.694400
   2660   2664   2665     1   123.2000528 564.003200
   2660   2664   2666     1   123.2000528 564.003200
   2665   2664   2666     1   130.2500561 651.867200
   2669   2672   2673     1   123.2000528 564.003200
   2669   2672   2674     1   123.2000528 564.003200
   2673   2672   2674     1   130.2500561 651.867200
   2675   2677   2679     1   111.6100477 551.451200
   2677   2679   2683     1   111.0400475 552.288000
   2679   2683   2684     1   112.3500484 533.878400
   2679   2683   2685     1   112.3500484 533.878400
   2683   2684   2696     1   111.0400475 552.288000
   2683   2685   2687     1   111.0400475 552.288000
   2684   2683   2685     1   112.3500484 533.878400
   2684   2696   2699     1   111.0400475 529.694400
   2685   2687   2691     1   111.0400475 529.694400
   2687   2691   2692     1   123.2000528 564.003200
   2687   2691   2693     1   123.2000528 564.003200
   2692   2691   2693     1   130.2500561 651.867200
   2696   2699   2700     1   123.2000528 564.003200
   2696   2699   2701     1   123.2000528 564.003200
   2700   2699   2701     1   130.2500561 651.867200
   2702   2704   2706     1   111.6100477 551.451200
   2704   2706   2710     1   111.0400475 552.288000
   2706   2710   2711     1   112.3500484 533.878400
   2706   2710   2712     1   112.3500484 533.878400
   2710   2711   2723     1   111.0400475 552.288000
   2710   2712   2714     1   111.0400475 552.288000
   2711   2723   2726     1   111.0400475 529.694400
   2711   2710   2712     1   112.3500484 533.878400
   2712   2714   2718     1   111.0400475 529.694400
   2714   2718   2719     1   123.2000528 564.003200
   2714   2718   2720     1   123.2000528 564.003200
   2719   2718   2720     1   130.2500561 651.867200
   2723   2726   2727     1   123.2000528 564.003200
   2723   2726   2728     1   123.2000528 564.003200
   2727   2726   2728     1   130.2500561 651.867200
   2729   2731   2733     1   111.6100477 551.451200
   2731   2733   2737     1   111.0400475 552.288000
   2733   2737   2738     1   112.3500484 533.878400
   2733   2737   2739     1   112.3500484 533.878400
   2737   2738   2750     1   111.0400475 552.288000
   2737   2739   2741     1   111.0400475 552.288000
   2738   2737   2739     1   112.3500484 533.878400
   2738   2750   2753     1   111.0400475 529.694400
   2739   2741   2745     1   111.0400475 529.694400
   2741   2745   2746     1   123.2000528 564.003200
   2741   2745   2747     1   123.2000528 564.003200
   2746   2745   2747     1   130.2500561 651.867200
   2750   2753   2754     1   123.2000528 564.003200
   2750   2753   2755     1   123.2000528 564.003200
   2754   2753   2755     1   130.2500561 651.867200
   2756   2758   2760     1   111.6100477 551.451200
   2758   2760   2764     1   111.0400475 552.288000
   2760   2764   2765     1   112.3500484 533.878400
   2760   2764   2766     1   112.3500484 533.878400
   2764   2765   2777     1   111.0400475 552.288000
   2764   2766   2768     1   111.0400475 552.288000
   2765   2777   2780     1   111.0400475 529.694400
   2765   2764   2766     1   112.3500484 533.878400
   2766   2768   2772     1   111.0400475 529.694400
   2768   2772   2773     1   123.2000528 564.003200
   2768   2772   2774     1   123.2000528 564.003200
   2773   2772   2774     1   130.2500561 651.867200
   2777   2780   2781     1   123.2000528 564.003200
   2777   2780   2782     1   123.2000528 564.003200
   2781   2780   2782     1   130.2500561 651.867200
   2783   2785   2787     1   111.6100477 551.451200
   2785   2787   2791     1   111.0400475 552.288000
   2787   2791   2792     1   112.3500484 533.878400
   2787   2791   2793     1   112.3500484 533.878400
   2791   2792   2804     1   111.0400475 552.288000
   2791   2793   2795     1   111.0400475 552.288000
   2792   2791   2793     1   112.3500484 533.878400
   2792   2804   2807     1   111.0400475 529.694400
   2793   2795   2799     1   111.0400475 529.694400
   2795   2799   2800     1   123.2000528 564.003200
   2795   2799   2801     1   123.2000528 564.003200
   2800   2799   2801     1   130.2500561 651.867200
   2804   2807   2808     1   123.2000528 564.003200
   2804   2807   2809     1   123.2000528 564.003200
   2808   2807   2809     1   130.2500561 651.867200
   2810   2812   2814     1   111.6100477 551.451200
   2812   2814   2818     1   111.0400475 552.288000
   2814   2818   2819     1   112.3500484 533.878400
   2814   2818   2820     1   112.3500484 533.878400
   2818   2819   2831     1   111.0400475 552.288000
   2818   2820   2822     1   111.0400475 552.288000
   2819   2831   2834     1   111.0400475 529.694400
   2819   2818   2820     1   112.3500484 533.878400
   2820   2822   2826     1   111.0400475 529.694400
   2822   2826   2827     1   123.2000528 564.003200
   2822   2826   2828     1   123.2000528 564.003200
   2827   2826   2828     1   130.2500561 651.867200
   2831   2834   2835     1   123.2000528 564.003200
   2831   2834   2836     1   123.2000528 564.003200
   2835   2834   2836     1   130.2500561 651.867200
   2837   2839   2841     1   111.6100477 551.451200
   2839   2841   2845     1   111.0400475 552.288000
   2841   2845   2846     1   112.3500484 533.878400
   2841   2845   2847     1   112.3500484 533.878400
   2845   2846   2858     1   111.0400475 552.288000
   2845   2847   2849     1   111.0400475 552.288000
   2846   2845   2847     1   112.3500484 533.878400
   2846   2858   2861     1   111.0400475 529.694400
   2847   2849   2853     1   111.0400475 529.694400
   2849   2853   2854     1   123.2000528 564.003200
   2849   2853   2855     1   123.2000528 564.003200
   2854   2853   2855     1   130.2500561 651.867200
   2858   2861   2862     1   123.2000528 564.003200
   2858   2861   2863     1   123.2000528 564.003200
   2862   2861   2863     1   130.2500561 651.867200
   2864   2866   2868     1   111.6100477 551.451200
   2866   2868   2872     1   111.0400475 552.288000
   2868   2872   2873     1   112.3500484 533.878400
   2868   2872   2874     1   112.3500484 533.878400
   2872   2873   2885     1   111.0400475 552.288000
   2872   2874   2876     1   111.0400475 552.288000
   2873   2885   2888     1   111.0400475 529.694400
   2873   2872   2874     1   112.3500484 533.878400
   2874   2876   2880     1   111.0400475 529.694400
   2876   2880   2881     1   123.2000528 564.003200
   2876   2880   2882     1   123.2000528 564.003200
   2881   2880   2882     1   130.2500561 651.867200
   2885   2888   2889     1   123.2000528 564.003200
   2885   2888   2890     1   123.2000528 564.003200
   2889   2888   2890     1   130.2500561 651.867200
   2891   2893   2895     1   111.6100477 551.451200
   2893   2895   2899     1   111.0400475 552.288000
   2895   2899   2900     1   112.3500484 533.878400
   2895   2899   2901     1   112.3500484 533.878400
   2899   2900   2912     1   111.0400475 552.288000
   2899   2901   2903     1   111.0400475 552.288000
   2900   2899   2901     1   112.3500484 533.878400
   2900   2912   2915     1   111.0400475 529.694400
   2901   2903   2907     1   111.0400475 529.694400
   2903   2907   2908     1   123.2000528 564.003200
   2903   2907   2909     1   123.2000528 564.003200
   2908   2907   2909     1   130.2500561 651.867200
   2912   2915   2916     1   123.2000528 564.003200
   2912   2915   2917     1   123.2000528 564.003200
   2916   2915   2917     1   130.2500561 651.867200
   2918   2920   2922     1   111.6100477 551.451200
   2920   2922   2926     1   111.0400475 552.288000
   2922   2926   2927     1   112.3500484 533.878400
   2922   2926   2928     1   112.3500484 533.878400
   2926   2927   2939     1   111.0400475 552.288000
   2926   2928   2930     1   111.0400475 552.288000
   2927   2939   2942     1   111.0400475 529.694400
   2927   2926   2928     1   112.3500484 533.878400
   2928   2930   2934     1   111.0400475 529.694400
   2930   2934   2935     1   123.2000528 564.003200
   2930   2934   2936     1   123.2000528 564.003200
   2935   2934   2936     1   130.2500561 651.867200
   2939   2942   2943     1   123.2000528 564.003200
   2939   2942   2944     1   123.2000528 564.003200
   2943   2942   2944     1   130.2500561 651.867200
   2945   2947   2949     1   111.6100477 551.451200
   2947   2949   2953     1   111.0400475 552.288000
   2949   2953   2954     1   112.3500484 533.878400
   2949   2953   2955     1   112.3500484 533.878400
   2953   2954   2966     1   111.0400475 552.288000
   2953   2955   2957     1   111.0400475 552.288000
   2954   2953   2955     1   112.3500484 533.878400
   2954   2966   2969     1   111.0400475 529.694400
   2955   2957   2961     1   111.0400475 529.694400
   2957   2961   2962     1   123.2000528 564.003200
   2957   2961   2963     1   123.2000528 564.003200
   2962   2961   2963     1   130.2500561 651.867200
   2966   2969   2970     1   123.2000528 564.003200
   2966   2969   2971     1   123.2000528 564.003200
   2970   2969   2971     1   130.2500561 651.867200
   2972   2974   2976     1   111.6100477 551.451200
   2974   2976   2980     1   111.0400475 552.288000
   2976   2980   2981     1   112.3500484 533.878400
   2976   2980   2982     1   112.3500484 533.878400
   2980   2981   2993     1   111.0400475 552.288000
   2980   2982   2984     1   111.0400475 552.288000
   2981   2993   2996     1   111.0400475 529.694400
   2981   2980   2982     1   112.3500484 533.878400
   2982   2984   2988     1   111.0400475 529.694400
   2984   2988   2989     1   123.2000528 564.003200
   2984   2988   2990     1   123.2000528 564.003200
   2989   2988   2990     1   130.2500561 651.867200
   2993   2996   2997     1   123.2000528 564.003200
   2993   2996   2998     1   123.2000528 564.003200
   2997   2996   2998     1   130.2500561 651.867200
   2999   3001   3003     1   111.6100477 551.451200
   3001   3003   3007     1   111.0400475 552.288000
   3003   3007   3008     1   112.3500484 533.878400
   3003   3007   3009     1   112.3500484 533.878400
   3007   3008   3020     1   111.0400475 552.288000
   3007   3009   3011     1   111.0400475 552.288000
   3008   3007   3009     1   112.3500484 533.878400
   3008   3020   3023     1   111.0400475 529.694400
   3009   3011   3015     1   111.0400475 529.694400
   3011   3015   3016     1   123.2000528 564.003200
   3011   3015   3017     1   123.2000528 564.003200
   3016   3015   3017     1   130.2500561 651.867200
   3020   3023   3024     1   123.2000528 564.003200
   3020   3023   3025     1   123.2000528 564.003200
   3024   3023   3025     1   130.2500561 651.867200
   3026   3028   3030     1   111.6100477 551.451200
   3028   3030   3034     1   111.0400475 552.288000
   3030   3034   3035     1   112.3500484 533.878400
   3030   3034   3036     1   112.3500484 533.878400
   3034   3035   3047     1   111.0400475 552.288000
   3034   3036   3038     1   111.0400475 552.288000
   3035   3047   3050     1   111.0400475 529.694400
   3035   3034   3036     1   112.3500484 533.878400
   3036   3038   3042     1   111.0400475 529.694400
   3038   3042   3043     1   123.2000528 564.003200
   3038   3042   3044     1   123.2000528 564.003200
   3043   3042   3044     1   130.2500561 651.867200
   3047   3050   3051     1   123.2000528 564.003200
   3047   3050   3052     1   123.2000528 564.003200
   3051   3050   3052     1   130.2500561 651.867200
   3053   3055   3057     1   111.6100477 551.451200
   3055   3057   3061     1   111.0400475 552.288000
   3057   3061   3062     1   112.3500484 533.878400
   3057   3061   3063     1   112.3500484 533.878400
   3061   3062   3074     1   111.0400475 552.288000
   3061   3063   3065     1   111.0400475 552.288000
   3062   3061   3063     1   112.3500484 533.878400
   3062   3074   3077     1   111.0400475 529.694400
   3063   3065   3069     1   111.0400475 529.694400
   3065   3069   3070     1   123.2000528 564.003200
   3065   3069   3071     1   123.2000528 564.003200
   3070   3069   3071     1   130.2500561 651.867200
   3074   3077   3078     1   123.2000528 564.003200
   3074   3077   3079     1   123.2000528 564.003200
   3078   3077   3079     1   130.2500561 651.867200
   3080   3082   3084     1   111.6100477 551.451200
   3082   3084   3088     1   111.0400475 552.288000
   3084   3088   3089     1   112.3500484 533.878400
   3084   3088   3090     1   112.3500484 533.878400
   3088   3089   3101     1   111.0400475 552.288000
   3088   3090   3092     1   111.0400475 552.288000
   3089   3101   3104     1   111.0400475 529.694400
   3089   3088   3090     1   112.3500484 533.878400
   3090   3092   3096     1   111.0400475 529.694400
   3092   3096   3097     1   123.2000528 564.003200
   3092   3096   3098     1   123.2000528 564.003200
   3097   3096   3098     1   130.2500561 651.867200
   3101   3104   3105     1   123.2000528 564.003200
   3101   3104   3106     1   123.2000528 564.003200
   3105   3104   3106     1   130.2500561 651.867200
   3107   3109   3111     1   111.6100477 551.451200
   3109   3111   3115     1   111.0400475 552.288000
   3111   3115   3116     1   112.3500484 533.878400
   3111   3115   3117     1   112.3500484 533.878400
   3115   3116   3128     1   111.0400475 552.288000
   3115   3117   3119     1   111.0400475 552.288000
   3116   3115   3117     1   112.3500484 533.878400
   3116   3128   3131     1   111.0400475 529.694400
   3117   3119   3123     1   111.0400475 529.694400
   3119   3123   3124     1   123.2000528 564.003200
   3119   3123   3125     1   123.2000528 564.003200
   3124   3123   3125     1   130.2500561 651.867200
   3128   3131   3132     1   123.2000528 564.003200
   3128   3131   3133     1   123.2000528 564.003200
   3132   3131   3133     1   130.2500561 651.867200
   3134   3136   3138     1   111.6100477 551.451200
   3136   3138   3142     1   111.0400475 552.288000
   3138   3142   3143     1   112.3500484 533.878400
   3138   3142   3144     1   112.3500484 533.878400
   3142   3143   3155     1   111.0400475 552.288000
   3142   3144   3146     1   111.0400475 552.288000
   3143   3155   3158     1   111.0400475 529.694400
   3143   3142   3144     1   112.3500484 533.878400
   3144   3146   3150     1   111.0400475 529.694400
   3146   3150   3151     1   123.2000528 564.003200
   3146   3150   3152     1   123.2000528 564.003200
   3151   3150   3152     1   130.2500561 651.867200
   3155   3158   3159     1   123.2000528 564.003200
   3155   3158   3160     1   123.2000528 564.003200
   3159   3158   3160     1   130.2500561 651.867200
   3161   3163   3165     1   111.6100477 551.451200
   3163   3165   3169     1   111.0400475 552.288000
   3165   3169   3170     1   112.3500484 533.878400
   3165   3169   3171     1   112.3500484 533.878400
   3169   3170   3182     1   111.0400475 552.288000
   3169   3171   3173     1   111.0400475 552.288000
   3170   3169   3171     1   112.3500484 533.878400
   3170   3182   3185     1   111.0400475 529.694400
   3171   3173   3177     1   111.0400475 529.694400
   3173   3177   3178     1   123.2000528 564.003200
   3173   3177   3179     1   123.2000528 564.003200
   3178   3177   3179     1   130.2500561 651.867200
   3182   3185   3186     1   123.2000528 564.003200
   3182   3185   3187     1   123.2000528 564.003200
   3186   3185   3187     1   130.2500561 651.867200
   3188   3190   3192     1   111.6100477 551.451200
   3190   3192   3196     1   111.0400475 552.288000
   3192   3196   3197     1   112.3500484 533.878400
   3192   3196   3198     1   112.3500484 533.878400
   3196   3197   3209     1   111.0400475 552.288000
   3196   3198   3200     1   111.0400475 552.288000
   3197   3209   3212     1   111.0400475 529.694400
   3197   3196   3198     1   112.3500484 533.878400
   3198   3200   3204     1   111.0400475 529.694400
   3200   3204   3205     1   123.2000528 564.003200
   3200   3204   3206     1   123.2000528 564.003200
   3205   3204   3206     1   130.2500561 651.867200
   3209   3212   3213     1   123.2000528 564.003200
   3209   3212   3214     1   123.2000528 564.003200
   3213   3212   3214     1   130.2500561 651.867200
   3215   3217   3219     1   111.6100477 551.451200
   3217   3219   3223     1   111.0400475 552.288000
   3219   3223   3224     1   112.3500484 533.878400
   3219   3223   3225     1   112.3500484 533.878400
   3223   3224   3236     1   111.0400475 552.288000
   3223   3225   3227     1   111.0400475 552.288000
   3224   3223   3225     1   112.3500484 533.878400
   3224   3236   3239     1   111.0400475 529.694400
   3225   3227   3231     1   111.0400475 529.694400
   3227   3231   3232     1   123.2000528 564.003200
   3227   3231   3233     1   123.2000528 564.003200
   3232   3231   3233     1   130.2500561 651.867200
   3236   3239   3240     1   123.2000528 564.003200
   3236   3239   3241     1   123.2000528 564.003200
   3240   3239   3241     1   130.2500561 651.867200
   3242   3244   3246     1   111.6100477 551.451200
   3244   3246   3250     1   111.0400475 552.288000
   3246   3250   3251     1   112.3500484 533.878400
   3246   3250   3252     1   112.3500484 533.878400
   3250   3251   3263     1   111.0400475 552.288000
   3250   3252   3254     1   111.0400475 552.288000
   3251   3263   3266     1   111.0400475 529.694400
   3251   3250   3252     1   112.3500484 533.878400
   3252   3254   3258     1   111.0400475 529.694400
   3254   3258   3259     1   123.2000528 564.003200
   3254   3258   3260     1   123.2000528 564.003200
   3259   3258   3260     1   130.2500561 651.867200
   3263   3266   3267     1   123.2000528 564.003200
   3263   3266   3268     1   123.2000528 564.003200
   3267   3266   3268     1   130.2500561 651.867200
      1      4      5     1   109.5600471 388.275200
      1      4      6     1   109.5600471 388.275200
      2      1      4     1   109.5600471 388.275200
      2      1      8     1   109.8800469 414.216000
      2      1      3     1   108.4600466 328.025600
      3      1      4     1   109.5600471 388.275200
      3      1      8     1   109.8800469 414.216000
      5      4      7     1   109.8800469 414.216000
      5      4      6     1   108.4600466 328.025600
      6      4      7     1   109.8800469 414.216000
      7     15     16     1   109.8800469 414.216000
      7     15     17     1   109.8800469 414.216000
      7     18     19     1   109.8800469 414.216000
      7     18     20     1   109.8800469 414.216000
      8      9     10     1   109.8800469 414.216000
      8      9     11     1   109.8800469 414.216000
      8     12     13     1   109.8800469 414.216000
      8     12     14     1   109.8800469 414.216000
      9     30     31     1   109.8000471 387.438400
      9     30     32     1   109.8000471 387.438400
     10      9     30     1   109.5600471 388.275200
     10      9     11     1   108.4600466 328.025600
     11      9     30     1   109.5600471 388.275200
     12     27     28     1   109.8000471 387.438400
     12     27     29     1   109.8000471 387.438400
     13     12     27     1   109.5600471 388.275200
     13     12     14     1   108.4600466 328.025600
     14     12     27     1   109.5600471 388.275200
     15     21     22     1   109.8000471 387.438400
     15     21     23     1   109.8000471 387.438400
     16     15     21     1   109.5600471 388.275200
     16     15     17     1   108.4600466 328.025600
     17     15     21     1   109.5600471 388.275200
     18     24     25     1   109.8000471 387.438400
     18     24     26     1   109.8000471 387.438400
     19     18     24     1   109.5600471 388.275200
     19     18     20     1   108.4600466 328.025600
     20     18     24     1   109.5600471 388.275200
     22     21     35     1   108.7700466 392.459200
     22     21     23     1   107.5800459 329.699200
     23     21     35     1   108.7700466 392.459200
     25     24     36     1   108.7700466 392.459200
     25     24     26     1   107.5800459 329.699200
     26     24     36     1   108.7700466 392.459200
     28     27     33     1   108.7700466 392.459200
     28     27     29     1   107.5800459 329.699200
     29     27     33     1   108.7700466 392.459200
     31     30     34     1   108.7700466 392.459200
     31     30     32     1   107.5800459 329.699200
     32     30     34     1   108.7700466 392.459200
     33     64     65     1   117.5500507 404.174400
     34     89     90     1   117.5500507 404.174400
     35    114    115     1   117.5500507 404.174400
     36    139    140     1   117.5500507 404.174400
     41     44     45     1   109.5600471 388.275200
     41     44     46     1   109.5600471 388.275200
     42     41     44     1   109.5600471 388.275200
     42     41     47     1   109.8800469 414.216000
     42     41     43     1   108.4600466 328.025600
     43     41     44     1   109.5600471 388.275200
     43     41     47     1   109.8800469 414.216000
     44     64     65     1   117.6800502 383.254400
     45     44     64     1   108.8800464 416.726400
     45     44     46     1   108.4600466 328.025600
     46     44     64     1   108.8800464 416.726400
     47     48     49     1   109.8800469 414.216000
     47     48     50     1   109.8800469 414.216000
     47     51     52     1   109.8800469 414.216000
     47     51     53     1   109.8800469 414.216000
     48     57     58     1   109.8000471 387.438400
     48     57     59     1   109.8000471 387.438400
     49     48     57     1   109.5600471 388.275200
     49     48     50     1   108.4600466 328.025600
     50     48     57     1   109.5600471 388.275200
     51     54     55     1   109.8000471 387.438400
     51     54     56     1   109.8000471 387.438400
     52     51     54     1   109.5600471 388.275200
     52     51     53     1   108.4600466 328.025600
     53     51     54     1   109.5600471 388.275200
     55     54     60     1   108.7700466 392.459200
     55     54     56     1   107.5800459 329.699200
     56     54     60     1   108.7700466 392.459200
     58     57     61     1   108.7700466 392.459200
     58     57     59     1   107.5800459 329.699200
     59     57     61     1   108.7700466 392.459200
     60    164    165     1   117.5500507 404.174400
     61    189    190     1   117.5500507 404.174400
     66     69     70     1   109.5600471 388.275200
     66     69     71     1   109.5600471 388.275200
     67     66     69     1   109.5600471 388.275200
     67     66     72     1   109.8800469 414.216000
     67     66     68     1   108.4600466 328.025600
     68     66     69     1   109.5600471 388.275200
     68     66     72     1   109.8800469 414.216000
     69     89     90     1   117.6800502 383.254400
     70     69     89     1   108.8800464 416.726400
     70     69     71     1   108.4600466 328.025600
     71     69     89     1   108.8800464 416.726400
     72     73     74     1   109.8800469 414.216000
     72     73     75     1   109.8800469 414.216000
     72     76     77     1   109.8800469 414.216000
     72     76     78     1   109.8800469 414.216000
     73     82     83     1   109.8000471 387.438400
     73     82     84     1   109.8000471 387.438400
     74     73     82     1   109.5600471 388.275200
     74     73     75     1   108.4600466 328.025600
     75     73     82     1   109.5600471 388.275200
     76     79     80     1   109.8000471 387.438400
     76     79     81     1   109.8000471 387.438400
     77     76     79     1   109.5600471 388.275200
     77     76     78     1   108.4600466 328.025600
     78     76     79     1   109.5600471 388.275200
     80     79     85     1   108.7700466 392.459200
     80     79     81     1   107.5800459 329.699200
     81     79     85     1   108.7700466 392.459200
     83     82     86     1   108.7700466 392.459200
     83     82     84     1   107.5800459 329.699200
     84     82     86     1   108.7700466 392.459200
     85    214    215     1   117.5500507 404.174400
     86    239    240     1   117.5500507 404.174400
     91     94     95     1   109.5600471 388.275200
     91     94     96     1   109.5600471 388.275200
     92     91     94     1   109.5600471 388.275200
     92     91     97     1   109.8800469 414.216000
     92     91     93     1   108.4600466 328.025600
     93     91     94     1   109.5600471 388.275200
     93     91     97     1   109.8800469 414.216000
     94    114    115     1   117.6800502 383.254400
     95     94    114     1   108.8800464 416.726400
     95     94     96     1   108.4600466 328.025600
     96     94    114     1   108.8800464 416.726400
     97     98     99     1   109.8800469 414.216000
     97     98    100     1   109.8800469 414.216000
     97    101    102     1   109.8800469 414.216000
     97    101    103     1   109.8800469 414.216000
     98    107    108     1   109.8000471 387.438400
     98    107    109     1   109.8000471 387.438400
     99     98    107     1   109.5600471 388.275200
     99     98    100     1   108.4600466 328.025600
    100     98    107     1   109.5600471 388.275200
    101    104    105     1   109.8000471 387.438400
    101    104    106     1   109.8000471 387.438400
    102    101    104     1   109.5600471 388.275200
    102    101    103     1   108.4600466 328.025600
    103    101    104     1   109.5600471 388.275200
    105    104    110     1   108.7700466 392.459200
    105    104    106     1   107.5800459 329.699200
    106    104    110     1   108.7700466 392.459200
    108    107    111     1   108.7700466 392.459200
    108    107    109     1   107.5800459 329.699200
    109    107    111     1   108.7700466 392.459200
    110    264    265     1   117.5500507 404.174400
    111    289    290     1   117.5500507 404.174400
    116    119    120     1   109.5600471 388.275200
    116    119    121     1   109.5600471 388.275200
    117    116    119     1   109.5600471 388.275200
    117    116    122     1   109.8800469 414.216000
    117    116    118     1   108.4600466 328.025600
    118    116    119     1   109.5600471 388.275200
    118    116    122     1   109.8800469 414.216000
    119    139    140     1   117.6800502 383.254400
    120    119    139     1   108.8800464 416.726400
    120    119    121     1   108.4600466 328.025600
    121    119    139     1   108.8800464 416.726400
    122    123    124     1   109.8800469 414.216000
    122    123    125     1   109.8800469 414.216000
    122    126    127     1   109.8800469 414.216000
    122    126    128     1   109.8800469 414.216000
    123    132    133     1   109.8000471 387.438400
    123    132    134     1   109.8000471 387.438400
    124    123    132     1   109.5600471 388.275200
    124    123    125     1   108.4600466 328.025600
    125    123    132     1   109.5600471 388.275200
    126    129    130     1   109.8000471 387.438400
    126    129    131     1   109.8000471 387.438400
    127    126    129     1   109.5600471 388.275200
    127    126    128     1   108.4600466 328.025600
    128    126    129     1   109.5600471 388.275200
    130    129    135     1   108.7700466 392.459200
    130    129    131     1   107.5800459 329.699200
    131    129    135     1   108.7700466 392.459200
    133    132    136     1   108.7700466 392.459200
    133    132    134     1   107.5800459 329.699200
    134    132    136     1   108.7700466 392.459200
    135    314    315     1   117.5500507 404.174400
    136    339    340     1   117.5500507 404.174400
    141    144    145     1   109.5600471 388.275200
    141    144    146     1   109.5600471 388.275200
    142    141    144     1   109.5600471 388.275200
    142    141    147     1   109.8800469 414.216000
    142    141    143     1   108.4600466 328.025600
    143    141    144     1   109.5600471 388.275200
    143    141    147     1   109.8800469 414.216000
    144    164    165     1   117.6800502 383.254400
    145    144    164     1   108.8800464 416.726400
    145    144    146     1   108.4600466 328.025600
    146    144    164     1   108.8800464 416.726400
    147    148    149     1   109.8800469 414.216000
    147    148    150     1   109.8800469 414.216000
    147    151    152     1   109.8800469 414.216000
    147    151    153     1   109.8800469 414.216000
    148    157    158     1   109.8000471 387.438400
    148    157    159     1   109.8000471 387.438400
    149    148    157     1   109.5600471 388.275200
    149    148    150     1   108.4600466 328.025600
    150    148    157     1   109.5600471 388.275200
    151    154    155     1   109.8000471 387.438400
    151    154    156     1   109.8000471 387.438400
    152    151    154     1   109.5600471 388.275200
    152    151    153     1   108.4600466 328.025600
    153    151    154     1   109.5600471 388.275200
    155    154    160     1   108.7700466 392.459200
    155    154    156     1   107.5800459 329.699200
    156    154    160     1   108.7700466 392.459200
    158    157    161     1   108.7700466 392.459200
    158    157    159     1   107.5800459 329.699200
    159    157    161     1   108.7700466 392.459200
    160    364    365     1   117.5500507 404.174400
    161    389    390     1   117.5500507 404.174400
    166    169    170     1   109.5600471 388.275200
    166    169    171     1   109.5600471 388.275200
    167    166    169     1   109.5600471 388.275200
    167    166    172     1   109.8800469 414.216000
    167    166    168     1   108.4600466 328.025600
    168    166    169     1   109.5600471 388.275200
    168    166    172     1   109.8800469 414.216000
    169    189    190     1   117.6800502 383.254400
    170    169    189     1   108.8800464 416.726400
    170    169    171     1   108.4600466 328.025600
    171    169    189     1   108.8800464 416.726400
    172    173    174     1   109.8800469 414.216000
    172    173    175     1   109.8800469 414.216000
    172    176    177     1   109.8800469 414.216000
    172    176    178     1   109.8800469 414.216000
    173    182    183     1   109.8000471 387.438400
    173    182    184     1   109.8000471 387.438400
    174    173    182     1   109.5600471 388.275200
    174    173    175     1   108.4600466 328.025600
    175    173    182     1   109.5600471 388.275200
    176    179    180     1   109.8000471 387.438400
    176    179    181     1   109.8000471 387.438400
    177    176    179     1   109.5600471 388.275200
    177    176    178     1   108.4600466 328.025600
    178    176    179     1   109.5600471 388.275200
    180    179    185     1   108.7700466 392.459200
    180    179    181     1   107.5800459 329.699200
    181    179    185     1   108.7700466 392.459200
    183    182    186     1   108.7700466 392.459200
    183    182    184     1   107.5800459 329.699200
    184    182    186     1   108.7700466 392.459200
    185    414    415     1   117.5500507 404.174400
    186    439    440     1   117.5500507 404.174400
    191    194    195     1   109.5600471 388.275200
    191    194    196     1   109.5600471 388.275200
    192    191    194     1   109.5600471 388.275200
    192    191    197     1   109.8800469 414.216000
    192    191    193     1   108.4600466 328.025600
    193    191    194     1   109.5600471 388.275200
    193    191    197     1   109.8800469 414.216000
    194    214    215     1   117.6800502 383.254400
    195    194    214     1   108.8800464 416.726400
    195    194    196     1   108.4600466 328.025600
    196    194    214     1   108.8800464 416.726400
    197    198    199     1   109.8800469 414.216000
    197    198    200     1   109.8800469 414.216000
    197    201    202     1   109.8800469 414.216000
    197    201    203     1   109.8800469 414.216000
    198    207    208     1   109.8000471 387.438400
    198    207    209     1   109.8000471 387.438400
    199    198    207     1   109.5600471 388.275200
    199    198    200     1   108.4600466 328.025600
    200    198    207     1   109.5600471 388.275200
    201    204    205     1   109.8000471 387.438400
    201    204    206     1   109.8000471 387.438400
    202    201    204     1   109.5600471 388.275200
    202    201    203     1   108.4600466 328.025600
    203    201    204     1   109.5600471 388.275200
    205    204    210     1   108.7700466 392.459200
    205    204    206     1   107.5800459 329.699200
    206    204    210     1   108.7700466 392.459200
    208    207    211     1   108.7700466 392.459200
    208    207    209     1   107.5800459 329.699200
    209    207    211     1   108.7700466 392.459200
    210    464    465     1   117.5500507 404.174400
    211    489    490     1   117.5500507 404.174400
    216    219    220     1   109.5600471 388.275200
    216    219    221     1   109.5600471 388.275200
    217    216    219     1   109.5600471 388.275200
    217    216    222     1   109.8800469 414.216000
    217    216    218     1   108.4600466 328.025600
    218    216    219     1   109.5600471 388.275200
    218    216    222     1   109.8800469 414.216000
    219    239    240     1   117.6800502 383.254400
    220    219    239     1   108.8800464 416.726400
    220    219    221     1   108.4600466 328.025600
    221    219    239     1   108.8800464 416.726400
    222    223    224     1   109.8800469 414.216000
    222    223    225     1   109.8800469 414.216000
    222    226    227     1   109.8800469 414.216000
    222    226    228     1   109.8800469 414.216000
    223    232    233     1   109.8000471 387.438400
    223    232    234     1   109.8000471 387.438400
    224    223    232     1   109.5600471 388.275200
    224    223    225     1   108.4600466 328.025600
    225    223    232     1   109.5600471 388.275200
    226    229    230     1   109.8000471 387.438400
    226    229    231     1   109.8000471 387.438400
    227    226    229     1   109.5600471 388.275200
    227    226    228     1   108.4600466 328.025600
    228    226    229     1   109.5600471 388.275200
    230    229    235     1   108.7700466 392.459200
    230    229    231     1   107.5800459 329.699200
    231    229    235     1   108.7700466 392.459200
    233    232    236     1   108.7700466 392.459200
    233    232    234     1   107.5800459 329.699200
    234    232    236     1   108.7700466 392.459200
    235    514    515     1   117.5500507 404.174400
    236    539    540     1   117.5500507 404.174400
    241    244    245     1   109.5600471 388.275200
    241    244    246     1   109.5600471 388.275200
    242    241    244     1   109.5600471 388.275200
    242    241    247     1   109.8800469 414.216000
    242    241    243     1   108.4600466 328.025600
    243    241    244     1   109.5600471 388.275200
    243    241    247     1   109.8800469 414.216000
    244    264    265     1   117.6800502 383.254400
    245    244    264     1   108.8800464 416.726400
    245    244    246     1   108.4600466 328.025600
    246    244    264     1   108.8800464 416.726400
    247    248    249     1   109.8800469 414.216000
    247    248    250     1   109.8800469 414.216000
    247    251    252     1   109.8800469 414.216000
    247    251    253     1   109.8800469 414.216000
    248    257    258     1   109.8000471 387.438400
    248    257    259     1   109.8000471 387.438400
    249    248    257     1   109.5600471 388.275200
    249    248    250     1   108.4600466 328.025600
    250    248    257     1   109.5600471 388.275200
    251    254    255     1   109.8000471 387.438400
    251    254    256     1   109.8000471 387.438400
    252    251    254     1   109.5600471 388.275200
    252    251    253     1   108.4600466 328.025600
    253    251    254     1   109.5600471 388.275200
    255    254    260     1   108.7700466 392.459200
    255    254    256     1   107.5800459 329.699200
    256    254    260     1   108.7700466 392.459200
    258    257    261     1   108.7700466 392.459200
    258    257    259     1   107.5800459 329.699200
    259    257    261     1   108.7700466 392.459200
    260    564    565     1   117.5500507 404.174400
    261    589    590     1   117.5500507 404.174400
    266    269    270     1   109.5600471 388.275200
    266    269    271     1   109.5600471 388.275200
    267    266    269     1   109.5600471 388.275200
    267    266    272     1   109.8800469 414.216000
    267    266    268     1   108.4600466 328.025600
    268    266    269     1   109.5600471 388.275200
    268    266    272     1   109.8800469 414.216000
    269    289    290     1   117.6800502 383.254400
    270    269    289     1   108.8800464 416.726400
    270    269    271     1   108.4600466 328.025600
    271    269    289     1   108.8800464 416.726400
    272    273    274     1   109.8800469 414.216000
    272    273    275     1   109.8800469 414.216000
    272    276    277     1   109.8800469 414.216000
    272    276    278     1   109.8800469 414.216000
    273    282    283     1   109.8000471 387.438400
    273    282    284     1   109.8000471 387.438400
    274    273    282     1   109.5600471 388.275200
    274    273    275     1   108.4600466 328.025600
    275    273    282     1   109.5600471 388.275200
    276    279    280     1   109.8000471 387.438400
    276    279    281     1   109.8000471 387.438400
    277    276    279     1   109.5600471 388.275200
    277    276    278     1   108.4600466 328.025600
    278    276    279     1   109.5600471 388.275200
    280    279    285     1   108.7700466 392.459200
    280    279    281     1   107.5800459 329.699200
    281    279    285     1   108.7700466 392.459200
    283    282    286     1   108.7700466 392.459200
    283    282    284     1   107.5800459 329.699200
    284    282    286     1   108.7700466 392.459200
    285    614    615     1   117.5500507 404.174400
    286    639    640     1   117.5500507 404.174400
    291    294    295     1   109.5600471 388.275200
    291    294    296     1   109.5600471 388.275200
    292    291    294     1   109.5600471 388.275200
    292    291    297     1   109.8800469 414.216000
    292    291    293     1   108.4600466 328.025600
    293    291    294     1   109.5600471 388.275200
    293    291    297     1   109.8800469 414.216000
    294    314    315     1   117.6800502 383.254400
    295    294    314     1   108.8800464 416.726400
    295    294    296     1   108.4600466 328.025600
    296    294    314     1   108.8800464 416.726400
    297    298    299     1   109.8800469 414.216000
    297    298    300     1   109.8800469 414.216000
    297    301    302     1   109.8800469 414.216000
    297    301    303     1   109.8800469 414.216000
    298    307    308     1   109.8000471 387.438400
    298    307    309     1   109.8000471 387.438400
    299    298    307     1   109.5600471 388.275200
    299    298    300     1   108.4600466 328.025600
    300    298    307     1   109.5600471 388.275200
    301    304    305     1   109.8000471 387.438400
    301    304    306     1   109.8000471 387.438400
    302    301    304     1   109.5600471 388.275200
    302    301    303     1   108.4600466 328.025600
    303    301    304     1   109.5600471 388.275200
    305    304    310     1   108.7700466 392.459200
    305    304    306     1   107.5800459 329.699200
    306    304    310     1   108.7700466 392.459200
    308    307    311     1   108.7700466 392.459200
    308    307    309     1   107.5800459 329.699200
    309    307    311     1   108.7700466 392.459200
    310    664    665     1   117.5500507 404.174400
    311    689    690     1   117.5500507 404.174400
    316    319    320     1   109.5600471 388.275200
    316    319    321     1   109.5600471 388.275200
    317    316    319     1   109.5600471 388.275200
    317    316    322     1   109.8800469 414.216000
    317    316    318     1   108.4600466 328.025600
    318    316    319     1   109.5600471 388.275200
    318    316    322     1   109.8800469 414.216000
    319    339    340     1   117.6800502 383.254400
    320    319    339     1   108.8800464 416.726400
    320    319    321     1   108.4600466 328.025600
    321    319    339     1   108.8800464 416.726400
    322    323    324     1   109.8800469 414.216000
    322    323    325     1   109.8800469 414.216000
    322    326    327     1   109.8800469 414.216000
    322    326    328     1   109.8800469 414.216000
    323    332    333     1   109.8000471 387.438400
    323    332    334     1   109.8000471 387.438400
    324    323    332     1   109.5600471 388.275200
    324    323    325     1   108.4600466 328.025600
    325    323    332     1   109.5600471 388.275200
    326    329    330     1   109.8000471 387.438400
    326    329    331     1   109.8000471 387.438400
    327    326    329     1   109.5600471 388.275200
    327    326    328     1   108.4600466 328.025600
    328    326    329     1   109.5600471 388.275200
    330    329    335     1   108.7700466 392.459200
    330    329    331     1   107.5800459 329.699200
    331    329    335     1   108.7700466 392.459200
    333    332    336     1   108.7700466 392.459200
    333    332    334     1   107.5800459 329.699200
    334    332    336     1   108.7700466 392.459200
    335    714    715     1   117.5500507 404.174400
    336    739    740     1   117.5500507 404.174400
    341    344    345     1   109.5600471 388.275200
    341    344    346     1   109.5600471 388.275200
    342    341    344     1   109.5600471 388.275200
    342    341    347     1   109.8800469 414.216000
    342    341    343     1   108.4600466 328.025600
    343    341    344     1   109.5600471 388.275200
    343    341    347     1   109.8800469 414.216000
    344    364    365     1   117.6800502 383.254400
    345    344    364     1   108.8800464 416.726400
    345    344    346     1   108.4600466 328.025600
    346    344    364     1   108.8800464 416.726400
    347    348    349     1   109.8800469 414.216000
    347    348    350     1   109.8800469 414.216000
    347    351    352     1   109.8800469 414.216000
    347    351    353     1   109.8800469 414.216000
    348    357    358     1   109.8000471 387.438400
    348    357    359     1   109.8000471 387.438400
    349    348    357     1   109.5600471 388.275200
    349    348    350     1   108.4600466 328.025600
    350    348    357     1   109.5600471 388.275200
    351    354    355     1   109.8000471 387.438400
    351    354    356     1   109.8000471 387.438400
    352    351    354     1   109.5600471 388.275200
    352    351    353     1   108.4600466 328.025600
    353    351    354     1   109.5600471 388.275200
    355    354    360     1   108.7700466 392.459200
    355    354    356     1   107.5800459 329.699200
    356    354    360     1   108.7700466 392.459200
    358    357    361     1   108.7700466 392.459200
    358    357    359     1   107.5800459 329.699200
    359    357    361     1   108.7700466 392.459200
    360    764    765     1   117.5500507 404.174400
    361    789    790     1   117.5500507 404.174400
    366    369    370     1   109.5600471 388.275200
    366    369    371     1   109.5600471 388.275200
    367    366    369     1   109.5600471 388.275200
    367    366    372     1   109.8800469 414.216000
    367    366    368     1   108.4600466 328.025600
    368    366    369     1   109.5600471 388.275200
    368    366    372     1   109.8800469 414.216000
    369    389    390     1   117.6800502 383.254400
    370    369    389     1   108.8800464 416.726400
    370    369    371     1   108.4600466 328.025600
    371    369    389     1   108.8800464 416.726400
    372    373    374     1   109.8800469 414.216000
    372    373    375     1   109.8800469 414.216000
    372    376    377     1   109.8800469 414.216000
    372    376    378     1   109.8800469 414.216000
    373    382    383     1   109.8000471 387.438400
    373    382    384     1   109.8000471 387.438400
    374    373    382     1   109.5600471 388.275200
    374    373    375     1   108.4600466 328.025600
    375    373    382     1   109.5600471 388.275200
    376    379    380     1   109.8000471 387.438400
    376    379    381     1   109.8000471 387.438400
    377    376    379     1   109.5600471 388.275200
    377    376    378     1   108.4600466 328.025600
    378    376    379     1   109.5600471 388.275200
    380    379    385     1   108.7700466 392.459200
    380    379    381     1   107.5800459 329.699200
    381    379    385     1   108.7700466 392.459200
    383    382    386     1   108.7700466 392.459200
    383    382    384     1   107.5800459 329.699200
    384    382    386     1   108.7700466 392.459200
    385    814    815     1   117.5500507 404.174400
    386    839    840     1   117.5500507 404.174400
    391    394    395     1   109.5600471 388.275200
    391    394    396     1   109.5600471 388.275200
    392    391    394     1   109.5600471 388.275200
    392    391    397     1   109.8800469 414.216000
    392    391    393     1   108.4600466 328.025600
    393    391    394     1   109.5600471 388.275200
    393    391    397     1   109.8800469 414.216000
    394    414    415     1   117.6800502 383.254400
    395    394    414     1   108.8800464 416.726400
    395    394    396     1   108.4600466 328.025600
    396    394    414     1   108.8800464 416.726400
    397    398    399     1   109.8800469 414.216000
    397    398    400     1   109.8800469 414.216000
    397    401    402     1   109.8800469 414.216000
    397    401    403     1   109.8800469 414.216000
    398    407    408     1   109.8000471 387.438400
    398    407    409     1   109.8000471 387.438400
    399    398    407     1   109.5600471 388.275200
    399    398    400     1   108.4600466 328.025600
    400    398    407     1   109.5600471 388.275200
    401    404    405     1   109.8000471 387.438400
    401    404    406     1   109.8000471 387.438400
    402    401    404     1   109.5600471 388.275200
    402    401    403     1   108.4600466 328.025600
    403    401    404     1   109.5600471 388.275200
    405    404    410     1   108.7700466 392.459200
    405    404    406     1   107.5800459 329.699200
    406    404    410     1   108.7700466 392.459200
    408    407    411     1   108.7700466 392.459200
    408    407    409     1   107.5800459 329.699200
    409    407    411     1   108.7700466 392.459200
    410    864    865     1   117.5500507 404.174400
    411    889    890     1   117.5500507 404.174400
    416    419    420     1   109.5600471 388.275200
    416    419    421     1   109.5600471 388.275200
    417    416    419     1   109.5600471 388.275200
    417    416    422     1   109.8800469 414.216000
    417    416    418     1   108.4600466 328.025600
    418    416    419     1   109.5600471 388.275200
    418    416    422     1   109.8800469 414.216000
    419    439    440     1   117.6800502 383.254400
    420    419    439     1   108.8800464 416.726400
    420    419    421     1   108.4600466 328.025600
    421    419    439     1   108.8800464 416.726400
    422    423    424     1   109.8800469 414.216000
    422    423    425     1   109.8800469 414.216000
    422    426    427     1   109.8800469 414.216000
    422    426    428     1   109.8800469 414.216000
    423    432    433     1   109.8000471 387.438400
    423    432    434     1   109.8000471 387.438400
    424    423    432     1   109.5600471 388.275200
    424    423    425     1   108.4600466 328.025600
    425    423    432     1   109.5600471 388.275200
    426    429    430     1   109.8000471 387.438400
    426    429    431     1   109.8000471 387.438400
    427    426    429     1   109.5600471 388.275200
    427    426    428     1   108.4600466 328.025600
    428    426    429     1   109.5600471 388.275200
    430    429    435     1   108.7700466 392.459200
    430    429    431     1   107.5800459 329.699200
    431    429    435     1   108.7700466 392.459200
    433    432    436     1   108.7700466 392.459200
    433    432    434     1   107.5800459 329.699200
    434    432    436     1   108.7700466 392.459200
    435    914    915     1   117.5500507 404.174400
    436    939    940     1   117.5500507 404.174400
    441    444    445     1   109.5600471 388.275200
    441    444    446     1   109.5600471 388.275200
    442    441    444     1   109.5600471 388.275200
    442    441    447     1   109.8800469 414.216000
    442    441    443     1   108.4600466 328.025600
    443    441    444     1   109.5600471 388.275200
    443    441    447     1   109.8800469 414.216000
    444    464    465     1   117.6800502 383.254400
    445    444    464     1   108.8800464 416.726400
    445    444    446     1   108.4600466 328.025600
    446    444    464     1   108.8800464 416.726400
    447    448    449     1   109.8800469 414.216000
    447    448    450     1   109.8800469 414.216000
    447    451    452     1   109.8800469 414.216000
    447    451    453     1   109.8800469 414.216000
    448    457    458     1   109.8000471 387.438400
    448    457    459     1   109.8000471 387.438400
    449    448    457     1   109.5600471 388.275200
    449    448    450     1   108.4600466 328.025600
    450    448    457     1   109.5600471 388.275200
    451    454    455     1   109.8000471 387.438400
    451    454    456     1   109.8000471 387.438400
    452    451    454     1   109.5600471 388.275200
    452    451    453     1   108.4600466 328.025600
    453    451    454     1   109.5600471 388.275200
    455    454    460     1   108.7700466 392.459200
    455    454    456     1   107.5800459 329.699200
    456    454    460     1   108.7700466 392.459200
    458    457    461     1   108.7700466 392.459200
    458    457    459     1   107.5800459 329.699200
    459    457    461     1   108.7700466 392.459200
    460    964    965     1   117.5500507 404.174400
    461    989    990     1   117.5500507 404.174400
    466    469    470     1   109.5600471 388.275200
    466    469    471     1   109.5600471 388.275200
    467    466    469     1   109.5600471 388.275200
    467    466    472     1   109.8800469 414.216000
    467    466    468     1   108.4600466 328.025600
    468    466    469     1   109.5600471 388.275200
    468    466    472     1   109.8800469 414.216000
    469    489    490     1   117.6800502 383.254400
    470    469    489     1   108.8800464 416.726400
    470    469    471     1   108.4600466 328.025600
    471    469    489     1   108.8800464 416.726400
    472    473    474     1   109.8800469 414.216000
    472    473    475     1   109.8800469 414.216000
    472    476    477     1   109.8800469 414.216000
    472    476    478     1   109.8800469 414.216000
    473    482    483     1   109.8000471 387.438400
    473    482    484     1   109.8000471 387.438400
    474    473    482     1   109.5600471 388.275200
    474    473    475     1   108.4600466 328.025600
    475    473    482     1   109.5600471 388.275200
    476    479    480     1   109.8000471 387.438400
    476    479    481     1   109.8000471 387.438400
    477    476    479     1   109.5600471 388.275200
    477    476    478     1   108.4600466 328.025600
    478    476    479     1   109.5600471 388.275200
    480    479    485     1   108.7700466 392.459200
    480    479    481     1   107.5800459 329.699200
    481    479    485     1   108.7700466 392.459200
    483    482    486     1   108.7700466 392.459200
    483    482    484     1   107.5800459 329.699200
    484    482    486     1   108.7700466 392.459200
    485   1014   1015     1   117.5500507 404.174400
    486   1039   1040     1   117.5500507 404.174400
    491    494    495     1   109.5600471 388.275200
    491    494    496     1   109.5600471 388.275200
    492    491    494     1   109.5600471 388.275200
    492    491    497     1   109.8800469 414.216000
    492    491    493     1   108.4600466 328.025600
    493    491    494     1   109.5600471 388.275200
    493    491    497     1   109.8800469 414.216000
    494    514    515     1   117.6800502 383.254400
    495    494    514     1   108.8800464 416.726400
    495    494    496     1   108.4600466 328.025600
    496    494    514     1   108.8800464 416.726400
    497    498    499     1   109.8800469 414.216000
    497    498    500     1   109.8800469 414.216000
    497    501    502     1   109.8800469 414.216000
    497    501    503     1   109.8800469 414.216000
    498    507    508     1   109.8000471 387.438400
    498    507    509     1   109.8000471 387.438400
    499    498    507     1   109.5600471 388.275200
    499    498    500     1   108.4600466 328.025600
    500    498    507     1   109.5600471 388.275200
    501    504    505     1   109.8000471 387.438400
    501    504    506     1   109.8000471 387.438400
    502    501    504     1   109.5600471 388.275200
    502    501    503     1   108.4600466 328.025600
    503    501    504     1   109.5600471 388.275200
    505    504    510     1   108.7700466 392.459200
    505    504    506     1   107.5800459 329.699200
    506    504    510     1   108.7700466 392.459200
    508    507    511     1   108.7700466 392.459200
    508    507    509     1   107.5800459 329.699200
    509    507    511     1   108.7700466 392.459200
    510   1064   1065     1   117.5500507 404.174400
    511   1089   1090     1   117.5500507 404.174400
    516    519    520     1   109.5600471 388.275200
    516    519    521     1   109.5600471 388.275200
    517    516    519     1   109.5600471 388.275200
    517    516    522     1   109.8800469 414.216000
    517    516    518     1   108.4600466 328.025600
    518    516    519     1   109.5600471 388.275200
    518    516    522     1   109.8800469 414.216000
    519    539    540     1   117.6800502 383.254400
    520    519    539     1   108.8800464 416.726400
    520    519    521     1   108.4600466 328.025600
    521    519    539     1   108.8800464 416.726400
    522    523    524     1   109.8800469 414.216000
    522    523    525     1   109.8800469 414.216000
    522    526    527     1   109.8800469 414.216000
    522    526    528     1   109.8800469 414.216000
    523    532    533     1   109.8000471 387.438400
    523    532    534     1   109.8000471 387.438400
    524    523    532     1   109.5600471 388.275200
    524    523    525     1   108.4600466 328.025600
    525    523    532     1   109.5600471 388.275200
    526    529    530     1   109.8000471 387.438400
    526    529    531     1   109.8000471 387.438400
    527    526    529     1   109.5600471 388.275200
    527    526    528     1   108.4600466 328.025600
    528    526    529     1   109.5600471 388.275200
    530    529    535     1   108.7700466 392.459200
    530    529    531     1   107.5800459 329.699200
    531    529    535     1   108.7700466 392.459200
    533    532    536     1   108.7700466 392.459200
    533    532    534     1   107.5800459 329.699200
    534    532    536     1   108.7700466 392.459200
    535   1114   1115     1   117.5500507 404.174400
    536   1139   1140     1   117.5500507 404.174400
    541    544    545     1   109.5600471 388.275200
    541    544    546     1   109.5600471 388.275200
    542    541    544     1   109.5600471 388.275200
    542    541    547     1   109.8800469 414.216000
    542    541    543     1   108.4600466 328.025600
    543    541    544     1   109.5600471 388.275200
    543    541    547     1   109.8800469 414.216000
    544    564    565     1   117.6800502 383.254400
    545    544    564     1   108.8800464 416.726400
    545    544    546     1   108.4600466 328.025600
    546    544    564     1   108.8800464 416.726400
    547    548    549     1   109.8800469 414.216000
    547    548    550     1   109.8800469 414.216000
    547    551    552     1   109.8800469 414.216000
    547    551    553     1   109.8800469 414.216000
    548    557    558     1   109.8000471 387.438400
    548    557    559     1   109.8000471 387.438400
    549    548    557     1   109.5600471 388.275200
    549    548    550     1   108.4600466 328.025600
    550    548    557     1   109.5600471 388.275200
    551    554    555     1   109.8000471 387.438400
    551    554    556     1   109.8000471 387.438400
    552    551    554     1   109.5600471 388.275200
    552    551    553     1   108.4600466 328.025600
    553    551    554     1   109.5600471 388.275200
    555    554    560     1   108.7700466 392.459200
    555    554    556     1   107.5800459 329.699200
    556    554    560     1   108.7700466 392.459200
    558    557    561     1   108.7700466 392.459200
    558    557    559     1   107.5800459 329.699200
    559    557    561     1   108.7700466 392.459200
    560   1164   1165     1   117.5500507 404.174400
    561   1189   1190     1   117.5500507 404.174400
    566    569    570     1   109.5600471 388.275200
    566    569    571     1   109.5600471 388.275200
    567    566    569     1   109.5600471 388.275200
    567    566    572     1   109.8800469 414.216000
    567    566    568     1   108.4600466 328.025600
    568    566    569     1   109.5600471 388.275200
    568    566    572     1   109.8800469 414.216000
    569    589    590     1   117.6800502 383.254400
    570    569    589     1   108.8800464 416.726400
    570    569    571     1   108.4600466 328.025600
    571    569    589     1   108.8800464 416.726400
    572    573    574     1   109.8800469 414.216000
    572    573    575     1   109.8800469 414.216000
    572    576    577     1   109.8800469 414.216000
    572    576    578     1   109.8800469 414.216000
    573    582    583     1   109.8000471 387.438400
    573    582    584     1   109.8000471 387.438400
    574    573    582     1   109.5600471 388.275200
    574    573    575     1   108.4600466 328.025600
    575    573    582     1   109.5600471 388.275200
    576    579    580     1   109.8000471 387.438400
    576    579    581     1   109.8000471 387.438400
    577    576    579     1   109.5600471 388.275200
    577    576    578     1   108.4600466 328.025600
    578    576    579     1   109.5600471 388.275200
    580    579    585     1   108.7700466 392.459200
    580    579    581     1   107.5800459 329.699200
    581    579    585     1   108.7700466 392.459200
    583    582    586     1   108.7700466 392.459200
    583    582    584     1   107.5800459 329.699200
    584    582    586     1   108.7700466 392.459200
    585   1214   1215     1   117.5500507 404.174400
    586   1239   1240     1   117.5500507 404.174400
    591    594    595     1   109.5600471 388.275200
    591    594    596     1   109.5600471 388.275200
    592    591    594     1   109.5600471 388.275200
    592    591    597     1   109.8800469 414.216000
    592    591    593     1   108.4600466 328.025600
    593    591    594     1   109.5600471 388.275200
    593    591    597     1   109.8800469 414.216000
    594    614    615     1   117.6800502 383.254400
    595    594    614     1   108.8800464 416.726400
    595    594    596     1   108.4600466 328.025600
    596    594    614     1   108.8800464 416.726400
    597    598    599     1   109.8800469 414.216000
    597    598    600     1   109.8800469 414.216000
    597    601    602     1   109.8800469 414.216000
    597    601    603     1   109.8800469 414.216000
    598    607    608     1   109.8000471 387.438400
    598    607    609     1   109.8000471 387.438400
    599    598    607     1   109.5600471 388.275200
    599    598    600     1   108.4600466 328.025600
    600    598    607     1   109.5600471 388.275200
    601    604    605     1   109.8000471 387.438400
    601    604    606     1   109.8000471 387.438400
    602    601    604     1   109.5600471 388.275200
    602    601    603     1   108.4600466 328.025600
    603    601    604     1   109.5600471 388.275200
    605    604    610     1   108.7700466 392.459200
    605    604    606     1   107.5800459 329.699200
    606    604    610     1   108.7700466 392.459200
    608    607    611     1   108.7700466 392.459200
    608    607    609     1   107.5800459 329.699200
    609    607    611     1   108.7700466 392.459200
    610   1264   1265     1   117.5500507 404.174400
    611   1289   1290     1   117.5500507 404.174400
    616    619    620     1   109.5600471 388.275200
    616    619    621     1   109.5600471 388.275200
    617    616    619     1   109.5600471 388.275200
    617    616    622     1   109.8800469 414.216000
    617    616    618     1   108.4600466 328.025600
    618    616    619     1   109.5600471 388.275200
    618    616    622     1   109.8800469 414.216000
    619    639    640     1   117.6800502 383.254400
    620    619    639     1   108.8800464 416.726400
    620    619    621     1   108.4600466 328.025600
    621    619    639     1   108.8800464 416.726400
    622    623    624     1   109.8800469 414.216000
    622    623    625     1   109.8800469 414.216000
    622    626    627     1   109.8800469 414.216000
    622    626    628     1   109.8800469 414.216000
    623    632    633     1   109.8000471 387.438400
    623    632    634     1   109.8000471 387.438400
    624    623    632     1   109.5600471 388.275200
    624    623    625     1   108.4600466 328.025600
    625    623    632     1   109.5600471 388.275200
    626    629    630     1   109.8000471 387.438400
    626    629    631     1   109.8000471 387.438400
    627    626    629     1   109.5600471 388.275200
    627    626    628     1   108.4600466 328.025600
    628    626    629     1   109.5600471 388.275200
    630    629    635     1   108.7700466 392.459200
    630    629    631     1   107.5800459 329.699200
    631    629    635     1   108.7700466 392.459200
    633    632    636     1   108.7700466 392.459200
    633    632    634     1   107.5800459 329.699200
    634    632    636     1   108.7700466 392.459200
    635   1314   1315     1   117.5500507 404.174400
    636   1339   1340     1   117.5500507 404.174400
    641    644    645     1   109.5600471 388.275200
    641    644    646     1   109.5600471 388.275200
    642    641    644     1   109.5600471 388.275200
    642    641    647     1   109.8800469 414.216000
    642    641    643     1   108.4600466 328.025600
    643    641    644     1   109.5600471 388.275200
    643    641    647     1   109.8800469 414.216000
    644    664    665     1   117.6800502 383.254400
    645    644    664     1   108.8800464 416.726400
    645    644    646     1   108.4600466 328.025600
    646    644    664     1   108.8800464 416.726400
    647    648    649     1   109.8800469 414.216000
    647    648    650     1   109.8800469 414.216000
    647    651    652     1   109.8800469 414.216000
    647    651    653     1   109.8800469 414.216000
    648    657    658     1   109.8000471 387.438400
    648    657    659     1   109.8000471 387.438400
    649    648    657     1   109.5600471 388.275200
    649    648    650     1   108.4600466 328.025600
    650    648    657     1   109.5600471 388.275200
    651    654    655     1   109.8000471 387.438400
    651    654    656     1   109.8000471 387.438400
    652    651    654     1   109.5600471 388.275200
    652    651    653     1   108.4600466 328.025600
    653    651    654     1   109.5600471 388.275200
    655    654    660     1   108.7700466 392.459200
    655    654    656     1   107.5800459 329.699200
    656    654    660     1   108.7700466 392.459200
    658    657    661     1   108.7700466 392.459200
    658    657    659     1   107.5800459 329.699200
    659    657    661     1   108.7700466 392.459200
    660   1364   1365     1   117.5500507 404.174400
    661   1389   1390     1   117.5500507 404.174400
    666    669    670     1   109.5600471 388.275200
    666    669    671     1   109.5600471 388.275200
    667    666    669     1   109.5600471 388.275200
    667    666    672     1   109.8800469 414.216000
    667    666    668     1   108.4600466 328.025600
    668    666    669     1   109.5600471 388.275200
    668    666    672     1   109.8800469 414.216000
    669    689    690     1   117.6800502 383.254400
    670    669    689     1   108.8800464 416.726400
    670    669    671     1   108.4600466 328.025600
    671    669    689     1   108.8800464 416.726400
    672    673    674     1   109.8800469 414.216000
    672    673    675     1   109.8800469 414.216000
    672    676    677     1   109.8800469 414.216000
    672    676    678     1   109.8800469 414.216000
    673    682    683     1   109.8000471 387.438400
    673    682    684     1   109.8000471 387.438400
    674    673    682     1   109.5600471 388.275200
    674    673    675     1   108.4600466 328.025600
    675    673    682     1   109.5600471 388.275200
    676    679    680     1   109.8000471 387.438400
    676    679    681     1   109.8000471 387.438400
    677    676    679     1   109.5600471 388.275200
    677    676    678     1   108.4600466 328.025600
    678    676    679     1   109.5600471 388.275200
    680    679    685     1   108.7700466 392.459200
    680    679    681     1   107.5800459 329.699200
    681    679    685     1   108.7700466 392.459200
    683    682    686     1   108.7700466 392.459200
    683    682    684     1   107.5800459 329.699200
    684    682    686     1   108.7700466 392.459200
    685   1414   1415     1   117.5500507 404.174400
    686   1439   1440     1   117.5500507 404.174400
    691    694    695     1   109.5600471 388.275200
    691    694    696     1   109.5600471 388.275200
    692    691    694     1   109.5600471 388.275200
    692    691    697     1   109.8800469 414.216000
    692    691    693     1   108.4600466 328.025600
    693    691    694     1   109.5600471 388.275200
    693    691    697     1   109.8800469 414.216000
    694    714    715     1   117.6800502 383.254400
    695    694    714     1   108.8800464 416.726400
    695    694    696     1   108.4600466 328.025600
    696    694    714     1   108.8800464 416.726400
    697    698    699     1   109.8800469 414.216000
    697    698    700     1   109.8800469 414.216000
    697    701    702     1   109.8800469 414.216000
    697    701    703     1   109.8800469 414.216000
    698    707    708     1   109.8000471 387.438400
    698    707    709     1   109.8000471 387.438400
    699    698    707     1   109.5600471 388.275200
    699    698    700     1   108.4600466 328.025600
    700    698    707     1   109.5600471 388.275200
    701    704    705     1   109.8000471 387.438400
    701    704    706     1   109.8000471 387.438400
    702    701    704     1   109.5600471 388.275200
    702    701    703     1   108.4600466 328.025600
    703    701    704     1   109.5600471 388.275200
    705    704    710     1   108.7700466 392.459200
    705    704    706     1   107.5800459 329.699200
    706    704    710     1   108.7700466 392.459200
    708    707    711     1   108.7700466 392.459200
    708    707    709     1   107.5800459 329.699200
    709    707    711     1   108.7700466 392.459200
    710   1464   1465     1   117.5500507 404.174400
    711   1489   1490     1   117.5500507 404.174400
    716    719    720     1   109.5600471 388.275200
    716    719    721     1   109.5600471 388.275200
    717    716    719     1   109.5600471 388.275200
    717    716    722     1   109.8800469 414.216000
    717    716    718     1   108.4600466 328.025600
    718    716    719     1   109.5600471 388.275200
    718    716    722     1   109.8800469 414.216000
    719    739    740     1   117.6800502 383.254400
    720    719    739     1   108.8800464 416.726400
    720    719    721     1   108.4600466 328.025600
    721    719    739     1   108.8800464 416.726400
    722    723    724     1   109.8800469 414.216000
    722    723    725     1   109.8800469 414.216000
    722    726    727     1   109.8800469 414.216000
    722    726    728     1   109.8800469 414.216000
    723    732    733     1   109.8000471 387.438400
    723    732    734     1   109.8000471 387.438400
    724    723    732     1   109.5600471 388.275200
    724    723    725     1   108.4600466 328.025600
    725    723    732     1   109.5600471 388.275200
    726    729    730     1   109.8000471 387.438400
    726    729    731     1   109.8000471 387.438400
    727    726    729     1   109.5600471 388.275200
    727    726    728     1   108.4600466 328.025600
    728    726    729     1   109.5600471 388.275200
    730    729    735     1   108.7700466 392.459200
    730    729    731     1   107.5800459 329.699200
    731    729    735     1   108.7700466 392.459200
    733    732    736     1   108.7700466 392.459200
    733    732    734     1   107.5800459 329.699200
    734    732    736     1   108.7700466 392.459200
    735   1514   1515     1   117.5500507 404.174400
    736   1539   1540     1   117.5500507 404.174400
    741    744    745     1   109.5600471 388.275200
    741    744    746     1   109.5600471 388.275200
    742    741    744     1   109.5600471 388.275200
    742    741    747     1   109.8800469 414.216000
    742    741    743     1   108.4600466 328.025600
    743    741    744     1   109.5600471 388.275200
    743    741    747     1   109.8800469 414.216000
    744    764    765     1   117.6800502 383.254400
    745    744    764     1   108.8800464 416.726400
    745    744    746     1   108.4600466 328.025600
    746    744    764     1   108.8800464 416.726400
    747    748    749     1   109.8800469 414.216000
    747    748    750     1   109.8800469 414.216000
    747    751    752     1   109.8800469 414.216000
    747    751    753     1   109.8800469 414.216000
    748    757    758     1   109.8000471 387.438400
    748    757    759     1   109.8000471 387.438400
    749    748    757     1   109.5600471 388.275200
    749    748    750     1   108.4600466 328.025600
    750    748    757     1   109.5600471 388.275200
    751    754    755     1   109.8000471 387.438400
    751    754    756     1   109.8000471 387.438400
    752    751    754     1   109.5600471 388.275200
    752    751    753     1   108.4600466 328.025600
    753    751    754     1   109.5600471 388.275200
    755    754    760     1   108.7700466 392.459200
    755    754    756     1   107.5800459 329.699200
    756    754    760     1   108.7700466 392.459200
    758    757    761     1   108.7700466 392.459200
    758    757    759     1   107.5800459 329.699200
    759    757    761     1   108.7700466 392.459200
    760   1541   1542     1   117.5500507 404.174400
    761   1568   1569     1   117.5500507 404.174400
    766    769    770     1   109.5600471 388.275200
    766    769    771     1   109.5600471 388.275200
    767    766    769     1   109.5600471 388.275200
    767    766    772     1   109.8800469 414.216000
    767    766    768     1   108.4600466 328.025600
    768    766    769     1   109.5600471 388.275200
    768    766    772     1   109.8800469 414.216000
    769    789    790     1   117.6800502 383.254400
    770    769    789     1   108.8800464 416.726400
    770    769    771     1   108.4600466 328.025600
    771    769    789     1   108.8800464 416.726400
    772    773    774     1   109.8800469 414.216000
    772    773    775     1   109.8800469 414.216000
    772    776    777     1   109.8800469 414.216000
    772    776    778     1   109.8800469 414.216000
    773    782    783     1   109.8000471 387.438400
    773    782    784     1   109.8000471 387.438400
    774    773    782     1   109.5600471 388.275200
    774    773    775     1   108.4600466 328.025600
    775    773    782     1   109.5600471 388.275200
    776    779    780     1   109.8000471 387.438400
    776    779    781     1   109.8000471 387.438400
    777    776    779     1   109.5600471 388.275200
    777    776    778     1   108.4600466 328.025600
    778    776    779     1   109.5600471 388.275200
    780    779    785     1   108.7700466 392.459200
    780    779    781     1   107.5800459 329.699200
    781    779    785     1   108.7700466 392.459200
    783    782    786     1   108.7700466 392.459200
    783    782    784     1   107.5800459 329.699200
    784    782    786     1   108.7700466 392.459200
    785   1595   1596     1   117.5500507 404.174400
    786   1622   1623     1   117.5500507 404.174400
    791    794    795     1   109.5600471 388.275200
    791    794    796     1   109.5600471 388.275200
    792    791    794     1   109.5600471 388.275200
    792    791    797     1   109.8800469 414.216000
    792    791    793     1   108.4600466 328.025600
    793    791    794     1   109.5600471 388.275200
    793    791    797     1   109.8800469 414.216000
    794    814    815     1   117.6800502 383.254400
    795    794    814     1   108.8800464 416.726400
    795    794    796     1   108.4600466 328.025600
    796    794    814     1   108.8800464 416.726400
    797    798    799     1   109.8800469 414.216000
    797    798    800     1   109.8800469 414.216000
    797    801    802     1   109.8800469 414.216000
    797    801    803     1   109.8800469 414.216000
    798    807    808     1   109.8000471 387.438400
    798    807    809     1   109.8000471 387.438400
    799    798    807     1   109.5600471 388.275200
    799    798    800     1   108.4600466 328.025600
    800    798    807     1   109.5600471 388.275200
    801    804    805     1   109.8000471 387.438400
    801    804    806     1   109.8000471 387.438400
    802    801    804     1   109.5600471 388.275200
    802    801    803     1   108.4600466 328.025600
    803    801    804     1   109.5600471 388.275200
    805    804    810     1   108.7700466 392.459200
    805    804    806     1   107.5800459 329.699200
    806    804    810     1   108.7700466 392.459200
    808    807    811     1   108.7700466 392.459200
    808    807    809     1   107.5800459 329.699200
    809    807    811     1   108.7700466 392.459200
    810   1649   1650     1   117.5500507 404.174400
    811   1676   1677     1   117.5500507 404.174400
    816    819    820     1   109.5600471 388.275200
    816    819    821     1   109.5600471 388.275200
    817    816    819     1   109.5600471 388.275200
    817    816    822     1   109.8800469 414.216000
    817    816    818     1   108.4600466 328.025600
    818    816    819     1   109.5600471 388.275200
    818    816    822     1   109.8800469 414.216000
    819    839    840     1   117.6800502 383.254400
    820    819    839     1   108.8800464 416.726400
    820    819    821     1   108.4600466 328.025600
    821    819    839     1   108.8800464 416.726400
    822    823    824     1   109.8800469 414.216000
    822    823    825     1   109.8800469 414.216000
    822    826    827     1   109.8800469 414.216000
    822    826    828     1   109.8800469 414.216000
    823    832    833     1   109.8000471 387.438400
    823    832    834     1   109.8000471 387.438400
    824    823    832     1   109.5600471 388.275200
    824    823    825     1   108.4600466 328.025600
    825    823    832     1   109.5600471 388.275200
    826    829    830     1   109.8000471 387.438400
    826    829    831     1   109.8000471 387.438400
    827    826    829     1   109.5600471 388.275200
    827    826    828     1   108.4600466 328.025600
    828    826    829     1   109.5600471 388.275200
    830    829    835     1   108.7700466 392.459200
    830    829    831     1   107.5800459 329.699200
    831    829    835     1   108.7700466 392.459200
    833    832    836     1   108.7700466 392.459200
    833    832    834     1   107.5800459 329.699200
    834    832    836     1   108.7700466 392.459200
    835   1703   1704     1   117.5500507 404.174400
    836   1730   1731     1   117.5500507 404.174400
    841    844    845     1   109.5600471 388.275200
    841    844    846     1   109.5600471 388.275200
    842    841    844     1   109.5600471 388.275200
    842    841    847     1   109.8800469 414.216000
    842    841    843     1   108.4600466 328.025600
    843    841    844     1   109.5600471 388.275200
    843    841    847     1   109.8800469 414.216000
    844    864    865     1   117.6800502 383.254400
    845    844    864     1   108.8800464 416.726400
    845    844    846     1   108.4600466 328.025600
    846    844    864     1   108.8800464 416.726400
    847    848    849     1   109.8800469 414.216000
    847    848    850     1   109.8800469 414.216000
    847    851    852     1   109.8800469 414.216000
    847    851    853     1   109.8800469 414.216000
    848    857    858     1   109.8000471 387.438400
    848    857    859     1   109.8000471 387.438400
    849    848    857     1   109.5600471 388.275200
    849    848    850     1   108.4600466 328.025600
    850    848    857     1   109.5600471 388.275200
    851    854    855     1   109.8000471 387.438400
    851    854    856     1   109.8000471 387.438400
    852    851    854     1   109.5600471 388.275200
    852    851    853     1   108.4600466 328.025600
    853    851    854     1   109.5600471 388.275200
    855    854    860     1   108.7700466 392.459200
    855    854    856     1   107.5800459 329.699200
    856    854    860     1   108.7700466 392.459200
    858    857    861     1   108.7700466 392.459200
    858    857    859     1   107.5800459 329.699200
    859    857    861     1   108.7700466 392.459200
    860   1757   1758     1   117.5500507 404.174400
    861   1784   1785     1   117.5500507 404.174400
    866    869    870     1   109.5600471 388.275200
    866    869    871     1   109.5600471 388.275200
    867    866    869     1   109.5600471 388.275200
    867    866    872     1   109.8800469 414.216000
    867    866    868     1   108.4600466 328.025600
    868    866    869     1   109.5600471 388.275200
    868    866    872     1   109.8800469 414.216000
    869    889    890     1   117.6800502 383.254400
    870    869    889     1   108.8800464 416.726400
    870    869    871     1   108.4600466 328.025600
    871    869    889     1   108.8800464 416.726400
    872    873    874     1   109.8800469 414.216000
    872    873    875     1   109.8800469 414.216000
    872    876    877     1   109.8800469 414.216000
    872    876    878     1   109.8800469 414.216000
    873    882    883     1   109.8000471 387.438400
    873    882    884     1   109.8000471 387.438400
    874    873    882     1   109.5600471 388.275200
    874    873    875     1   108.4600466 328.025600
    875    873    882     1   109.5600471 388.275200
    876    879    880     1   109.8000471 387.438400
    876    879    881     1   109.8000471 387.438400
    877    876    879     1   109.5600471 388.275200
    877    876    878     1   108.4600466 328.025600
    878    876    879     1   109.5600471 388.275200
    880    879    885     1   108.7700466 392.459200
    880    879    881     1   107.5800459 329.699200
    881    879    885     1   108.7700466 392.459200
    883    882    886     1   108.7700466 392.459200
    883    882    884     1   107.5800459 329.699200
    884    882    886     1   108.7700466 392.459200
    885   1811   1812     1   117.5500507 404.174400
    886   1838   1839     1   117.5500507 404.174400
    891    894    895     1   109.5600471 388.275200
    891    894    896     1   109.5600471 388.275200
    892    891    894     1   109.5600471 388.275200
    892    891    897     1   109.8800469 414.216000
    892    891    893     1   108.4600466 328.025600
    893    891    894     1   109.5600471 388.275200
    893    891    897     1   109.8800469 414.216000
    894    914    915     1   117.6800502 383.254400
    895    894    914     1   108.8800464 416.726400
    895    894    896     1   108.4600466 328.025600
    896    894    914     1   108.8800464 416.726400
    897    898    899     1   109.8800469 414.216000
    897    898    900     1   109.8800469 414.216000
    897    901    902     1   109.8800469 414.216000
    897    901    903     1   109.8800469 414.216000
    898    907    908     1   109.8000471 387.438400
    898    907    909     1   109.8000471 387.438400
    899    898    907     1   109.5600471 388.275200
    899    898    900     1   108.4600466 328.025600
    900    898    907     1   109.5600471 388.275200
    901    904    905     1   109.8000471 387.438400
    901    904    906     1   109.8000471 387.438400
    902    901    904     1   109.5600471 388.275200
    902    901    903     1   108.4600466 328.025600
    903    901    904     1   109.5600471 388.275200
    905    904    910     1   108.7700466 392.459200
    905    904    906     1   107.5800459 329.699200
    906    904    910     1   108.7700466 392.459200
    908    907    911     1   108.7700466 392.459200
    908    907    909     1   107.5800459 329.699200
    909    907    911     1   108.7700466 392.459200
    910   1865   1866     1   117.5500507 404.174400
    911   1892   1893     1   117.5500507 404.174400
    916    919    920     1   109.5600471 388.275200
    916    919    921     1   109.5600471 388.275200
    917    916    919     1   109.5600471 388.275200
    917    916    922     1   109.8800469 414.216000
    917    916    918     1   108.4600466 328.025600
    918    916    919     1   109.5600471 388.275200
    918    916    922     1   109.8800469 414.216000
    919    939    940     1   117.6800502 383.254400
    920    919    939     1   108.8800464 416.726400
    920    919    921     1   108.4600466 328.025600
    921    919    939     1   108.8800464 416.726400
    922    923    924     1   109.8800469 414.216000
    922    923    925     1   109.8800469 414.216000
    922    926    927     1   109.8800469 414.216000
    922    926    928     1   109.8800469 414.216000
    923    932    933     1   109.8000471 387.438400
    923    932    934     1   109.8000471 387.438400
    924    923    932     1   109.5600471 388.275200
    924    923    925     1   108.4600466 328.025600
    925    923    932     1   109.5600471 388.275200
    926    929    930     1   109.8000471 387.438400
    926    929    931     1   109.8000471 387.438400
    927    926    929     1   109.5600471 388.275200
    927    926    928     1   108.4600466 328.025600
    928    926    929     1   109.5600471 388.275200
    930    929    935     1   108.7700466 392.459200
    930    929    931     1   107.5800459 329.699200
    931    929    935     1   108.7700466 392.459200
    933    932    936     1   108.7700466 392.459200
    933    932    934     1   107.5800459 329.699200
    934    932    936     1   108.7700466 392.459200
    935   1919   1920     1   117.5500507 404.174400
    936   1946   1947     1   117.5500507 404.174400
    941    944    945     1   109.5600471 388.275200
    941    944    946     1   109.5600471 388.275200
    942    941    944     1   109.5600471 388.275200
    942    941    947     1   109.8800469 414.216000
    942    941    943     1   108.4600466 328.025600
    943    941    944     1   109.5600471 388.275200
    943    941    947     1   109.8800469 414.216000
    944    964    965     1   117.6800502 383.254400
    945    944    964     1   108.8800464 416.726400
    945    944    946     1   108.4600466 328.025600
    946    944    964     1   108.8800464 416.726400
    947    948    949     1   109.8800469 414.216000
    947    948    950     1   109.8800469 414.216000
    947    951    952     1   109.8800469 414.216000
    947    951    953     1   109.8800469 414.216000
    948    957    958     1   109.8000471 387.438400
    948    957    959     1   109.8000471 387.438400
    949    948    957     1   109.5600471 388.275200
    949    948    950     1   108.4600466 328.025600
    950    948    957     1   109.5600471 388.275200
    951    954    955     1   109.8000471 387.438400
    951    954    956     1   109.8000471 387.438400
    952    951    954     1   109.5600471 388.275200
    952    951    953     1   108.4600466 328.025600
    953    951    954     1   109.5600471 388.275200
    955    954    960     1   108.7700466 392.459200
    955    954    956     1   107.5800459 329.699200
    956    954    960     1   108.7700466 392.459200
    958    957    961     1   108.7700466 392.459200
    958    957    959     1   107.5800459 329.699200
    959    957    961     1   108.7700466 392.459200
    960   1973   1974     1   117.5500507 404.174400
    961   2000   2001     1   117.5500507 404.174400
    966    969    970     1   109.5600471 388.275200
    966    969    971     1   109.5600471 388.275200
    967    966    969     1   109.5600471 388.275200
    967    966    972     1   109.8800469 414.216000
    967    966    968     1   108.4600466 328.025600
    968    966    969     1   109.5600471 388.275200
    968    966    972     1   109.8800469 414.216000
    969    989    990     1   117.6800502 383.254400
    970    969    989     1   108.8800464 416.726400
    970    969    971     1   108.4600466 328.025600
    971    969    989     1   108.8800464 416.726400
    972    973    974     1   109.8800469 414.216000
    972    973    975     1   109.8800469 414.216000
    972    976    977     1   109.8800469 414.216000
    972    976    978     1   109.8800469 414.216000
    973    982    983     1   109.8000471 387.438400
    973    982    984     1   109.8000471 387.438400
    974    973    982     1   109.5600471 388.275200
    974    973    975     1   108.4600466 328.025600
    975    973    982     1   109.5600471 388.275200
    976    979    980     1   109.8000471 387.438400
    976    979    981     1   109.8000471 387.438400
    977    976    979     1   109.5600471 388.275200
    977    976    978     1   108.4600466 328.025600
    978    976    979     1   109.5600471 388.275200
    980    979    985     1   108.7700466 392.459200
    980    979    981     1   107.5800459 329.699200
    981    979    985     1   108.7700466 392.459200
    983    982    986     1   108.7700466 392.459200
    983    982    984     1   107.5800459 329.699200
    984    982    986     1   108.7700466 392.459200
    985   2027   2028     1   117.5500507 404.174400
    986   2054   2055     1   117.5500507 404.174400
    991    994    995     1   109.5600471 388.275200
    991    994    996     1   109.5600471 388.275200
    992    991    994     1   109.5600471 388.275200
    992    991    997     1   109.8800469 414.216000
    992    991    993     1   108.4600466 328.025600
    993    991    994     1   109.5600471 388.275200
    993    991    997     1   109.8800469 414.216000
    994   1014   1015     1   117.6800502 383.254400
    995    994   1014     1   108.8800464 416.726400
    995    994    996     1   108.4600466 328.025600
    996    994   1014     1   108.8800464 416.726400
    997    998    999     1   109.8800469 414.216000
    997    998   1000     1   109.8800469 414.216000
    997   1001   1002     1   109.8800469 414.216000
    997   1001   1003     1   109.8800469 414.216000
    998   1007   1008     1   109.8000471 387.438400
    998   1007   1009     1   109.8000471 387.438400
    999    998   1007     1   109.5600471 388.275200
    999    998   1000     1   108.4600466 328.025600
   1000    998   1007     1   109.5600471 388.275200
   1001   1004   1005     1   109.8000471 387.438400
   1001   1004   1006     1   109.8000471 387.438400
   1002   1001   1004     1   109.5600471 388.275200
   1002   1001   1003     1   108.4600466 328.025600
   1003   1001   1004     1   109.5600471 388.275200
   1005   1004   1010     1   108.7700466 392.459200
   1005   1004   1006     1   107.5800459 329.699200
   1006   1004   1010     1   108.7700466 392.459200
   1008   1007   1011     1   108.7700466 392.459200
   1008   1007   1009     1   107.5800459 329.699200
   1009   1007   1011     1   108.7700466 392.459200
   1010   2081   2082     1   117.5500507 404.174400
   1011   2108   2109     1   117.5500507 404.174400
   1016   1019   1020     1   109.5600471 388.275200
   1016   1019   1021     1   109.5600471 388.275200
   1017   1016   1019     1   109.5600471 388.275200
   1017   1016   1022     1   109.8800469 414.216000
   1017   1016   1018     1   108.4600466 328.025600
   1018   1016   1019     1   109.5600471 388.275200
   1018   1016   1022     1   109.8800469 414.216000
   1019   1039   1040     1   117.6800502 383.254400
   1020   1019   1039     1   108.8800464 416.726400
   1020   1019   1021     1   108.4600466 328.025600
   1021   1019   1039     1   108.8800464 416.726400
   1022   1023   1024     1   109.8800469 414.216000
   1022   1023   1025     1   109.8800469 414.216000
   1022   1026   1027     1   109.8800469 414.216000
   1022   1026   1028     1   109.8800469 414.216000
   1023   1032   1033     1   109.8000471 387.438400
   1023   1032   1034     1   109.8000471 387.438400
   1024   1023   1032     1   109.5600471 388.275200
   1024   1023   1025     1   108.4600466 328.025600
   1025   1023   1032     1   109.5600471 388.275200
   1026   1029   1030     1   109.8000471 387.438400
   1026   1029   1031     1   109.8000471 387.438400
   1027   1026   1029     1   109.5600471 388.275200
   1027   1026   1028     1   108.4600466 328.025600
   1028   1026   1029     1   109.5600471 388.275200
   1030   1029   1035     1   108.7700466 392.459200
   1030   1029   1031     1   107.5800459 329.699200
   1031   1029   1035     1   108.7700466 392.459200
   1033   1032   1036     1   108.7700466 392.459200
   1033   1032   1034     1   107.5800459 329.699200
   1034   1032   1036     1   108.7700466 392.459200
   1035   2135   2136     1   117.5500507 404.174400
   1036   2162   2163     1   117.5500507 404.174400
   1041   1044   1045     1   109.5600471 388.275200
   1041   1044   1046     1   109.5600471 388.275200
   1042   1041   1044     1   109.5600471 388.275200
   1042   1041   1047     1   109.8800469 414.216000
   1042   1041   1043     1   108.4600466 328.025600
   1043   1041   1044     1   109.5600471 388.275200
   1043   1041   1047     1   109.8800469 414.216000
   1044   1064   1065     1   117.6800502 383.254400
   1045   1044   1064     1   108.8800464 416.726400
   1045   1044   1046     1   108.4600466 328.025600
   1046   1044   1064     1   108.8800464 416.726400
   1047   1048   1049     1   109.8800469 414.216000
   1047   1048   1050     1   109.8800469 414.216000
   1047   1051   1052     1   109.8800469 414.216000
   1047   1051   1053     1   109.8800469 414.216000
   1048   1057   1058     1   109.8000471 387.438400
   1048   1057   1059     1   109.8000471 387.438400
   1049   1048   1057     1   109.5600471 388.275200
   1049   1048   1050     1   108.4600466 328.025600
   1050   1048   1057     1   109.5600471 388.275200
   1051   1054   1055     1   109.8000471 387.438400
   1051   1054   1056     1   109.8000471 387.438400
   1052   1051   1054     1   109.5600471 388.275200
   1052   1051   1053     1   108.4600466 328.025600
   1053   1051   1054     1   109.5600471 388.275200
   1055   1054   1060     1   108.7700466 392.459200
   1055   1054   1056     1   107.5800459 329.699200
   1056   1054   1060     1   108.7700466 392.459200
   1058   1057   1061     1   108.7700466 392.459200
   1058   1057   1059     1   107.5800459 329.699200
   1059   1057   1061     1   108.7700466 392.459200
   1060   2189   2190     1   117.5500507 404.174400
   1061   2216   2217     1   117.5500507 404.174400
   1066   1069   1070     1   109.5600471 388.275200
   1066   1069   1071     1   109.5600471 388.275200
   1067   1066   1069     1   109.5600471 388.275200
   1067   1066   1072     1   109.8800469 414.216000
   1067   1066   1068     1   108.4600466 328.025600
   1068   1066   1069     1   109.5600471 388.275200
   1068   1066   1072     1   109.8800469 414.216000
   1069   1089   1090     1   117.6800502 383.254400
   1070   1069   1089     1   108.8800464 416.726400
   1070   1069   1071     1   108.4600466 328.025600
   1071   1069   1089     1   108.8800464 416.726400
   1072   1073   1074     1   109.8800469 414.216000
   1072   1073   1075     1   109.8800469 414.216000
   1072   1076   1077     1   109.8800469 414.216000
   1072   1076   1078     1   109.8800469 414.216000
   1073   1082   1083     1   109.8000471 387.438400
   1073   1082   1084     1   109.8000471 387.438400
   1074   1073   1082     1   109.5600471 388.275200
   1074   1073   1075     1   108.4600466 328.025600
   1075   1073   1082     1   109.5600471 388.275200
   1076   1079   1080     1   109.8000471 387.438400
   1076   1079   1081     1   109.8000471 387.438400
   1077   1076   1079     1   109.5600471 388.275200
   1077   1076   1078     1   108.4600466 328.025600
   1078   1076   1079     1   109.5600471 388.275200
   1080   1079   1085     1   108.7700466 392.459200
   1080   1079   1081     1   107.5800459 329.699200
   1081   1079   1085     1   108.7700466 392.459200
   1083   1082   1086     1   108.7700466 392.459200
   1083   1082   1084     1   107.5800459 329.699200
   1084   1082   1086     1   108.7700466 392.459200
   1085   2243   2244     1   117.5500507 404.174400
   1086   2270   2271     1   117.5500507 404.174400
   1091   1094   1095     1   109.5600471 388.275200
   1091   1094   1096     1   109.5600471 388.275200
   1092   1091   1094     1   109.5600471 388.275200
   1092   1091   1097     1   109.8800469 414.216000
   1092   1091   1093     1   108.4600466 328.025600
   1093   1091   1094     1   109.5600471 388.275200
   1093   1091   1097     1   109.8800469 414.216000
   1094   1114   1115     1   117.6800502 383.254400
   1095   1094   1114     1   108.8800464 416.726400
   1095   1094   1096     1   108.4600466 328.025600
   1096   1094   1114     1   108.8800464 416.726400
   1097   1098   1099     1   109.8800469 414.216000
   1097   1098   1100     1   109.8800469 414.216000
   1097   1101   1102     1   109.8800469 414.216000
   1097   1101   1103     1   109.8800469 414.216000
   1098   1107   1108     1   109.8000471 387.438400
   1098   1107   1109     1   109.8000471 387.438400
   1099   1098   1107     1   109.5600471 388.275200
   1099   1098   1100     1   108.4600466 328.025600
   1100   1098   1107     1   109.5600471 388.275200
   1101   1104   1105     1   109.8000471 387.438400
   1101   1104   1106     1   109.8000471 387.438400
   1102   1101   1104     1   109.5600471 388.275200
   1102   1101   1103     1   108.4600466 328.025600
   1103   1101   1104     1   109.5600471 388.275200
   1105   1104   1110     1   108.7700466 392.459200
   1105   1104   1106     1   107.5800459 329.699200
   1106   1104   1110     1   108.7700466 392.459200
   1108   1107   1111     1   108.7700466 392.459200
   1108   1107   1109     1   107.5800459 329.699200
   1109   1107   1111     1   108.7700466 392.459200
   1110   2297   2298     1   117.5500507 404.174400
   1111   2324   2325     1   117.5500507 404.174400
   1116   1119   1120     1   109.5600471 388.275200
   1116   1119   1121     1   109.5600471 388.275200
   1117   1116   1119     1   109.5600471 388.275200
   1117   1116   1122     1   109.8800469 414.216000
   1117   1116   1118     1   108.4600466 328.025600
   1118   1116   1119     1   109.5600471 388.275200
   1118   1116   1122     1   109.8800469 414.216000
   1119   1139   1140     1   117.6800502 383.254400
   1120   1119   1139     1   108.8800464 416.726400
   1120   1119   1121     1   108.4600466 328.025600
   1121   1119   1139     1   108.8800464 416.726400
   1122   1123   1124     1   109.8800469 414.216000
   1122   1123   1125     1   109.8800469 414.216000
   1122   1126   1127     1   109.8800469 414.216000
   1122   1126   1128     1   109.8800469 414.216000
   1123   1132   1133     1   109.8000471 387.438400
   1123   1132   1134     1   109.8000471 387.438400
   1124   1123   1132     1   109.5600471 388.275200
   1124   1123   1125     1   108.4600466 328.025600
   1125   1123   1132     1   109.5600471 388.275200
   1126   1129   1130     1   109.8000471 387.438400
   1126   1129   1131     1   109.8000471 387.438400
   1127   1126   1129     1   109.5600471 388.275200
   1127   1126   1128     1   108.4600466 328.025600
   1128   1126   1129     1   109.5600471 388.275200
   1130   1129   1135     1   108.7700466 392.459200
   1130   1129   1131     1   107.5800459 329.699200
   1131   1129   1135     1   108.7700466 392.459200
   1133   1132   1136     1   108.7700466 392.459200
   1133   1132   1134     1   107.5800459 329.699200
   1134   1132   1136     1   108.7700466 392.459200
   1135   2351   2352     1   117.5500507 404.174400
   1136   2378   2379     1   117.5500507 404.174400
   1141   1144   1145     1   109.5600471 388.275200
   1141   1144   1146     1   109.5600471 388.275200
   1142   1141   1144     1   109.5600471 388.275200
   1142   1141   1147     1   109.8800469 414.216000
   1142   1141   1143     1   108.4600466 328.025600
   1143   1141   1144     1   109.5600471 388.275200
   1143   1141   1147     1   109.8800469 414.216000
   1144   1164   1165     1   117.6800502 383.254400
   1145   1144   1164     1   108.8800464 416.726400
   1145   1144   1146     1   108.4600466 328.025600
   1146   1144   1164     1   108.8800464 416.726400
   1147   1148   1149     1   109.8800469 414.216000
   1147   1148   1150     1   109.8800469 414.216000
   1147   1151   1152     1   109.8800469 414.216000
   1147   1151   1153     1   109.8800469 414.216000
   1148   1157   1158     1   109.8000471 387.438400
   1148   1157   1159     1   109.8000471 387.438400
   1149   1148   1157     1   109.5600471 388.275200
   1149   1148   1150     1   108.4600466 328.025600
   1150   1148   1157     1   109.5600471 388.275200
   1151   1154   1155     1   109.8000471 387.438400
   1151   1154   1156     1   109.8000471 387.438400
   1152   1151   1154     1   109.5600471 388.275200
   1152   1151   1153     1   108.4600466 328.025600
   1153   1151   1154     1   109.5600471 388.275200
   1155   1154   1160     1   108.7700466 392.459200
   1155   1154   1156     1   107.5800459 329.699200
   1156   1154   1160     1   108.7700466 392.459200
   1158   1157   1161     1   108.7700466 392.459200
   1158   1157   1159     1   107.5800459 329.699200
   1159   1157   1161     1   108.7700466 392.459200
   1160   2405   2406     1   117.5500507 404.174400
   1161   2432   2433     1   117.5500507 404.174400
   1166   1169   1170     1   109.5600471 388.275200
   1166   1169   1171     1   109.5600471 388.275200
   1167   1166   1169     1   109.5600471 388.275200
   1167   1166   1172     1   109.8800469 414.216000
   1167   1166   1168     1   108.4600466 328.025600
   1168   1166   1169     1   109.5600471 388.275200
   1168   1166   1172     1   109.8800469 414.216000
   1169   1189   1190     1   117.6800502 383.254400
   1170   1169   1189     1   108.8800464 416.726400
   1170   1169   1171     1   108.4600466 328.025600
   1171   1169   1189     1   108.8800464 416.726400
   1172   1173   1174     1   109.8800469 414.216000
   1172   1173   1175     1   109.8800469 414.216000
   1172   1176   1177     1   109.8800469 414.216000
   1172   1176   1178     1   109.8800469 414.216000
   1173   1182   1183     1   109.8000471 387.438400
   1173   1182   1184     1   109.8000471 387.438400
   1174   1173   1182     1   109.5600471 388.275200
   1174   1173   1175     1   108.4600466 328.025600
   1175   1173   1182     1   109.5600471 388.275200
   1176   1179   1180     1   109.8000471 387.438400
   1176   1179   1181     1   109.8000471 387.438400
   1177   1176   1179     1   109.5600471 388.275200
   1177   1176   1178     1   108.4600466 328.025600
   1178   1176   1179     1   109.5600471 388.275200
   1180   1179   1185     1   108.7700466 392.459200
   1180   1179   1181     1   107.5800459 329.699200
   1181   1179   1185     1   108.7700466 392.459200
   1183   1182   1186     1   108.7700466 392.459200
   1183   1182   1184     1   107.5800459 329.699200
   1184   1182   1186     1   108.7700466 392.459200
   1185   2459   2460     1   117.5500507 404.174400
   1186   2486   2487     1   117.5500507 404.174400
   1191   1194   1195     1   109.5600471 388.275200
   1191   1194   1196     1   109.5600471 388.275200
   1192   1191   1194     1   109.5600471 388.275200
   1192   1191   1197     1   109.8800469 414.216000
   1192   1191   1193     1   108.4600466 328.025600
   1193   1191   1194     1   109.5600471 388.275200
   1193   1191   1197     1   109.8800469 414.216000
   1194   1214   1215     1   117.6800502 383.254400
   1195   1194   1214     1   108.8800464 416.726400
   1195   1194   1196     1   108.4600466 328.025600
   1196   1194   1214     1   108.8800464 416.726400
   1197   1198   1199     1   109.8800469 414.216000
   1197   1198   1200     1   109.8800469 414.216000
   1197   1201   1202     1   109.8800469 414.216000
   1197   1201   1203     1   109.8800469 414.216000
   1198   1207   1208     1   109.8000471 387.438400
   1198   1207   1209     1   109.8000471 387.438400
   1199   1198   1207     1   109.5600471 388.275200
   1199   1198   1200     1   108.4600466 328.025600
   1200   1198   1207     1   109.5600471 388.275200
   1201   1204   1205     1   109.8000471 387.438400
   1201   1204   1206     1   109.8000471 387.438400
   1202   1201   1204     1   109.5600471 388.275200
   1202   1201   1203     1   108.4600466 328.025600
   1203   1201   1204     1   109.5600471 388.275200
   1205   1204   1210     1   108.7700466 392.459200
   1205   1204   1206     1   107.5800459 329.699200
   1206   1204   1210     1   108.7700466 392.459200
   1208   1207   1211     1   108.7700466 392.459200
   1208   1207   1209     1   107.5800459 329.699200
   1209   1207   1211     1   108.7700466 392.459200
   1210   2513   2514     1   117.5500507 404.174400
   1211   2540   2541     1   117.5500507 404.174400
   1216   1219   1220     1   109.5600471 388.275200
   1216   1219   1221     1   109.5600471 388.275200
   1217   1216   1219     1   109.5600471 388.275200
   1217   1216   1222     1   109.8800469 414.216000
   1217   1216   1218     1   108.4600466 328.025600
   1218   1216   1219     1   109.5600471 388.275200
   1218   1216   1222     1   109.8800469 414.216000
   1219   1239   1240     1   117.6800502 383.254400
   1220   1219   1239     1   108.8800464 416.726400
   1220   1219   1221     1   108.4600466 328.025600
   1221   1219   1239     1   108.8800464 416.726400
   1222   1223   1224     1   109.8800469 414.216000
   1222   1223   1225     1   109.8800469 414.216000
   1222   1226   1227     1   109.8800469 414.216000
   1222   1226   1228     1   109.8800469 414.216000
   1223   1232   1233     1   109.8000471 387.438400
   1223   1232   1234     1   109.8000471 387.438400
   1224   1223   1232     1   109.5600471 388.275200
   1224   1223   1225     1   108.4600466 328.025600
   1225   1223   1232     1   109.5600471 388.275200
   1226   1229   1230     1   109.8000471 387.438400
   1226   1229   1231     1   109.8000471 387.438400
   1227   1226   1229     1   109.5600471 388.275200
   1227   1226   1228     1   108.4600466 328.025600
   1228   1226   1229     1   109.5600471 388.275200
   1230   1229   1235     1   108.7700466 392.459200
   1230   1229   1231     1   107.5800459 329.699200
   1231   1229   1235     1   108.7700466 392.459200
   1233   1232   1236     1   108.7700466 392.459200
   1233   1232   1234     1   107.5800459 329.699200
   1234   1232   1236     1   108.7700466 392.459200
   1235   2567   2568     1   117.5500507 404.174400
   1236   2594   2595     1   117.5500507 404.174400
   1241   1244   1245     1   109.5600471 388.275200
   1241   1244   1246     1   109.5600471 388.275200
   1242   1241   1244     1   109.5600471 388.275200
   1242   1241   1247     1   109.8800469 414.216000
   1242   1241   1243     1   108.4600466 328.025600
   1243   1241   1244     1   109.5600471 388.275200
   1243   1241   1247     1   109.8800469 414.216000
   1244   1264   1265     1   117.6800502 383.254400
   1245   1244   1264     1   108.8800464 416.726400
   1245   1244   1246     1   108.4600466 328.025600
   1246   1244   1264     1   108.8800464 416.726400
   1247   1248   1249     1   109.8800469 414.216000
   1247   1248   1250     1   109.8800469 414.216000
   1247   1251   1252     1   109.8800469 414.216000
   1247   1251   1253     1   109.8800469 414.216000
   1248   1257   1258     1   109.8000471 387.438400
   1248   1257   1259     1   109.8000471 387.438400
   1249   1248   1257     1   109.5600471 388.275200
   1249   1248   1250     1   108.4600466 328.025600
   1250   1248   1257     1   109.5600471 388.275200
   1251   1254   1255     1   109.8000471 387.438400
   1251   1254   1256     1   109.8000471 387.438400
   1252   1251   1254     1   109.5600471 388.275200
   1252   1251   1253     1   108.4600466 328.025600
   1253   1251   1254     1   109.5600471 388.275200
   1255   1254   1260     1   108.7700466 392.459200
   1255   1254   1256     1   107.5800459 329.699200
   1256   1254   1260     1   108.7700466 392.459200
   1258   1257   1261     1   108.7700466 392.459200
   1258   1257   1259     1   107.5800459 329.699200
   1259   1257   1261     1   108.7700466 392.459200
   1260   2621   2622     1   117.5500507 404.174400
   1261   2648   2649     1   117.5500507 404.174400
   1266   1269   1270     1   109.5600471 388.275200
   1266   1269   1271     1   109.5600471 388.275200
   1267   1266   1269     1   109.5600471 388.275200
   1267   1266   1272     1   109.8800469 414.216000
   1267   1266   1268     1   108.4600466 328.025600
   1268   1266   1269     1   109.5600471 388.275200
   1268   1266   1272     1   109.8800469 414.216000
   1269   1289   1290     1   117.6800502 383.254400
   1270   1269   1289     1   108.8800464 416.726400
   1270   1269   1271     1   108.4600466 328.025600
   1271   1269   1289     1   108.8800464 416.726400
   1272   1273   1274     1   109.8800469 414.216000
   1272   1273   1275     1   109.8800469 414.216000
   1272   1276   1277     1   109.8800469 414.216000
   1272   1276   1278     1   109.8800469 414.216000
   1273   1282   1283     1   109.8000471 387.438400
   1273   1282   1284     1   109.8000471 387.438400
   1274   1273   1282     1   109.5600471 388.275200
   1274   1273   1275     1   108.4600466 328.025600
   1275   1273   1282     1   109.5600471 388.275200
   1276   1279   1280     1   109.8000471 387.438400
   1276   1279   1281     1   109.8000471 387.438400
   1277   1276   1279     1   109.5600471 388.275200
   1277   1276   1278     1   108.4600466 328.025600
   1278   1276   1279     1   109.5600471 388.275200
   1280   1279   1285     1   108.7700466 392.459200
   1280   1279   1281     1   107.5800459 329.699200
   1281   1279   1285     1   108.7700466 392.459200
   1283   1282   1286     1   108.7700466 392.459200
   1283   1282   1284     1   107.5800459 329.699200
   1284   1282   1286     1   108.7700466 392.459200
   1285   2675   2676     1   117.5500507 404.174400
   1286   2702   2703     1   117.5500507 404.174400
   1291   1294   1295     1   109.5600471 388.275200
   1291   1294   1296     1   109.5600471 388.275200
   1292   1291   1294     1   109.5600471 388.275200
   1292   1291   1297     1   109.8800469 414.216000
   1292   1291   1293     1   108.4600466 328.025600
   1293   1291   1294     1   109.5600471 388.275200
   1293   1291   1297     1   109.8800469 414.216000
   1294   1314   1315     1   117.6800502 383.254400
   1295   1294   1314     1   108.8800464 416.726400
   1295   1294   1296     1   108.4600466 328.025600
   1296   1294   1314     1   108.8800464 416.726400
   1297   1298   1299     1   109.8800469 414.216000
   1297   1298   1300     1   109.8800469 414.216000
   1297   1301   1302     1   109.8800469 414.216000
   1297   1301   1303     1   109.8800469 414.216000
   1298   1307   1308     1   109.8000471 387.438400
   1298   1307   1309     1   109.8000471 387.438400
   1299   1298   1307     1   109.5600471 388.275200
   1299   1298   1300     1   108.4600466 328.025600
   1300   1298   1307     1   109.5600471 388.275200
   1301   1304   1305     1   109.8000471 387.438400
   1301   1304   1306     1   109.8000471 387.438400
   1302   1301   1304     1   109.5600471 388.275200
   1302   1301   1303     1   108.4600466 328.025600
   1303   1301   1304     1   109.5600471 388.275200
   1305   1304   1310     1   108.7700466 392.459200
   1305   1304   1306     1   107.5800459 329.699200
   1306   1304   1310     1   108.7700466 392.459200
   1308   1307   1311     1   108.7700466 392.459200
   1308   1307   1309     1   107.5800459 329.699200
   1309   1307   1311     1   108.7700466 392.459200
   1310   2729   2730     1   117.5500507 404.174400
   1311   2756   2757     1   117.5500507 404.174400
   1316   1319   1320     1   109.5600471 388.275200
   1316   1319   1321     1   109.5600471 388.275200
   1317   1316   1319     1   109.5600471 388.275200
   1317   1316   1322     1   109.8800469 414.216000
   1317   1316   1318     1   108.4600466 328.025600
   1318   1316   1319     1   109.5600471 388.275200
   1318   1316   1322     1   109.8800469 414.216000
   1319   1339   1340     1   117.6800502 383.254400
   1320   1319   1339     1   108.8800464 416.726400
   1320   1319   1321     1   108.4600466 328.025600
   1321   1319   1339     1   108.8800464 416.726400
   1322   1323   1324     1   109.8800469 414.216000
   1322   1323   1325     1   109.8800469 414.216000
   1322   1326   1327     1   109.8800469 414.216000
   1322   1326   1328     1   109.8800469 414.216000
   1323   1332   1333     1   109.8000471 387.438400
   1323   1332   1334     1   109.8000471 387.438400
   1324   1323   1332     1   109.5600471 388.275200
   1324   1323   1325     1   108.4600466 328.025600
   1325   1323   1332     1   109.5600471 388.275200
   1326   1329   1330     1   109.8000471 387.438400
   1326   1329   1331     1   109.8000471 387.438400
   1327   1326   1329     1   109.5600471 388.275200
   1327   1326   1328     1   108.4600466 328.025600
   1328   1326   1329     1   109.5600471 388.275200
   1330   1329   1335     1   108.7700466 392.459200
   1330   1329   1331     1   107.5800459 329.699200
   1331   1329   1335     1   108.7700466 392.459200
   1333   1332   1336     1   108.7700466 392.459200
   1333   1332   1334     1   107.5800459 329.699200
   1334   1332   1336     1   108.7700466 392.459200
   1335   2783   2784     1   117.5500507 404.174400
   1336   2810   2811     1   117.5500507 404.174400
   1341   1344   1345     1   109.5600471 388.275200
   1341   1344   1346     1   109.5600471 388.275200
   1342   1341   1344     1   109.5600471 388.275200
   1342   1341   1347     1   109.8800469 414.216000
   1342   1341   1343     1   108.4600466 328.025600
   1343   1341   1344     1   109.5600471 388.275200
   1343   1341   1347     1   109.8800469 414.216000
   1344   1364   1365     1   117.6800502 383.254400
   1345   1344   1364     1   108.8800464 416.726400
   1345   1344   1346     1   108.4600466 328.025600
   1346   1344   1364     1   108.8800464 416.726400
   1347   1348   1349     1   109.8800469 414.216000
   1347   1348   1350     1   109.8800469 414.216000
   1347   1351   1352     1   109.8800469 414.216000
   1347   1351   1353     1   109.8800469 414.216000
   1348   1357   1358     1   109.8000471 387.438400
   1348   1357   1359     1   109.8000471 387.438400
   1349   1348   1357     1   109.5600471 388.275200
   1349   1348   1350     1   108.4600466 328.025600
   1350   1348   1357     1   109.5600471 388.275200
   1351   1354   1355     1   109.8000471 387.438400
   1351   1354   1356     1   109.8000471 387.438400
   1352   1351   1354     1   109.5600471 388.275200
   1352   1351   1353     1   108.4600466 328.025600
   1353   1351   1354     1   109.5600471 388.275200
   1355   1354   1360     1   108.7700466 392.459200
   1355   1354   1356     1   107.5800459 329.699200
   1356   1354   1360     1   108.7700466 392.459200
   1358   1357   1361     1   108.7700466 392.459200
   1358   1357   1359     1   107.5800459 329.699200
   1359   1357   1361     1   108.7700466 392.459200
   1360   2837   2838     1   117.5500507 404.174400
   1361   2864   2865     1   117.5500507 404.174400
   1366   1369   1370     1   109.5600471 388.275200
   1366   1369   1371     1   109.5600471 388.275200
   1367   1366   1369     1   109.5600471 388.275200
   1367   1366   1372     1   109.8800469 414.216000
   1367   1366   1368     1   108.4600466 328.025600
   1368   1366   1369     1   109.5600471 388.275200
   1368   1366   1372     1   109.8800469 414.216000
   1369   1389   1390     1   117.6800502 383.254400
   1370   1369   1389     1   108.8800464 416.726400
   1370   1369   1371     1   108.4600466 328.025600
   1371   1369   1389     1   108.8800464 416.726400
   1372   1373   1374     1   109.8800469 414.216000
   1372   1373   1375     1   109.8800469 414.216000
   1372   1376   1377     1   109.8800469 414.216000
   1372   1376   1378     1   109.8800469 414.216000
   1373   1382   1383     1   109.8000471 387.438400
   1373   1382   1384     1   109.8000471 387.438400
   1374   1373   1382     1   109.5600471 388.275200
   1374   1373   1375     1   108.4600466 328.025600
   1375   1373   1382     1   109.5600471 388.275200
   1376   1379   1380     1   109.8000471 387.438400
   1376   1379   1381     1   109.8000471 387.438400
   1377   1376   1379     1   109.5600471 388.275200
   1377   1376   1378     1   108.4600466 328.025600
   1378   1376   1379     1   109.5600471 388.275200
   1380   1379   1385     1   108.7700466 392.459200
   1380   1379   1381     1   107.5800459 329.699200
   1381   1379   1385     1   108.7700466 392.459200
   1383   1382   1386     1   108.7700466 392.459200
   1383   1382   1384     1   107.5800459 329.699200
   1384   1382   1386     1   108.7700466 392.459200
   1385   2891   2892     1   117.5500507 404.174400
   1386   2918   2919     1   117.5500507 404.174400
   1391   1394   1395     1   109.5600471 388.275200
   1391   1394   1396     1   109.5600471 388.275200
   1392   1391   1394     1   109.5600471 388.275200
   1392   1391   1397     1   109.8800469 414.216000
   1392   1391   1393     1   108.4600466 328.025600
   1393   1391   1394     1   109.5600471 388.275200
   1393   1391   1397     1   109.8800469 414.216000
   1394   1414   1415     1   117.6800502 383.254400
   1395   1394   1414     1   108.8800464 416.726400
   1395   1394   1396     1   108.4600466 328.025600
   1396   1394   1414     1   108.8800464 416.726400
   1397   1398   1399     1   109.8800469 414.216000
   1397   1398   1400     1   109.8800469 414.216000
   1397   1401   1402     1   109.8800469 414.216000
   1397   1401   1403     1   109.8800469 414.216000
   1398   1407   1408     1   109.8000471 387.438400
   1398   1407   1409     1   109.8000471 387.438400
   1399   1398   1407     1   109.5600471 388.275200
   1399   1398   1400     1   108.4600466 328.025600
   1400   1398   1407     1   109.5600471 388.275200
   1401   1404   1405     1   109.8000471 387.438400
   1401   1404   1406     1   109.8000471 387.438400
   1402   1401   1404     1   109.5600471 388.275200
   1402   1401   1403     1   108.4600466 328.025600
   1403   1401   1404     1   109.5600471 388.275200
   1405   1404   1410     1   108.7700466 392.459200
   1405   1404   1406     1   107.5800459 329.699200
   1406   1404   1410     1   108.7700466 392.459200
   1408   1407   1411     1   108.7700466 392.459200
   1408   1407   1409     1   107.5800459 329.699200
   1409   1407   1411     1   108.7700466 392.459200
   1410   2945   2946     1   117.5500507 404.174400
   1411   2972   2973     1   117.5500507 404.174400
   1416   1419   1420     1   109.5600471 388.275200
   1416   1419   1421     1   109.5600471 388.275200
   1417   1416   1419     1   109.5600471 388.275200
   1417   1416   1422     1   109.8800469 414.216000
   1417   1416   1418     1   108.4600466 328.025600
   1418   1416   1419     1   109.5600471 388.275200
   1418   1416   1422     1   109.8800469 414.216000
   1419   1439   1440     1   117.6800502 383.254400
   1420   1419   1439     1   108.8800464 416.726400
   1420   1419   1421     1   108.4600466 328.025600
   1421   1419   1439     1   108.8800464 416.726400
   1422   1423   1424     1   109.8800469 414.216000
   1422   1423   1425     1   109.8800469 414.216000
   1422   1426   1427     1   109.8800469 414.216000
   1422   1426   1428     1   109.8800469 414.216000
   1423   1432   1433     1   109.8000471 387.438400
   1423   1432   1434     1   109.8000471 387.438400
   1424   1423   1432     1   109.5600471 388.275200
   1424   1423   1425     1   108.4600466 328.025600
   1425   1423   1432     1   109.5600471 388.275200
   1426   1429   1430     1   109.8000471 387.438400
   1426   1429   1431     1   109.8000471 387.438400
   1427   1426   1429     1   109.5600471 388.275200
   1427   1426   1428     1   108.4600466 328.025600
   1428   1426   1429     1   109.5600471 388.275200
   1430   1429   1435     1   108.7700466 392.459200
   1430   1429   1431     1   107.5800459 329.699200
   1431   1429   1435     1   108.7700466 392.459200
   1433   1432   1436     1   108.7700466 392.459200
   1433   1432   1434     1   107.5800459 329.699200
   1434   1432   1436     1   108.7700466 392.459200
   1435   2999   3000     1   117.5500507 404.174400
   1436   3026   3027     1   117.5500507 404.174400
   1441   1444   1445     1   109.5600471 388.275200
   1441   1444   1446     1   109.5600471 388.275200
   1442   1441   1444     1   109.5600471 388.275200
   1442   1441   1447     1   109.8800469 414.216000
   1442   1441   1443     1   108.4600466 328.025600
   1443   1441   1444     1   109.5600471 388.275200
   1443   1441   1447     1   109.8800469 414.216000
   1444   1464   1465     1   117.6800502 383.254400
   1445   1444   1464     1   108.8800464 416.726400
   1445   1444   1446     1   108.4600466 328.025600
   1446   1444   1464     1   108.8800464 416.726400
   1447   1448   1449     1   109.8800469 414.216000
   1447   1448   1450     1   109.8800469 414.216000
   1447   1451   1452     1   109.8800469 414.216000
   1447   1451   1453     1   109.8800469 414.216000
   1448   1457   1458     1   109.8000471 387.438400
   1448   1457   1459     1   109.8000471 387.438400
   1449   1448   1457     1   109.5600471 388.275200
   1449   1448   1450     1   108.4600466 328.025600
   1450   1448   1457     1   109.5600471 388.275200
   1451   1454   1455     1   109.8000471 387.438400
   1451   1454   1456     1   109.8000471 387.438400
   1452   1451   1454     1   109.5600471 388.275200
   1452   1451   1453     1   108.4600466 328.025600
   1453   1451   1454     1   109.5600471 388.275200
   1455   1454   1460     1   108.7700466 392.459200
   1455   1454   1456     1   107.5800459 329.699200
   1456   1454   1460     1   108.7700466 392.459200
   1458   1457   1461     1   108.7700466 392.459200
   1458   1457   1459     1   107.5800459 329.699200
   1459   1457   1461     1   108.7700466 392.459200
   1460   3053   3054     1   117.5500507 404.174400
   1461   3080   3081     1   117.5500507 404.174400
   1466   1469   1470     1   109.5600471 388.275200
   1466   1469   1471     1   109.5600471 388.275200
   1467   1466   1469     1   109.5600471 388.275200
   1467   1466   1472     1   109.8800469 414.216000
   1467   1466   1468     1   108.4600466 328.025600
   1468   1466   1469     1   109.5600471 388.275200
   1468   1466   1472     1   109.8800469 414.216000
   1469   1489   1490     1   117.6800502 383.254400
   1470   1469   1489     1   108.8800464 416.726400
   1470   1469   1471     1   108.4600466 328.025600
   1471   1469   1489     1   108.8800464 416.726400
   1472   1473   1474     1   109.8800469 414.216000
   1472   1473   1475     1   109.8800469 414.216000
   1472   1476   1477     1   109.8800469 414.216000
   1472   1476   1478     1   109.8800469 414.216000
   1473   1482   1483     1   109.8000471 387.438400
   1473   1482   1484     1   109.8000471 387.438400
   1474   1473   1482     1   109.5600471 388.275200
   1474   1473   1475     1   108.4600466 328.025600
   1475   1473   1482     1   109.5600471 388.275200
   1476   1479   1480     1   109.8000471 387.438400
   1476   1479   1481     1   109.8000471 387.438400
   1477   1476   1479     1   109.5600471 388.275200
   1477   1476   1478     1   108.4600466 328.025600
   1478   1476   1479     1   109.5600471 388.275200
   1480   1479   1485     1   108.7700466 392.459200
   1480   1479   1481     1   107.5800459 329.699200
   1481   1479   1485     1   108.7700466 392.459200
   1483   1482   1486     1   108.7700466 392.459200
   1483   1482   1484     1   107.5800459 329.699200
   1484   1482   1486     1   108.7700466 392.459200
   1485   3107   3108     1   117.5500507 404.174400
   1486   3134   3135     1   117.5500507 404.174400
   1491   1494   1495     1   109.5600471 388.275200
   1491   1494   1496     1   109.5600471 388.275200
   1492   1491   1494     1   109.5600471 388.275200
   1492   1491   1497     1   109.8800469 414.216000
   1492   1491   1493     1   108.4600466 328.025600
   1493   1491   1494     1   109.5600471 388.275200
   1493   1491   1497     1   109.8800469 414.216000
   1494   1514   1515     1   117.6800502 383.254400
   1495   1494   1514     1   108.8800464 416.726400
   1495   1494   1496     1   108.4600466 328.025600
   1496   1494   1514     1   108.8800464 416.726400
   1497   1498   1499     1   109.8800469 414.216000
   1497   1498   1500     1   109.8800469 414.216000
   1497   1501   1502     1   109.8800469 414.216000
   1497   1501   1503     1   109.8800469 414.216000
   1498   1507   1508     1   109.8000471 387.438400
   1498   1507   1509     1   109.8000471 387.438400
   1499   1498   1507     1   109.5600471 388.275200
   1499   1498   1500     1   108.4600466 328.025600
   1500   1498   1507     1   109.5600471 388.275200
   1501   1504   1505     1   109.8000471 387.438400
   1501   1504   1506     1   109.8000471 387.438400
   1502   1501   1504     1   109.5600471 388.275200
   1502   1501   1503     1   108.4600466 328.025600
   1503   1501   1504     1   109.5600471 388.275200
   1505   1504   1510     1   108.7700466 392.459200
   1505   1504   1506     1   107.5800459 329.699200
   1506   1504   1510     1   108.7700466 392.459200
   1508   1507   1511     1   108.7700466 392.459200
   1508   1507   1509     1   107.5800459 329.699200
   1509   1507   1511     1   108.7700466 392.459200
   1510   3161   3162     1   117.5500507 404.174400
   1511   3188   3189     1   117.5500507 404.174400
   1516   1519   1520     1   109.5600471 388.275200
   1516   1519   1521     1   109.5600471 388.275200
   1517   1516   1519     1   109.5600471 388.275200
   1517   1516   1522     1   109.8800469 414.216000
   1517   1516   1518     1   108.4600466 328.025600
   1518   1516   1519     1   109.5600471 388.275200
   1518   1516   1522     1   109.8800469 414.216000
   1519   1539   1540     1   117.6800502 383.254400
   1520   1519   1539     1   108.8800464 416.726400
   1520   1519   1521     1   108.4600466 328.025600
   1521   1519   1539     1   108.8800464 416.726400
   1522   1523   1524     1   109.8800469 414.216000
   1522   1523   1525     1   109.8800469 414.216000
   1522   1526   1527     1   109.8800469 414.216000
   1522   1526   1528     1   109.8800469 414.216000
   1523   1532   1533     1   109.8000471 387.438400
   1523   1532   1534     1   109.8000471 387.438400
   1524   1523   1532     1   109.5600471 388.275200
   1524   1523   1525     1   108.4600466 328.025600
   1525   1523   1532     1   109.5600471 388.275200
   1526   1529   1530     1   109.8000471 387.438400
   1526   1529   1531     1   109.8000471 387.438400
   1527   1526   1529     1   109.5600471 388.275200
   1527   1526   1528     1   108.4600466 328.025600
   1528   1526   1529     1   109.5600471 388.275200
   1530   1529   1535     1   108.7700466 392.459200
   1530   1529   1531     1   107.5800459 329.699200
   1531   1529   1535     1   108.7700466 392.459200
   1533   1532   1536     1   108.7700466 392.459200
   1533   1532   1534     1   107.5800459 329.699200
   1534   1532   1536     1   108.7700466 392.459200
   1535   3215   3216     1   117.5500507 404.174400
   1536   3242   3243     1   117.5500507 404.174400
   1541   1543   1544     1   108.8800464 416.726400
   1541   1543   1546     1   108.8800464 416.726400
   1542   1541   1543     1   117.6800502 383.254400
   1543   1545   1547     1   109.5600471 388.275200
   1543   1545   1548     1   109.5600471 388.275200
   1544   1543   1545     1   109.5600471 388.275200
   1544   1543   1546     1   108.4600466 328.025600
   1545   1543   1546     1   109.5600471 388.275200
   1547   1545   1549     1   109.8800469 414.216000
   1547   1545   1548     1   108.4600466 328.025600
   1548   1545   1549     1   109.8800469 414.216000
   1549   1550   1560     1   109.8800469 414.216000
   1549   1550   1561     1   109.8800469 414.216000
   1549   1551   1552     1   109.8800469 414.216000
   1549   1551   1554     1   109.8800469 414.216000
   1550   1562   1563     1   109.8000471 387.438400
   1550   1562   1564     1   109.8000471 387.438400
   1551   1553   1555     1   109.8000471 387.438400
   1551   1553   1556     1   109.8000471 387.438400
   1552   1551   1553     1   109.5600471 388.275200
   1552   1551   1554     1   108.4600466 328.025600
   1553   1551   1554     1   109.5600471 388.275200
   1555   1553   1557     1   108.7700466 392.459200
   1555   1553   1556     1   107.5800459 329.699200
   1556   1553   1557     1   108.7700466 392.459200
   1560   1550   1562     1   109.5600471 388.275200
   1560   1550   1561     1   108.4600466 328.025600
   1561   1550   1562     1   109.5600471 388.275200
   1563   1562   1565     1   108.7700466 392.459200
   1563   1562   1564     1   107.5800459 329.699200
   1564   1562   1565     1   108.7700466 392.459200
   1568   1570   1571     1   108.8800464 416.726400
   1568   1570   1573     1   108.8800464 416.726400
   1569   1568   1570     1   117.6800502 383.254400
   1570   1572   1574     1   109.5600471 388.275200
   1570   1572   1575     1   109.5600471 388.275200
   1571   1570   1572     1   109.5600471 388.275200
   1571   1570   1573     1   108.4600466 328.025600
   1572   1570   1573     1   109.5600471 388.275200
   1574   1572   1576     1   109.8800469 414.216000
   1574   1572   1575     1   108.4600466 328.025600
   1575   1572   1576     1   109.8800469 414.216000
   1576   1577   1587     1   109.8800469 414.216000
   1576   1577   1588     1   109.8800469 414.216000
   1576   1578   1579     1   109.8800469 414.216000
   1576   1578   1581     1   109.8800469 414.216000
   1577   1589   1590     1   109.8000471 387.438400
   1577   1589   1591     1   109.8000471 387.438400
   1578   1580   1582     1   109.8000471 387.438400
   1578   1580   1583     1   109.8000471 387.438400
   1579   1578   1580     1   109.5600471 388.275200
   1579   1578   1581     1   108.4600466 328.025600
   1580   1578   1581     1   109.5600471 388.275200
   1582   1580   1584     1   108.7700466 392.459200
   1582   1580   1583     1   107.5800459 329.699200
   1583   1580   1584     1   108.7700466 392.459200
   1587   1577   1589     1   109.5600471 388.275200
   1587   1577   1588     1   108.4600466 328.025600
   1588   1577   1589     1   109.5600471 388.275200
   1590   1589   1592     1   108.7700466 392.459200
   1590   1589   1591     1   107.5800459 329.699200
   1591   1589   1592     1   108.7700466 392.459200
   1595   1597   1598     1   108.8800464 416.726400
   1595   1597   1600     1   108.8800464 416.726400
   1596   1595   1597     1   117.6800502 383.254400
   1597   1599   1601     1   109.5600471 388.275200
   1597   1599   1602     1   109.5600471 388.275200
   1598   1597   1599     1   109.5600471 388.275200
   1598   1597   1600     1   108.4600466 328.025600
   1599   1597   1600     1   109.5600471 388.275200
   1601   1599   1603     1   109.8800469 414.216000
   1601   1599   1602     1   108.4600466 328.025600
   1602   1599   1603     1   109.8800469 414.216000
   1603   1604   1614     1   109.8800469 414.216000
   1603   1604   1615     1   109.8800469 414.216000
   1603   1605   1606     1   109.8800469 414.216000
   1603   1605   1608     1   109.8800469 414.216000
   1604   1616   1617     1   109.8000471 387.438400
   1604   1616   1618     1   109.8000471 387.438400
   1605   1607   1609     1   109.8000471 387.438400
   1605   1607   1610     1   109.8000471 387.438400
   1606   1605   1607     1   109.5600471 388.275200
   1606   1605   1608     1   108.4600466 328.025600
   1607   1605   1608     1   109.5600471 388.275200
   1609   1607   1611     1   108.7700466 392.459200
   1609   1607   1610     1   107.5800459 329.699200
   1610   1607   1611     1   108.7700466 392.459200
   1614   1604   1616     1   109.5600471 388.275200
   1614   1604   1615     1   108.4600466 328.025600
   1615   1604   1616     1   109.5600471 388.275200
   1617   1616   1619     1   108.7700466 392.459200
   1617   1616   1618     1   107.5800459 329.699200
   1618   1616   1619     1   108.7700466 392.459200
   1622   1624   1625     1   108.8800464 416.726400
   1622   1624   1627     1   108.8800464 416.726400
   1623   1622   1624     1   117.6800502 383.254400
   1624   1626   1628     1   109.5600471 388.275200
   1624   1626   1629     1   109.5600471 388.275200
   1625   1624   1626     1   109.5600471 388.275200
   1625   1624   1627     1   108.4600466 328.025600
   1626   1624   1627     1   109.5600471 388.275200
   1628   1626   1630     1   109.8800469 414.216000
   1628   1626   1629     1   108.4600466 328.025600
   1629   1626   1630     1   109.8800469 414.216000
   1630   1631   1641     1   109.8800469 414.216000
   1630   1631   1642     1   109.8800469 414.216000
   1630   1632   1633     1   109.8800469 414.216000
   1630   1632   1635     1   109.8800469 414.216000
   1631   1643   1644     1   109.8000471 387.438400
   1631   1643   1645     1   109.8000471 387.438400
   1632   1634   1636     1   109.8000471 387.438400
   1632   1634   1637     1   109.8000471 387.438400
   1633   1632   1634     1   109.5600471 388.275200
   1633   1632   1635     1   108.4600466 328.025600
   1634   1632   1635     1   109.5600471 388.275200
   1636   1634   1638     1   108.7700466 392.459200
   1636   1634   1637     1   107.5800459 329.699200
   1637   1634   1638     1   108.7700466 392.459200
   1641   1631   1643     1   109.5600471 388.275200
   1641   1631   1642     1   108.4600466 328.025600
   1642   1631   1643     1   109.5600471 388.275200
   1644   1643   1646     1   108.7700466 392.459200
   1644   1643   1645     1   107.5800459 329.699200
   1645   1643   1646     1   108.7700466 392.459200
   1649   1651   1652     1   108.8800464 416.726400
   1649   1651   1654     1   108.8800464 416.726400
   1650   1649   1651     1   117.6800502 383.254400
   1651   1653   1655     1   109.5600471 388.275200
   1651   1653   1656     1   109.5600471 388.275200
   1652   1651   1653     1   109.5600471 388.275200
   1652   1651   1654     1   108.4600466 328.025600
   1653   1651   1654     1   109.5600471 388.275200
   1655   1653   1657     1   109.8800469 414.216000
   1655   1653   1656     1   108.4600466 328.025600
   1656   1653   1657     1   109.8800469 414.216000
   1657   1658   1668     1   109.8800469 414.216000
   1657   1658   1669     1   109.8800469 414.216000
   1657   1659   1660     1   109.8800469 414.216000
   1657   1659   1662     1   109.8800469 414.216000
   1658   1670   1671     1   109.8000471 387.438400
   1658   1670   1672     1   109.8000471 387.438400
   1659   1661   1663     1   109.8000471 387.438400
   1659   1661   1664     1   109.8000471 387.438400
   1660   1659   1661     1   109.5600471 388.275200
   1660   1659   1662     1   108.4600466 328.025600
   1661   1659   1662     1   109.5600471 388.275200
   1663   1661   1665     1   108.7700466 392.459200
   1663   1661   1664     1   107.5800459 329.699200
   1664   1661   1665     1   108.7700466 392.459200
   1668   1658   1670     1   109.5600471 388.275200
   1668   1658   1669     1   108.4600466 328.025600
   1669   1658   1670     1   109.5600471 388.275200
   1671   1670   1673     1   108.7700466 392.459200
   1671   1670   1672     1   107.5800459 329.699200
   1672   1670   1673     1   108.7700466 392.459200
   1676   1678   1679     1   108.8800464 416.726400
   1676   1678   1681     1   108.8800464 416.726400
   1677   1676   1678     1   117.6800502 383.254400
   1678   1680   1682     1   109.5600471 388.275200
   1678   1680   1683     1   109.5600471 388.275200
   1679   1678   1680     1   109.5600471 388.275200
   1679   1678   1681     1   108.4600466 328.025600
   1680   1678   1681     1   109.5600471 388.275200
   1682   1680   1684     1   109.8800469 414.216000
   1682   1680   1683     1   108.4600466 328.025600
   1683   1680   1684     1   109.8800469 414.216000
   1684   1685   1695     1   109.8800469 414.216000
   1684   1685   1696     1   109.8800469 414.216000
   1684   1686   1687     1   109.8800469 414.216000
   1684   1686   1689     1   109.8800469 414.216000
   1685   1697   1698     1   109.8000471 387.438400
   1685   1697   1699     1   109.8000471 387.438400
   1686   1688   1690     1   109.8000471 387.438400
   1686   1688   1691     1   109.8000471 387.438400
   1687   1686   1688     1   109.5600471 388.275200
   1687   1686   1689     1   108.4600466 328.025600
   1688   1686   1689     1   109.5600471 388.275200
   1690   1688   1692     1   108.7700466 392.459200
   1690   1688   1691     1   107.5800459 329.699200
   1691   1688   1692     1   108.7700466 392.459200
   1695   1685   1697     1   109.5600471 388.275200
   1695   1685   1696     1   108.4600466 328.025600
   1696   1685   1697     1   109.5600471 388.275200
   1698   1697   1700     1   108.7700466 392.459200
   1698   1697   1699     1   107.5800459 329.699200
   1699   1697   1700     1   108.7700466 392.459200
   1703   1705   1706     1   108.8800464 416.726400
   1703   1705   1708     1   108.8800464 416.726400
   1704   1703   1705     1   117.6800502 383.254400
   1705   1707   1709     1   109.5600471 388.275200
   1705   1707   1710     1   109.5600471 388.275200
   1706   1705   1707     1   109.5600471 388.275200
   1706   1705   1708     1   108.4600466 328.025600
   1707   1705   1708     1   109.5600471 388.275200
   1709   1707   1711     1   109.8800469 414.216000
   1709   1707   1710     1   108.4600466 328.025600
   1710   1707   1711     1   109.8800469 414.216000
   1711   1712   1722     1   109.8800469 414.216000
   1711   1712   1723     1   109.8800469 414.216000
   1711   1713   1714     1   109.8800469 414.216000
   1711   1713   1716     1   109.8800469 414.216000
   1712   1724   1725     1   109.8000471 387.438400
   1712   1724   1726     1   109.8000471 387.438400
   1713   1715   1717     1   109.8000471 387.438400
   1713   1715   1718     1   109.8000471 387.438400
   1714   1713   1715     1   109.5600471 388.275200
   1714   1713   1716     1   108.4600466 328.025600
   1715   1713   1716     1   109.5600471 388.275200
   1717   1715   1719     1   108.7700466 392.459200
   1717   1715   1718     1   107.5800459 329.699200
   1718   1715   1719     1   108.7700466 392.459200
   1722   1712   1724     1   109.5600471 388.275200
   1722   1712   1723     1   108.4600466 328.025600
   1723   1712   1724     1   109.5600471 388.275200
   1725   1724   1727     1   108.7700466 392.459200
   1725   1724   1726     1   107.5800459 329.699200
   1726   1724   1727     1   108.7700466 392.459200
   1730   1732   1733     1   108.8800464 416.726400
   1730   1732   1735     1   108.8800464 416.726400
   1731   1730   1732     1   117.6800502 383.254400
   1732   1734   1736     1   109.5600471 388.275200
   1732   1734   1737     1   109.5600471 388.275200
   1733   1732   1734     1   109.5600471 388.275200
   1733   1732   1735     1   108.4600466 328.025600
   1734   1732   1735     1   109.5600471 388.275200
   1736   1734   1738     1   109.8800469 414.216000
   1736   1734   1737     1   108.4600466 328.025600
   1737   1734   1738     1   109.8800469 414.216000
   1738   1739   1749     1   109.8800469 414.216000
   1738   1739   1750     1   109.8800469 414.216000
   1738   1740   1741     1   109.8800469 414.216000
   1738   1740   1743     1   109.8800469 414.216000
   1739   1751   1752     1   109.8000471 387.438400
   1739   1751   1753     1   109.8000471 387.438400
   1740   1742   1744     1   109.8000471 387.438400
   1740   1742   1745     1   109.8000471 387.438400
   1741   1740   1742     1   109.5600471 388.275200
   1741   1740   1743     1   108.4600466 328.025600
   1742   1740   1743     1   109.5600471 388.275200
   1744   1742   1746     1   108.7700466 392.459200
   1744   1742   1745     1   107.5800459 329.699200
   1745   1742   1746     1   108.7700466 392.459200
   1749   1739   1751     1   109.5600471 388.275200
   1749   1739   1750     1   108.4600466 328.025600
   1750   1739   1751     1   109.5600471 388.275200
   1752   1751   1754     1   108.7700466 392.459200
   1752   1751   1753     1   107.5800459 329.699200
   1753   1751   1754     1   108.7700466 392.459200
   1757   1759   1760     1   108.8800464 416.726400
   1757   1759   1762     1   108.8800464 416.726400
   1758   1757   1759     1   117.6800502 383.254400
   1759   1761   1763     1   109.5600471 388.275200
   1759   1761   1764     1   109.5600471 388.275200
   1760   1759   1761     1   109.5600471 388.275200
   1760   1759   1762     1   108.4600466 328.025600
   1761   1759   1762     1   109.5600471 388.275200
   1763   1761   1765     1   109.8800469 414.216000
   1763   1761   1764     1   108.4600466 328.025600
   1764   1761   1765     1   109.8800469 414.216000
   1765   1766   1776     1   109.8800469 414.216000
   1765   1766   1777     1   109.8800469 414.216000
   1765   1767   1768     1   109.8800469 414.216000
   1765   1767   1770     1   109.8800469 414.216000
   1766   1778   1779     1   109.8000471 387.438400
   1766   1778   1780     1   109.8000471 387.438400
   1767   1769   1771     1   109.8000471 387.438400
   1767   1769   1772     1   109.8000471 387.438400
   1768   1767   1769     1   109.5600471 388.275200
   1768   1767   1770     1   108.4600466 328.025600
   1769   1767   1770     1   109.5600471 388.275200
   1771   1769   1773     1   108.7700466 392.459200
   1771   1769   1772     1   107.5800459 329.699200
   1772   1769   1773     1   108.7700466 392.459200
   1776   1766   1778     1   109.5600471 388.275200
   1776   1766   1777     1   108.4600466 328.025600
   1777   1766   1778     1   109.5600471 388.275200
   1779   1778   1781     1   108.7700466 392.459200
   1779   1778   1780     1   107.5800459 329.699200
   1780   1778   1781     1   108.7700466 392.459200
   1784   1786   1787     1   108.8800464 416.726400
   1784   1786   1789     1   108.8800464 416.726400
   1785   1784   1786     1   117.6800502 383.254400
   1786   1788   1790     1   109.5600471 388.275200
   1786   1788   1791     1   109.5600471 388.275200
   1787   1786   1788     1   109.5600471 388.275200
   1787   1786   1789     1   108.4600466 328.025600
   1788   1786   1789     1   109.5600471 388.275200
   1790   1788   1792     1   109.8800469 414.216000
   1790   1788   1791     1   108.4600466 328.025600
   1791   1788   1792     1   109.8800469 414.216000
   1792   1793   1803     1   109.8800469 414.216000
   1792   1793   1804     1   109.8800469 414.216000
   1792   1794   1795     1   109.8800469 414.216000
   1792   1794   1797     1   109.8800469 414.216000
   1793   1805   1806     1   109.8000471 387.438400
   1793   1805   1807     1   109.8000471 387.438400
   1794   1796   1798     1   109.8000471 387.438400
   1794   1796   1799     1   109.8000471 387.438400
   1795   1794   1796     1   109.5600471 388.275200
   1795   1794   1797     1   108.4600466 328.025600
   1796   1794   1797     1   109.5600471 388.275200
   1798   1796   1800     1   108.7700466 392.459200
   1798   1796   1799     1   107.5800459 329.699200
   1799   1796   1800     1   108.7700466 392.459200
   1803   1793   1805     1   109.5600471 388.275200
   1803   1793   1804     1   108.4600466 328.025600
   1804   1793   1805     1   109.5600471 388.275200
   1806   1805   1808     1   108.7700466 392.459200
   1806   1805   1807     1   107.5800459 329.699200
   1807   1805   1808     1   108.7700466 392.459200
   1811   1813   1814     1   108.8800464 416.726400
   1811   1813   1816     1   108.8800464 416.726400
   1812   1811   1813     1   117.6800502 383.254400
   1813   1815   1817     1   109.5600471 388.275200
   1813   1815   1818     1   109.5600471 388.275200
   1814   1813   1815     1   109.5600471 388.275200
   1814   1813   1816     1   108.4600466 328.025600
   1815   1813   1816     1   109.5600471 388.275200
   1817   1815   1819     1   109.8800469 414.216000
   1817   1815   1818     1   108.4600466 328.025600
   1818   1815   1819     1   109.8800469 414.216000
   1819   1820   1830     1   109.8800469 414.216000
   1819   1820   1831     1   109.8800469 414.216000
   1819   1821   1822     1   109.8800469 414.216000
   1819   1821   1824     1   109.8800469 414.216000
   1820   1832   1833     1   109.8000471 387.438400
   1820   1832   1834     1   109.8000471 387.438400
   1821   1823   1825     1   109.8000471 387.438400
   1821   1823   1826     1   109.8000471 387.438400
   1822   1821   1823     1   109.5600471 388.275200
   1822   1821   1824     1   108.4600466 328.025600
   1823   1821   1824     1   109.5600471 388.275200
   1825   1823   1827     1   108.7700466 392.459200
   1825   1823   1826     1   107.5800459 329.699200
   1826   1823   1827     1   108.7700466 392.459200
   1830   1820   1832     1   109.5600471 388.275200
   1830   1820   1831     1   108.4600466 328.025600
   1831   1820   1832     1   109.5600471 388.275200
   1833   1832   1835     1   108.7700466 392.459200
   1833   1832   1834     1   107.5800459 329.699200
   1834   1832   1835     1   108.7700466 392.459200
   1838   1840   1841     1   108.8800464 416.726400
   1838   1840   1843     1   108.8800464 416.726400
   1839   1838   1840     1   117.6800502 383.254400
   1840   1842   1844     1   109.5600471 388.275200
   1840   1842   1845     1   109.5600471 388.275200
   1841   1840   1842     1   109.5600471 388.275200
   1841   1840   1843     1   108.4600466 328.025600
   1842   1840   1843     1   109.5600471 388.275200
   1844   1842   1846     1   109.8800469 414.216000
   1844   1842   1845     1   108.4600466 328.025600
   1845   1842   1846     1   109.8800469 414.216000
   1846   1847   1857     1   109.8800469 414.216000
   1846   1847   1858     1   109.8800469 414.216000
   1846   1848   1849     1   109.8800469 414.216000
   1846   1848   1851     1   109.8800469 414.216000
   1847   1859   1860     1   109.8000471 387.438400
   1847   1859   1861     1   109.8000471 387.438400
   1848   1850   1852     1   109.8000471 387.438400
   1848   1850   1853     1   109.8000471 387.438400
   1849   1848   1850     1   109.5600471 388.275200
   1849   1848   1851     1   108.4600466 328.025600
   1850   1848   1851     1   109.5600471 388.275200
   1852   1850   1854     1   108.7700466 392.459200
   1852   1850   1853     1   107.5800459 329.699200
   1853   1850   1854     1   108.7700466 392.459200
   1857   1847   1859     1   109.5600471 388.275200
   1857   1847   1858     1   108.4600466 328.025600
   1858   1847   1859     1   109.5600471 388.275200
   1860   1859   1862     1   108.7700466 392.459200
   1860   1859   1861     1   107.5800459 329.699200
   1861   1859   1862     1   108.7700466 392.459200
   1865   1867   1868     1   108.8800464 416.726400
   1865   1867   1870     1   108.8800464 416.726400
   1866   1865   1867     1   117.6800502 383.254400
   1867   1869   1871     1   109.5600471 388.275200
   1867   1869   1872     1   109.5600471 388.275200
   1868   1867   1869     1   109.5600471 388.275200
   1868   1867   1870     1   108.4600466 328.025600
   1869   1867   1870     1   109.5600471 388.275200
   1871   1869   1873     1   109.8800469 414.216000
   1871   1869   1872     1   108.4600466 328.025600
   1872   1869   1873     1   109.8800469 414.216000
   1873   1874   1884     1   109.8800469 414.216000
   1873   1874   1885     1   109.8800469 414.216000
   1873   1875   1876     1   109.8800469 414.216000
   1873   1875   1878     1   109.8800469 414.216000
   1874   1886   1887     1   109.8000471 387.438400
   1874   1886   1888     1   109.8000471 387.438400
   1875   1877   1879     1   109.8000471 387.438400
   1875   1877   1880     1   109.8000471 387.438400
   1876   1875   1877     1   109.5600471 388.275200
   1876   1875   1878     1   108.4600466 328.025600
   1877   1875   1878     1   109.5600471 388.275200
   1879   1877   1881     1   108.7700466 392.459200
   1879   1877   1880     1   107.5800459 329.699200
   1880   1877   1881     1   108.7700466 392.459200
   1884   1874   1886     1   109.5600471 388.275200
   1884   1874   1885     1   108.4600466 328.025600
   1885   1874   1886     1   109.5600471 388.275200
   1887   1886   1889     1   108.7700466 392.459200
   1887   1886   1888     1   107.5800459 329.699200
   1888   1886   1889     1   108.7700466 392.459200
   1892   1894   1895     1   108.8800464 416.726400
   1892   1894   1897     1   108.8800464 416.726400
   1893   1892   1894     1   117.6800502 383.254400
   1894   1896   1898     1   109.5600471 388.275200
   1894   1896   1899     1   109.5600471 388.275200
   1895   1894   1896     1   109.5600471 388.275200
   1895   1894   1897     1   108.4600466 328.025600
   1896   1894   1897     1   109.5600471 388.275200
   1898   1896   1900     1   109.8800469 414.216000
   1898   1896   1899     1   108.4600466 328.025600
   1899   1896   1900     1   109.8800469 414.216000
   1900   1901   1911     1   109.8800469 414.216000
   1900   1901   1912     1   109.8800469 414.216000
   1900   1902   1903     1   109.8800469 414.216000
   1900   1902   1905     1   109.8800469 414.216000
   1901   1913   1914     1   109.8000471 387.438400
   1901   1913   1915     1   109.8000471 387.438400
   1902   1904   1906     1   109.8000471 387.438400
   1902   1904   1907     1   109.8000471 387.438400
   1903   1902   1904     1   109.5600471 388.275200
   1903   1902   1905     1   108.4600466 328.025600
   1904   1902   1905     1   109.5600471 388.275200
   1906   1904   1908     1   108.7700466 392.459200
   1906   1904   1907     1   107.5800459 329.699200
   1907   1904   1908     1   108.7700466 392.459200
   1911   1901   1913     1   109.5600471 388.275200
   1911   1901   1912     1   108.4600466 328.025600
   1912   1901   1913     1   109.5600471 388.275200
   1914   1913   1916     1   108.7700466 392.459200
   1914   1913   1915     1   107.5800459 329.699200
   1915   1913   1916     1   108.7700466 392.459200
   1919   1921   1922     1   108.8800464 416.726400
   1919   1921   1924     1   108.8800464 416.726400
   1920   1919   1921     1   117.6800502 383.254400
   1921   1923   1925     1   109.5600471 388.275200
   1921   1923   1926     1   109.5600471 388.275200
   1922   1921   1923     1   109.5600471 388.275200
   1922   1921   1924     1   108.4600466 328.025600
   1923   1921   1924     1   109.5600471 388.275200
   1925   1923   1927     1   109.8800469 414.216000
   1925   1923   1926     1   108.4600466 328.025600
   1926   1923   1927     1   109.8800469 414.216000
   1927   1928   1938     1   109.8800469 414.216000
   1927   1928   1939     1   109.8800469 414.216000
   1927   1929   1930     1   109.8800469 414.216000
   1927   1929   1932     1   109.8800469 414.216000
   1928   1940   1941     1   109.8000471 387.438400
   1928   1940   1942     1   109.8000471 387.438400
   1929   1931   1933     1   109.8000471 387.438400
   1929   1931   1934     1   109.8000471 387.438400
   1930   1929   1931     1   109.5600471 388.275200
   1930   1929   1932     1   108.4600466 328.025600
   1931   1929   1932     1   109.5600471 388.275200
   1933   1931   1935     1   108.7700466 392.459200
   1933   1931   1934     1   107.5800459 329.699200
   1934   1931   1935     1   108.7700466 392.459200
   1938   1928   1940     1   109.5600471 388.275200
   1938   1928   1939     1   108.4600466 328.025600
   1939   1928   1940     1   109.5600471 388.275200
   1941   1940   1943     1   108.7700466 392.459200
   1941   1940   1942     1   107.5800459 329.699200
   1942   1940   1943     1   108.7700466 392.459200
   1946   1948   1949     1   108.8800464 416.726400
   1946   1948   1951     1   108.8800464 416.726400
   1947   1946   1948     1   117.6800502 383.254400
   1948   1950   1952     1   109.5600471 388.275200
   1948   1950   1953     1   109.5600471 388.275200
   1949   1948   1950     1   109.5600471 388.275200
   1949   1948   1951     1   108.4600466 328.025600
   1950   1948   1951     1   109.5600471 388.275200
   1952   1950   1954     1   109.8800469 414.216000
   1952   1950   1953     1   108.4600466 328.025600
   1953   1950   1954     1   109.8800469 414.216000
   1954   1955   1965     1   109.8800469 414.216000
   1954   1955   1966     1   109.8800469 414.216000
   1954   1956   1957     1   109.8800469 414.216000
   1954   1956   1959     1   109.8800469 414.216000
   1955   1967   1968     1   109.8000471 387.438400
   1955   1967   1969     1   109.8000471 387.438400
   1956   1958   1960     1   109.8000471 387.438400
   1956   1958   1961     1   109.8000471 387.438400
   1957   1956   1958     1   109.5600471 388.275200
   1957   1956   1959     1   108.4600466 328.025600
   1958   1956   1959     1   109.5600471 388.275200
   1960   1958   1962     1   108.7700466 392.459200
   1960   1958   1961     1   107.5800459 329.699200
   1961   1958   1962     1   108.7700466 392.459200
   1965   1955   1967     1   109.5600471 388.275200
   1965   1955   1966     1   108.4600466 328.025600
   1966   1955   1967     1   109.5600471 388.275200
   1968   1967   1970     1   108.7700466 392.459200
   1968   1967   1969     1   107.5800459 329.699200
   1969   1967   1970     1   108.7700466 392.459200
   1973   1975   1976     1   108.8800464 416.726400
   1973   1975   1978     1   108.8800464 416.726400
   1974   1973   1975     1   117.6800502 383.254400
   1975   1977   1979     1   109.5600471 388.275200
   1975   1977   1980     1   109.5600471 388.275200
   1976   1975   1977     1   109.5600471 388.275200
   1976   1975   1978     1   108.4600466 328.025600
   1977   1975   1978     1   109.5600471 388.275200
   1979   1977   1981     1   109.8800469 414.216000
   1979   1977   1980     1   108.4600466 328.025600
   1980   1977   1981     1   109.8800469 414.216000
   1981   1982   1992     1   109.8800469 414.216000
   1981   1982   1993     1   109.8800469 414.216000
   1981   1983   1984     1   109.8800469 414.216000
   1981   1983   1986     1   109.8800469 414.216000
   1982   1994   1995     1   109.8000471 387.438400
   1982   1994   1996     1   109.8000471 387.438400
   1983   1985   1987     1   109.8000471 387.438400
   1983   1985   1988     1   109.8000471 387.438400
   1984   1983   1985     1   109.5600471 388.275200
   1984   1983   1986     1   108.4600466 328.025600
   1985   1983   1986     1   109.5600471 388.275200
   1987   1985   1989     1   108.7700466 392.459200
   1987   1985   1988     1   107.5800459 329.699200
   1988   1985   1989     1   108.7700466 392.459200
   1992   1982   1994     1   109.5600471 388.275200
   1992   1982   1993     1   108.4600466 328.025600
   1993   1982   1994     1   109.5600471 388.275200
   1995   1994   1997     1   108.7700466 392.459200
   1995   1994   1996     1   107.5800459 329.699200
   1996   1994   1997     1   108.7700466 392.459200
   2000   2002   2003     1   108.8800464 416.726400
   2000   2002   2005     1   108.8800464 416.726400
   2001   2000   2002     1   117.6800502 383.254400
   2002   2004   2006     1   109.5600471 388.275200
   2002   2004   2007     1   109.5600471 388.275200
   2003   2002   2004     1   109.5600471 388.275200
   2003   2002   2005     1   108.4600466 328.025600
   2004   2002   2005     1   109.5600471 388.275200
   2006   2004   2008     1   109.8800469 414.216000
   2006   2004   2007     1   108.4600466 328.025600
   2007   2004   2008     1   109.8800469 414.216000
   2008   2009   2019     1   109.8800469 414.216000
   2008   2009   2020     1   109.8800469 414.216000
   2008   2010   2011     1   109.8800469 414.216000
   2008   2010   2013     1   109.8800469 414.216000
   2009   2021   2022     1   109.8000471 387.438400
   2009   2021   2023     1   109.8000471 387.438400
   2010   2012   2014     1   109.8000471 387.438400
   2010   2012   2015     1   109.8000471 387.438400
   2011   2010   2012     1   109.5600471 388.275200
   2011   2010   2013     1   108.4600466 328.025600
   2012   2010   2013     1   109.5600471 388.275200
   2014   2012   2016     1   108.7700466 392.459200
   2014   2012   2015     1   107.5800459 329.699200
   2015   2012   2016     1   108.7700466 392.459200
   2019   2009   2021     1   109.5600471 388.275200
   2019   2009   2020     1   108.4600466 328.025600
   2020   2009   2021     1   109.5600471 388.275200
   2022   2021   2024     1   108.7700466 392.459200
   2022   2021   2023     1   107.5800459 329.699200
   2023   2021   2024     1   108.7700466 392.459200
   2027   2029   2030     1   108.8800464 416.726400
   2027   2029   2032     1   108.8800464 416.726400
   2028   2027   2029     1   117.6800502 383.254400
   2029   2031   2033     1   109.5600471 388.275200
   2029   2031   2034     1   109.5600471 388.275200
   2030   2029   2031     1   109.5600471 388.275200
   2030   2029   2032     1   108.4600466 328.025600
   2031   2029   2032     1   109.5600471 388.275200
   2033   2031   2035     1   109.8800469 414.216000
   2033   2031   2034     1   108.4600466 328.025600
   2034   2031   2035     1   109.8800469 414.216000
   2035   2036   2046     1   109.8800469 414.216000
   2035   2036   2047     1   109.8800469 414.216000
   2035   2037   2038     1   109.8800469 414.216000
   2035   2037   2040     1   109.8800469 414.216000
   2036   2048   2049     1   109.8000471 387.438400
   2036   2048   2050     1   109.8000471 387.438400
   2037   2039   2041     1   109.8000471 387.438400
   2037   2039   2042     1   109.8000471 387.438400
   2038   2037   2039     1   109.5600471 388.275200
   2038   2037   2040     1   108.4600466 328.025600
   2039   2037   2040     1   109.5600471 388.275200
   2041   2039   2043     1   108.7700466 392.459200
   2041   2039   2042     1   107.5800459 329.699200
   2042   2039   2043     1   108.7700466 392.459200
   2046   2036   2048     1   109.5600471 388.275200
   2046   2036   2047     1   108.4600466 328.025600
   2047   2036   2048     1   109.5600471 388.275200
   2049   2048   2051     1   108.7700466 392.459200
   2049   2048   2050     1   107.5800459 329.699200
   2050   2048   2051     1   108.7700466 392.459200
   2054   2056   2057     1   108.8800464 416.726400
   2054   2056   2059     1   108.8800464 416.726400
   2055   2054   2056     1   117.6800502 383.254400
   2056   2058   2060     1   109.5600471 388.275200
   2056   2058   2061     1   109.5600471 388.275200
   2057   2056   2058     1   109.5600471 388.275200
   2057   2056   2059     1   108.4600466 328.025600
   2058   2056   2059     1   109.5600471 388.275200
   2060   2058   2062     1   109.8800469 414.216000
   2060   2058   2061     1   108.4600466 328.025600
   2061   2058   2062     1   109.8800469 414.216000
   2062   2063   2073     1   109.8800469 414.216000
   2062   2063   2074     1   109.8800469 414.216000
   2062   2064   2065     1   109.8800469 414.216000
   2062   2064   2067     1   109.8800469 414.216000
   2063   2075   2076     1   109.8000471 387.438400
   2063   2075   2077     1   109.8000471 387.438400
   2064   2066   2068     1   109.8000471 387.438400
   2064   2066   2069     1   109.8000471 387.438400
   2065   2064   2066     1   109.5600471 388.275200
   2065   2064   2067     1   108.4600466 328.025600
   2066   2064   2067     1   109.5600471 388.275200
   2068   2066   2070     1   108.7700466 392.459200
   2068   2066   2069     1   107.5800459 329.699200
   2069   2066   2070     1   108.7700466 392.459200
   2073   2063   2075     1   109.5600471 388.275200
   2073   2063   2074     1   108.4600466 328.025600
   2074   2063   2075     1   109.5600471 388.275200
   2076   2075   2078     1   108.7700466 392.459200
   2076   2075   2077     1   107.5800459 329.699200
   2077   2075   2078     1   108.7700466 392.459200
   2081   2083   2084     1   108.8800464 416.726400
   2081   2083   2086     1   108.8800464 416.726400
   2082   2081   2083     1   117.6800502 383.254400
   2083   2085   2087     1   109.5600471 388.275200
   2083   2085   2088     1   109.5600471 388.275200
   2084   2083   2085     1   109.5600471 388.275200
   2084   2083   2086     1   108.4600466 328.025600
   2085   2083   2086     1   109.5600471 388.275200
   2087   2085   2089     1   109.8800469 414.216000
   2087   2085   2088     1   108.4600466 328.025600
   2088   2085   2089     1   109.8800469 414.216000
   2089   2090   2100     1   109.8800469 414.216000
   2089   2090   2101     1   109.8800469 414.216000
   2089   2091   2092     1   109.8800469 414.216000
   2089   2091   2094     1   109.8800469 414.216000
   2090   2102   2103     1   109.8000471 387.438400
   2090   2102   2104     1   109.8000471 387.438400
   2091   2093   2095     1   109.8000471 387.438400
   2091   2093   2096     1   109.8000471 387.438400
   2092   2091   2093     1   109.5600471 388.275200
   2092   2091   2094     1   108.4600466 328.025600
   2093   2091   2094     1   109.5600471 388.275200
   2095   2093   2097     1   108.7700466 392.459200
   2095   2093   2096     1   107.5800459 329.699200
   2096   2093   2097     1   108.7700466 392.459200
   2100   2090   2102     1   109.5600471 388.275200
   2100   2090   2101     1   108.4600466 328.025600
   2101   2090   2102     1   109.5600471 388.275200
   2103   2102   2105     1   108.7700466 392.459200
   2103   2102   2104     1   107.5800459 329.699200
   2104   2102   2105     1   108.7700466 392.459200
   2108   2110   2111     1   108.8800464 416.726400
   2108   2110   2113     1   108.8800464 416.726400
   2109   2108   2110     1   117.6800502 383.254400
   2110   2112   2114     1   109.5600471 388.275200
   2110   2112   2115     1   109.5600471 388.275200
   2111   2110   2112     1   109.5600471 388.275200
   2111   2110   2113     1   108.4600466 328.025600
   2112   2110   2113     1   109.5600471 388.275200
   2114   2112   2116     1   109.8800469 414.216000
   2114   2112   2115     1   108.4600466 328.025600
   2115   2112   2116     1   109.8800469 414.216000
   2116   2117   2127     1   109.8800469 414.216000
   2116   2117   2128     1   109.8800469 414.216000
   2116   2118   2119     1   109.8800469 414.216000
   2116   2118   2121     1   109.8800469 414.216000
   2117   2129   2130     1   109.8000471 387.438400
   2117   2129   2131     1   109.8000471 387.438400
   2118   2120   2122     1   109.8000471 387.438400
   2118   2120   2123     1   109.8000471 387.438400
   2119   2118   2120     1   109.5600471 388.275200
   2119   2118   2121     1   108.4600466 328.025600
   2120   2118   2121     1   109.5600471 388.275200
   2122   2120   2124     1   108.7700466 392.459200
   2122   2120   2123     1   107.5800459 329.699200
   2123   2120   2124     1   108.7700466 392.459200
   2127   2117   2129     1   109.5600471 388.275200
   2127   2117   2128     1   108.4600466 328.025600
   2128   2117   2129     1   109.5600471 388.275200
   2130   2129   2132     1   108.7700466 392.459200
   2130   2129   2131     1   107.5800459 329.699200
   2131   2129   2132     1   108.7700466 392.459200
   2135   2137   2138     1   108.8800464 416.726400
   2135   2137   2140     1   108.8800464 416.726400
   2136   2135   2137     1   117.6800502 383.254400
   2137   2139   2141     1   109.5600471 388.275200
   2137   2139   2142     1   109.5600471 388.275200
   2138   2137   2139     1   109.5600471 388.275200
   2138   2137   2140     1   108.4600466 328.025600
   2139   2137   2140     1   109.5600471 388.275200
   2141   2139   2143     1   109.8800469 414.216000
   2141   2139   2142     1   108.4600466 328.025600
   2142   2139   2143     1   109.8800469 414.216000
   2143   2144   2154     1   109.8800469 414.216000
   2143   2144   2155     1   109.8800469 414.216000
   2143   2145   2146     1   109.8800469 414.216000
   2143   2145   2148     1   109.8800469 414.216000
   2144   2156   2157     1   109.8000471 387.438400
   2144   2156   2158     1   109.8000471 387.438400
   2145   2147   2149     1   109.8000471 387.438400
   2145   2147   2150     1   109.8000471 387.438400
   2146   2145   2147     1   109.5600471 388.275200
   2146   2145   2148     1   108.4600466 328.025600
   2147   2145   2148     1   109.5600471 388.275200
   2149   2147   2151     1   108.7700466 392.459200
   2149   2147   2150     1   107.5800459 329.699200
   2150   2147   2151     1   108.7700466 392.459200
   2154   2144   2156     1   109.5600471 388.275200
   2154   2144   2155     1   108.4600466 328.025600
   2155   2144   2156     1   109.5600471 388.275200
   2157   2156   2159     1   108.7700466 392.459200
   2157   2156   2158     1   107.5800459 329.699200
   2158   2156   2159     1   108.7700466 392.459200
   2162   2164   2165     1   108.8800464 416.726400
   2162   2164   2167     1   108.8800464 416.726400
   2163   2162   2164     1   117.6800502 383.254400
   2164   2166   2168     1   109.5600471 388.275200
   2164   2166   2169     1   109.5600471 388.275200
   2165   2164   2166     1   109.5600471 388.275200
   2165   2164   2167     1   108.4600466 328.025600
   2166   2164   2167     1   109.5600471 388.275200
   2168   2166   2170     1   109.8800469 414.216000
   2168   2166   2169     1   108.4600466 328.025600
   2169   2166   2170     1   109.8800469 414.216000
   2170   2171   2181     1   109.8800469 414.216000
   2170   2171   2182     1   109.8800469 414.216000
   2170   2172   2173     1   109.8800469 414.216000
   2170   2172   2175     1   109.8800469 414.216000
   2171   2183   2184     1   109.8000471 387.438400
   2171   2183   2185     1   109.8000471 387.438400
   2172   2174   2176     1   109.8000471 387.438400
   2172   2174   2177     1   109.8000471 387.438400
   2173   2172   2174     1   109.5600471 388.275200
   2173   2172   2175     1   108.4600466 328.025600
   2174   2172   2175     1   109.5600471 388.275200
   2176   2174   2178     1   108.7700466 392.459200
   2176   2174   2177     1   107.5800459 329.699200
   2177   2174   2178     1   108.7700466 392.459200
   2181   2171   2183     1   109.5600471 388.275200
   2181   2171   2182     1   108.4600466 328.025600
   2182   2171   2183     1   109.5600471 388.275200
   2184   2183   2186     1   108.7700466 392.459200
   2184   2183   2185     1   107.5800459 329.699200
   2185   2183   2186     1   108.7700466 392.459200
   2189   2191   2192     1   108.8800464 416.726400
   2189   2191   2194     1   108.8800464 416.726400
   2190   2189   2191     1   117.6800502 383.254400
   2191   2193   2195     1   109.5600471 388.275200
   2191   2193   2196     1   109.5600471 388.275200
   2192   2191   2193     1   109.5600471 388.275200
   2192   2191   2194     1   108.4600466 328.025600
   2193   2191   2194     1   109.5600471 388.275200
   2195   2193   2197     1   109.8800469 414.216000
   2195   2193   2196     1   108.4600466 328.025600
   2196   2193   2197     1   109.8800469 414.216000
   2197   2198   2208     1   109.8800469 414.216000
   2197   2198   2209     1   109.8800469 414.216000
   2197   2199   2200     1   109.8800469 414.216000
   2197   2199   2202     1   109.8800469 414.216000
   2198   2210   2211     1   109.8000471 387.438400
   2198   2210   2212     1   109.8000471 387.438400
   2199   2201   2203     1   109.8000471 387.438400
   2199   2201   2204     1   109.8000471 387.438400
   2200   2199   2201     1   109.5600471 388.275200
   2200   2199   2202     1   108.4600466 328.025600
   2201   2199   2202     1   109.5600471 388.275200
   2203   2201   2205     1   108.7700466 392.459200
   2203   2201   2204     1   107.5800459 329.699200
   2204   2201   2205     1   108.7700466 392.459200
   2208   2198   2210     1   109.5600471 388.275200
   2208   2198   2209     1   108.4600466 328.025600
   2209   2198   2210     1   109.5600471 388.275200
   2211   2210   2213     1   108.7700466 392.459200
   2211   2210   2212     1   107.5800459 329.699200
   2212   2210   2213     1   108.7700466 392.459200
   2216   2218   2219     1   108.8800464 416.726400
   2216   2218   2221     1   108.8800464 416.726400
   2217   2216   2218     1   117.6800502 383.254400
   2218   2220   2222     1   109.5600471 388.275200
   2218   2220   2223     1   109.5600471 388.275200
   2219   2218   2220     1   109.5600471 388.275200
   2219   2218   2221     1   108.4600466 328.025600
   2220   2218   2221     1   109.5600471 388.275200
   2222   2220   2224     1   109.8800469 414.216000
   2222   2220   2223     1   108.4600466 328.025600
   2223   2220   2224     1   109.8800469 414.216000
   2224   2225   2235     1   109.8800469 414.216000
   2224   2225   2236     1   109.8800469 414.216000
   2224   2226   2227     1   109.8800469 414.216000
   2224   2226   2229     1   109.8800469 414.216000
   2225   2237   2238     1   109.8000471 387.438400
   2225   2237   2239     1   109.8000471 387.438400
   2226   2228   2230     1   109.8000471 387.438400
   2226   2228   2231     1   109.8000471 387.438400
   2227   2226   2228     1   109.5600471 388.275200
   2227   2226   2229     1   108.4600466 328.025600
   2228   2226   2229     1   109.5600471 388.275200
   2230   2228   2232     1   108.7700466 392.459200
   2230   2228   2231     1   107.5800459 329.699200
   2231   2228   2232     1   108.7700466 392.459200
   2235   2225   2237     1   109.5600471 388.275200
   2235   2225   2236     1   108.4600466 328.025600
   2236   2225   2237     1   109.5600471 388.275200
   2238   2237   2240     1   108.7700466 392.459200
   2238   2237   2239     1   107.5800459 329.699200
   2239   2237   2240     1   108.7700466 392.459200
   2243   2245   2246     1   108.8800464 416.726400
   2243   2245   2248     1   108.8800464 416.726400
   2244   2243   2245     1   117.6800502 383.254400
   2245   2247   2249     1   109.5600471 388.275200
   2245   2247   2250     1   109.5600471 388.275200
   2246   2245   2247     1   109.5600471 388.275200
   2246   2245   2248     1   108.4600466 328.025600
   2247   2245   2248     1   109.5600471 388.275200
   2249   2247   2251     1   109.8800469 414.216000
   2249   2247   2250     1   108.4600466 328.025600
   2250   2247   2251     1   109.8800469 414.216000
   2251   2252   2262     1   109.8800469 414.216000
   2251   2252   2263     1   109.8800469 414.216000
   2251   2253   2254     1   109.8800469 414.216000
   2251   2253   2256     1   109.8800469 414.216000
   2252   2264   2265     1   109.8000471 387.438400
   2252   2264   2266     1   109.8000471 387.438400
   2253   2255   2257     1   109.8000471 387.438400
   2253   2255   2258     1   109.8000471 387.438400
   2254   2253   2255     1   109.5600471 388.275200
   2254   2253   2256     1   108.4600466 328.025600
   2255   2253   2256     1   109.5600471 388.275200
   2257   2255   2259     1   108.7700466 392.459200
   2257   2255   2258     1   107.5800459 329.699200
   2258   2255   2259     1   108.7700466 392.459200
   2262   2252   2264     1   109.5600471 388.275200
   2262   2252   2263     1   108.4600466 328.025600
   2263   2252   2264     1   109.5600471 388.275200
   2265   2264   2267     1   108.7700466 392.459200
   2265   2264   2266     1   107.5800459 329.699200
   2266   2264   2267     1   108.7700466 392.459200
   2270   2272   2273     1   108.8800464 416.726400
   2270   2272   2275     1   108.8800464 416.726400
   2271   2270   2272     1   117.6800502 383.254400
   2272   2274   2276     1   109.5600471 388.275200
   2272   2274   2277     1   109.5600471 388.275200
   2273   2272   2274     1   109.5600471 388.275200
   2273   2272   2275     1   108.4600466 328.025600
   2274   2272   2275     1   109.5600471 388.275200
   2276   2274   2278     1   109.8800469 414.216000
   2276   2274   2277     1   108.4600466 328.025600
   2277   2274   2278     1   109.8800469 414.216000
   2278   2279   2289     1   109.8800469 414.216000
   2278   2279   2290     1   109.8800469 414.216000
   2278   2280   2281     1   109.8800469 414.216000
   2278   2280   2283     1   109.8800469 414.216000
   2279   2291   2292     1   109.8000471 387.438400
   2279   2291   2293     1   109.8000471 387.438400
   2280   2282   2284     1   109.8000471 387.438400
   2280   2282   2285     1   109.8000471 387.438400
   2281   2280   2282     1   109.5600471 388.275200
   2281   2280   2283     1   108.4600466 328.025600
   2282   2280   2283     1   109.5600471 388.275200
   2284   2282   2286     1   108.7700466 392.459200
   2284   2282   2285     1   107.5800459 329.699200
   2285   2282   2286     1   108.7700466 392.459200
   2289   2279   2291     1   109.5600471 388.275200
   2289   2279   2290     1   108.4600466 328.025600
   2290   2279   2291     1   109.5600471 388.275200
   2292   2291   2294     1   108.7700466 392.459200
   2292   2291   2293     1   107.5800459 329.699200
   2293   2291   2294     1   108.7700466 392.459200
   2297   2299   2300     1   108.8800464 416.726400
   2297   2299   2302     1   108.8800464 416.726400
   2298   2297   2299     1   117.6800502 383.254400
   2299   2301   2303     1   109.5600471 388.275200
   2299   2301   2304     1   109.5600471 388.275200
   2300   2299   2301     1   109.5600471 388.275200
   2300   2299   2302     1   108.4600466 328.025600
   2301   2299   2302     1   109.5600471 388.275200
   2303   2301   2305     1   109.8800469 414.216000
   2303   2301   2304     1   108.4600466 328.025600
   2304   2301   2305     1   109.8800469 414.216000
   2305   2306   2316     1   109.8800469 414.216000
   2305   2306   2317     1   109.8800469 414.216000
   2305   2307   2308     1   109.8800469 414.216000
   2305   2307   2310     1   109.8800469 414.216000
   2306   2318   2319     1   109.8000471 387.438400
   2306   2318   2320     1   109.8000471 387.438400
   2307   2309   2311     1   109.8000471 387.438400
   2307   2309   2312     1   109.8000471 387.438400
   2308   2307   2309     1   109.5600471 388.275200
   2308   2307   2310     1   108.4600466 328.025600
   2309   2307   2310     1   109.5600471 388.275200
   2311   2309   2313     1   108.7700466 392.459200
   2311   2309   2312     1   107.5800459 329.699200
   2312   2309   2313     1   108.7700466 392.459200
   2316   2306   2318     1   109.5600471 388.275200
   2316   2306   2317     1   108.4600466 328.025600
   2317   2306   2318     1   109.5600471 388.275200
   2319   2318   2321     1   108.7700466 392.459200
   2319   2318   2320     1   107.5800459 329.699200
   2320   2318   2321     1   108.7700466 392.459200
   2324   2326   2327     1   108.8800464 416.726400
   2324   2326   2329     1   108.8800464 416.726400
   2325   2324   2326     1   117.6800502 383.254400
   2326   2328   2330     1   109.5600471 388.275200
   2326   2328   2331     1   109.5600471 388.275200
   2327   2326   2328     1   109.5600471 388.275200
   2327   2326   2329     1   108.4600466 328.025600
   2328   2326   2329     1   109.5600471 388.275200
   2330   2328   2332     1   109.8800469 414.216000
   2330   2328   2331     1   108.4600466 328.025600
   2331   2328   2332     1   109.8800469 414.216000
   2332   2333   2343     1   109.8800469 414.216000
   2332   2333   2344     1   109.8800469 414.216000
   2332   2334   2335     1   109.8800469 414.216000
   2332   2334   2337     1   109.8800469 414.216000
   2333   2345   2346     1   109.8000471 387.438400
   2333   2345   2347     1   109.8000471 387.438400
   2334   2336   2338     1   109.8000471 387.438400
   2334   2336   2339     1   109.8000471 387.438400
   2335   2334   2336     1   109.5600471 388.275200
   2335   2334   2337     1   108.4600466 328.025600
   2336   2334   2337     1   109.5600471 388.275200
   2338   2336   2340     1   108.7700466 392.459200
   2338   2336   2339     1   107.5800459 329.699200
   2339   2336   2340     1   108.7700466 392.459200
   2343   2333   2345     1   109.5600471 388.275200
   2343   2333   2344     1   108.4600466 328.025600
   2344   2333   2345     1   109.5600471 388.275200
   2346   2345   2348     1   108.7700466 392.459200
   2346   2345   2347     1   107.5800459 329.699200
   2347   2345   2348     1   108.7700466 392.459200
   2351   2353   2354     1   108.8800464 416.726400
   2351   2353   2356     1   108.8800464 416.726400
   2352   2351   2353     1   117.6800502 383.254400
   2353   2355   2357     1   109.5600471 388.275200
   2353   2355   2358     1   109.5600471 388.275200
   2354   2353   2355     1   109.5600471 388.275200
   2354   2353   2356     1   108.4600466 328.025600
   2355   2353   2356     1   109.5600471 388.275200
   2357   2355   2359     1   109.8800469 414.216000
   2357   2355   2358     1   108.4600466 328.025600
   2358   2355   2359     1   109.8800469 414.216000
   2359   2360   2370     1   109.8800469 414.216000
   2359   2360   2371     1   109.8800469 414.216000
   2359   2361   2362     1   109.8800469 414.216000
   2359   2361   2364     1   109.8800469 414.216000
   2360   2372   2373     1   109.8000471 387.438400
   2360   2372   2374     1   109.8000471 387.438400
   2361   2363   2365     1   109.8000471 387.438400
   2361   2363   2366     1   109.8000471 387.438400
   2362   2361   2363     1   109.5600471 388.275200
   2362   2361   2364     1   108.4600466 328.025600
   2363   2361   2364     1   109.5600471 388.275200
   2365   2363   2367     1   108.7700466 392.459200
   2365   2363   2366     1   107.5800459 329.699200
   2366   2363   2367     1   108.7700466 392.459200
   2370   2360   2372     1   109.5600471 388.275200
   2370   2360   2371     1   108.4600466 328.025600
   2371   2360   2372     1   109.5600471 388.275200
   2373   2372   2375     1   108.7700466 392.459200
   2373   2372   2374     1   107.5800459 329.699200
   2374   2372   2375     1   108.7700466 392.459200
   2378   2380   2381     1   108.8800464 416.726400
   2378   2380   2383     1   108.8800464 416.726400
   2379   2378   2380     1   117.6800502 383.254400
   2380   2382   2384     1   109.5600471 388.275200
   2380   2382   2385     1   109.5600471 388.275200
   2381   2380   2382     1   109.5600471 388.275200
   2381   2380   2383     1   108.4600466 328.025600
   2382   2380   2383     1   109.5600471 388.275200
   2384   2382   2386     1   109.8800469 414.216000
   2384   2382   2385     1   108.4600466 328.025600
   2385   2382   2386     1   109.8800469 414.216000
   2386   2387   2397     1   109.8800469 414.216000
   2386   2387   2398     1   109.8800469 414.216000
   2386   2388   2389     1   109.8800469 414.216000
   2386   2388   2391     1   109.8800469 414.216000
   2387   2399   2400     1   109.8000471 387.438400
   2387   2399   2401     1   109.8000471 387.438400
   2388   2390   2392     1   109.8000471 387.438400
   2388   2390   2393     1   109.8000471 387.438400
   2389   2388   2390     1   109.5600471 388.275200
   2389   2388   2391     1   108.4600466 328.025600
   2390   2388   2391     1   109.5600471 388.275200
   2392   2390   2394     1   108.7700466 392.459200
   2392   2390   2393     1   107.5800459 329.699200
   2393   2390   2394     1   108.7700466 392.459200
   2397   2387   2399     1   109.5600471 388.275200
   2397   2387   2398     1   108.4600466 328.025600
   2398   2387   2399     1   109.5600471 388.275200
   2400   2399   2402     1   108.7700466 392.459200
   2400   2399   2401     1   107.5800459 329.699200
   2401   2399   2402     1   108.7700466 392.459200
   2405   2407   2408     1   108.8800464 416.726400
   2405   2407   2410     1   108.8800464 416.726400
   2406   2405   2407     1   117.6800502 383.254400
   2407   2409   2411     1   109.5600471 388.275200
   2407   2409   2412     1   109.5600471 388.275200
   2408   2407   2409     1   109.5600471 388.275200
   2408   2407   2410     1   108.4600466 328.025600
   2409   2407   2410     1   109.5600471 388.275200
   2411   2409   2413     1   109.8800469 414.216000
   2411   2409   2412     1   108.4600466 328.025600
   2412   2409   2413     1   109.8800469 414.216000
   2413   2414   2424     1   109.8800469 414.216000
   2413   2414   2425     1   109.8800469 414.216000
   2413   2415   2416     1   109.8800469 414.216000
   2413   2415   2418     1   109.8800469 414.216000
   2414   2426   2427     1   109.8000471 387.438400
   2414   2426   2428     1   109.8000471 387.438400
   2415   2417   2419     1   109.8000471 387.438400
   2415   2417   2420     1   109.8000471 387.438400
   2416   2415   2417     1   109.5600471 388.275200
   2416   2415   2418     1   108.4600466 328.025600
   2417   2415   2418     1   109.5600471 388.275200
   2419   2417   2421     1   108.7700466 392.459200
   2419   2417   2420     1   107.5800459 329.699200
   2420   2417   2421     1   108.7700466 392.459200
   2424   2414   2426     1   109.5600471 388.275200
   2424   2414   2425     1   108.4600466 328.025600
   2425   2414   2426     1   109.5600471 388.275200
   2427   2426   2429     1   108.7700466 392.459200
   2427   2426   2428     1   107.5800459 329.699200
   2428   2426   2429     1   108.7700466 392.459200
   2432   2434   2435     1   108.8800464 416.726400
   2432   2434   2437     1   108.8800464 416.726400
   2433   2432   2434     1   117.6800502 383.254400
   2434   2436   2438     1   109.5600471 388.275200
   2434   2436   2439     1   109.5600471 388.275200
   2435   2434   2436     1   109.5600471 388.275200
   2435   2434   2437     1   108.4600466 328.025600
   2436   2434   2437     1   109.5600471 388.275200
   2438   2436   2440     1   109.8800469 414.216000
   2438   2436   2439     1   108.4600466 328.025600
   2439   2436   2440     1   109.8800469 414.216000
   2440   2441   2451     1   109.8800469 414.216000
   2440   2441   2452     1   109.8800469 414.216000
   2440   2442   2443     1   109.8800469 414.216000
   2440   2442   2445     1   109.8800469 414.216000
   2441   2453   2454     1   109.8000471 387.438400
   2441   2453   2455     1   109.8000471 387.438400
   2442   2444   2446     1   109.8000471 387.438400
   2442   2444   2447     1   109.8000471 387.438400
   2443   2442   2444     1   109.5600471 388.275200
   2443   2442   2445     1   108.4600466 328.025600
   2444   2442   2445     1   109.5600471 388.275200
   2446   2444   2448     1   108.7700466 392.459200
   2446   2444   2447     1   107.5800459 329.699200
   2447   2444   2448     1   108.7700466 392.459200
   2451   2441   2453     1   109.5600471 388.275200
   2451   2441   2452     1   108.4600466 328.025600
   2452   2441   2453     1   109.5600471 388.275200
   2454   2453   2456     1   108.7700466 392.459200
   2454   2453   2455     1   107.5800459 329.699200
   2455   2453   2456     1   108.7700466 392.459200
   2459   2461   2462     1   108.8800464 416.726400
   2459   2461   2464     1   108.8800464 416.726400
   2460   2459   2461     1   117.6800502 383.254400
   2461   2463   2465     1   109.5600471 388.275200
   2461   2463   2466     1   109.5600471 388.275200
   2462   2461   2463     1   109.5600471 388.275200
   2462   2461   2464     1   108.4600466 328.025600
   2463   2461   2464     1   109.5600471 388.275200
   2465   2463   2467     1   109.8800469 414.216000
   2465   2463   2466     1   108.4600466 328.025600
   2466   2463   2467     1   109.8800469 414.216000
   2467   2468   2478     1   109.8800469 414.216000
   2467   2468   2479     1   109.8800469 414.216000
   2467   2469   2470     1   109.8800469 414.216000
   2467   2469   2472     1   109.8800469 414.216000
   2468   2480   2481     1   109.8000471 387.438400
   2468   2480   2482     1   109.8000471 387.438400
   2469   2471   2473     1   109.8000471 387.438400
   2469   2471   2474     1   109.8000471 387.438400
   2470   2469   2471     1   109.5600471 388.275200
   2470   2469   2472     1   108.4600466 328.025600
   2471   2469   2472     1   109.5600471 388.275200
   2473   2471   2475     1   108.7700466 392.459200
   2473   2471   2474     1   107.5800459 329.699200
   2474   2471   2475     1   108.7700466 392.459200
   2478   2468   2480     1   109.5600471 388.275200
   2478   2468   2479     1   108.4600466 328.025600
   2479   2468   2480     1   109.5600471 388.275200
   2481   2480   2483     1   108.7700466 392.459200
   2481   2480   2482     1   107.5800459 329.699200
   2482   2480   2483     1   108.7700466 392.459200
   2486   2488   2489     1   108.8800464 416.726400
   2486   2488   2491     1   108.8800464 416.726400
   2487   2486   2488     1   117.6800502 383.254400
   2488   2490   2492     1   109.5600471 388.275200
   2488   2490   2493     1   109.5600471 388.275200
   2489   2488   2490     1   109.5600471 388.275200
   2489   2488   2491     1   108.4600466 328.025600
   2490   2488   2491     1   109.5600471 388.275200
   2492   2490   2494     1   109.8800469 414.216000
   2492   2490   2493     1   108.4600466 328.025600
   2493   2490   2494     1   109.8800469 414.216000
   2494   2495   2505     1   109.8800469 414.216000
   2494   2495   2506     1   109.8800469 414.216000
   2494   2496   2497     1   109.8800469 414.216000
   2494   2496   2499     1   109.8800469 414.216000
   2495   2507   2508     1   109.8000471 387.438400
   2495   2507   2509     1   109.8000471 387.438400
   2496   2498   2500     1   109.8000471 387.438400
   2496   2498   2501     1   109.8000471 387.438400
   2497   2496   2498     1   109.5600471 388.275200
   2497   2496   2499     1   108.4600466 328.025600
   2498   2496   2499     1   109.5600471 388.275200
   2500   2498   2502     1   108.7700466 392.459200
   2500   2498   2501     1   107.5800459 329.699200
   2501   2498   2502     1   108.7700466 392.459200
   2505   2495   2507     1   109.5600471 388.275200
   2505   2495   2506     1   108.4600466 328.025600
   2506   2495   2507     1   109.5600471 388.275200
   2508   2507   2510     1   108.7700466 392.459200
   2508   2507   2509     1   107.5800459 329.699200
   2509   2507   2510     1   108.7700466 392.459200
   2513   2515   2516     1   108.8800464 416.726400
   2513   2515   2518     1   108.8800464 416.726400
   2514   2513   2515     1   117.6800502 383.254400
   2515   2517   2519     1   109.5600471 388.275200
   2515   2517   2520     1   109.5600471 388.275200
   2516   2515   2517     1   109.5600471 388.275200
   2516   2515   2518     1   108.4600466 328.025600
   2517   2515   2518     1   109.5600471 388.275200
   2519   2517   2521     1   109.8800469 414.216000
   2519   2517   2520     1   108.4600466 328.025600
   2520   2517   2521     1   109.8800469 414.216000
   2521   2522   2532     1   109.8800469 414.216000
   2521   2522   2533     1   109.8800469 414.216000
   2521   2523   2524     1   109.8800469 414.216000
   2521   2523   2526     1   109.8800469 414.216000
   2522   2534   2535     1   109.8000471 387.438400
   2522   2534   2536     1   109.8000471 387.438400
   2523   2525   2527     1   109.8000471 387.438400
   2523   2525   2528     1   109.8000471 387.438400
   2524   2523   2525     1   109.5600471 388.275200
   2524   2523   2526     1   108.4600466 328.025600
   2525   2523   2526     1   109.5600471 388.275200
   2527   2525   2529     1   108.7700466 392.459200
   2527   2525   2528     1   107.5800459 329.699200
   2528   2525   2529     1   108.7700466 392.459200
   2532   2522   2534     1   109.5600471 388.275200
   2532   2522   2533     1   108.4600466 328.025600
   2533   2522   2534     1   109.5600471 388.275200
   2535   2534   2537     1   108.7700466 392.459200
   2535   2534   2536     1   107.5800459 329.699200
   2536   2534   2537     1   108.7700466 392.459200
   2540   2542   2543     1   108.8800464 416.726400
   2540   2542   2545     1   108.8800464 416.726400
   2541   2540   2542     1   117.6800502 383.254400
   2542   2544   2546     1   109.5600471 388.275200
   2542   2544   2547     1   109.5600471 388.275200
   2543   2542   2544     1   109.5600471 388.275200
   2543   2542   2545     1   108.4600466 328.025600
   2544   2542   2545     1   109.5600471 388.275200
   2546   2544   2548     1   109.8800469 414.216000
   2546   2544   2547     1   108.4600466 328.025600
   2547   2544   2548     1   109.8800469 414.216000
   2548   2549   2559     1   109.8800469 414.216000
   2548   2549   2560     1   109.8800469 414.216000
   2548   2550   2551     1   109.8800469 414.216000
   2548   2550   2553     1   109.8800469 414.216000
   2549   2561   2562     1   109.8000471 387.438400
   2549   2561   2563     1   109.8000471 387.438400
   2550   2552   2554     1   109.8000471 387.438400
   2550   2552   2555     1   109.8000471 387.438400
   2551   2550   2552     1   109.5600471 388.275200
   2551   2550   2553     1   108.4600466 328.025600
   2552   2550   2553     1   109.5600471 388.275200
   2554   2552   2556     1   108.7700466 392.459200
   2554   2552   2555     1   107.5800459 329.699200
   2555   2552   2556     1   108.7700466 392.459200
   2559   2549   2561     1   109.5600471 388.275200
   2559   2549   2560     1   108.4600466 328.025600
   2560   2549   2561     1   109.5600471 388.275200
   2562   2561   2564     1   108.7700466 392.459200
   2562   2561   2563     1   107.5800459 329.699200
   2563   2561   2564     1   108.7700466 392.459200
   2567   2569   2570     1   108.8800464 416.726400
   2567   2569   2572     1   108.8800464 416.726400
   2568   2567   2569     1   117.6800502 383.254400
   2569   2571   2573     1   109.5600471 388.275200
   2569   2571   2574     1   109.5600471 388.275200
   2570   2569   2571     1   109.5600471 388.275200
   2570   2569   2572     1   108.4600466 328.025600
   2571   2569   2572     1   109.5600471 388.275200
   2573   2571   2575     1   109.8800469 414.216000
   2573   2571   2574     1   108.4600466 328.025600
   2574   2571   2575     1   109.8800469 414.216000
   2575   2576   2586     1   109.8800469 414.216000
   2575   2576   2587     1   109.8800469 414.216000
   2575   2577   2578     1   109.8800469 414.216000
   2575   2577   2580     1   109.8800469 414.216000
   2576   2588   2589     1   109.8000471 387.438400
   2576   2588   2590     1   109.8000471 387.438400
   2577   2579   2581     1   109.8000471 387.438400
   2577   2579   2582     1   109.8000471 387.438400
   2578   2577   2579     1   109.5600471 388.275200
   2578   2577   2580     1   108.4600466 328.025600
   2579   2577   2580     1   109.5600471 388.275200
   2581   2579   2583     1   108.7700466 392.459200
   2581   2579   2582     1   107.5800459 329.699200
   2582   2579   2583     1   108.7700466 392.459200
   2586   2576   2588     1   109.5600471 388.275200
   2586   2576   2587     1   108.4600466 328.025600
   2587   2576   2588     1   109.5600471 388.275200
   2589   2588   2591     1   108.7700466 392.459200
   2589   2588   2590     1   107.5800459 329.699200
   2590   2588   2591     1   108.7700466 392.459200
   2594   2596   2597     1   108.8800464 416.726400
   2594   2596   2599     1   108.8800464 416.726400
   2595   2594   2596     1   117.6800502 383.254400
   2596   2598   2600     1   109.5600471 388.275200
   2596   2598   2601     1   109.5600471 388.275200
   2597   2596   2598     1   109.5600471 388.275200
   2597   2596   2599     1   108.4600466 328.025600
   2598   2596   2599     1   109.5600471 388.275200
   2600   2598   2602     1   109.8800469 414.216000
   2600   2598   2601     1   108.4600466 328.025600
   2601   2598   2602     1   109.8800469 414.216000
   2602   2603   2613     1   109.8800469 414.216000
   2602   2603   2614     1   109.8800469 414.216000
   2602   2604   2605     1   109.8800469 414.216000
   2602   2604   2607     1   109.8800469 414.216000
   2603   2615   2616     1   109.8000471 387.438400
   2603   2615   2617     1   109.8000471 387.438400
   2604   2606   2608     1   109.8000471 387.438400
   2604   2606   2609     1   109.8000471 387.438400
   2605   2604   2606     1   109.5600471 388.275200
   2605   2604   2607     1   108.4600466 328.025600
   2606   2604   2607     1   109.5600471 388.275200
   2608   2606   2610     1   108.7700466 392.459200
   2608   2606   2609     1   107.5800459 329.699200
   2609   2606   2610     1   108.7700466 392.459200
   2613   2603   2615     1   109.5600471 388.275200
   2613   2603   2614     1   108.4600466 328.025600
   2614   2603   2615     1   109.5600471 388.275200
   2616   2615   2618     1   108.7700466 392.459200
   2616   2615   2617     1   107.5800459 329.699200
   2617   2615   2618     1   108.7700466 392.459200
   2621   2623   2624     1   108.8800464 416.726400
   2621   2623   2626     1   108.8800464 416.726400
   2622   2621   2623     1   117.6800502 383.254400
   2623   2625   2627     1   109.5600471 388.275200
   2623   2625   2628     1   109.5600471 388.275200
   2624   2623   2625     1   109.5600471 388.275200
   2624   2623   2626     1   108.4600466 328.025600
   2625   2623   2626     1   109.5600471 388.275200
   2627   2625   2629     1   109.8800469 414.216000
   2627   2625   2628     1   108.4600466 328.025600
   2628   2625   2629     1   109.8800469 414.216000
   2629   2630   2640     1   109.8800469 414.216000
   2629   2630   2641     1   109.8800469 414.216000
   2629   2631   2632     1   109.8800469 414.216000
   2629   2631   2634     1   109.8800469 414.216000
   2630   2642   2643     1   109.8000471 387.438400
   2630   2642   2644     1   109.8000471 387.438400
   2631   2633   2635     1   109.8000471 387.438400
   2631   2633   2636     1   109.8000471 387.438400
   2632   2631   2633     1   109.5600471 388.275200
   2632   2631   2634     1   108.4600466 328.025600
   2633   2631   2634     1   109.5600471 388.275200
   2635   2633   2637     1   108.7700466 392.459200
   2635   2633   2636     1   107.5800459 329.699200
   2636   2633   2637     1   108.7700466 392.459200
   2640   2630   2642     1   109.5600471 388.275200
   2640   2630   2641     1   108.4600466 328.025600
   2641   2630   2642     1   109.5600471 388.275200
   2643   2642   2645     1   108.7700466 392.459200
   2643   2642   2644     1   107.5800459 329.699200
   2644   2642   2645     1   108.7700466 392.459200
   2648   2650   2651     1   108.8800464 416.726400
   2648   2650   2653     1   108.8800464 416.726400
   2649   2648   2650     1   117.6800502 383.254400
   2650   2652   2654     1   109.5600471 388.275200
   2650   2652   2655     1   109.5600471 388.275200
   2651   2650   2652     1   109.5600471 388.275200
   2651   2650   2653     1   108.4600466 328.025600
   2652   2650   2653     1   109.5600471 388.275200
   2654   2652   2656     1   109.8800469 414.216000
   2654   2652   2655     1   108.4600466 328.025600
   2655   2652   2656     1   109.8800469 414.216000
   2656   2657   2667     1   109.8800469 414.216000
   2656   2657   2668     1   109.8800469 414.216000
   2656   2658   2659     1   109.8800469 414.216000
   2656   2658   2661     1   109.8800469 414.216000
   2657   2669   2670     1   109.8000471 387.438400
   2657   2669   2671     1   109.8000471 387.438400
   2658   2660   2662     1   109.8000471 387.438400
   2658   2660   2663     1   109.8000471 387.438400
   2659   2658   2660     1   109.5600471 388.275200
   2659   2658   2661     1   108.4600466 328.025600
   2660   2658   2661     1   109.5600471 388.275200
   2662   2660   2664     1   108.7700466 392.459200
   2662   2660   2663     1   107.5800459 329.699200
   2663   2660   2664     1   108.7700466 392.459200
   2667   2657   2669     1   109.5600471 388.275200
   2667   2657   2668     1   108.4600466 328.025600
   2668   2657   2669     1   109.5600471 388.275200
   2670   2669   2672     1   108.7700466 392.459200
   2670   2669   2671     1   107.5800459 329.699200
   2671   2669   2672     1   108.7700466 392.459200
   2675   2677   2678     1   108.8800464 416.726400
   2675   2677   2680     1   108.8800464 416.726400
   2676   2675   2677     1   117.6800502 383.254400
   2677   2679   2681     1   109.5600471 388.275200
   2677   2679   2682     1   109.5600471 388.275200
   2678   2677   2679     1   109.5600471 388.275200
   2678   2677   2680     1   108.4600466 328.025600
   2679   2677   2680     1   109.5600471 388.275200
   2681   2679   2683     1   109.8800469 414.216000
   2681   2679   2682     1   108.4600466 328.025600
   2682   2679   2683     1   109.8800469 414.216000
   2683   2684   2694     1   109.8800469 414.216000
   2683   2684   2695     1   109.8800469 414.216000
   2683   2685   2686     1   109.8800469 414.216000
   2683   2685   2688     1   109.8800469 414.216000
   2684   2696   2697     1   109.8000471 387.438400
   2684   2696   2698     1   109.8000471 387.438400
   2685   2687   2689     1   109.8000471 387.438400
   2685   2687   2690     1   109.8000471 387.438400
   2686   2685   2687     1   109.5600471 388.275200
   2686   2685   2688     1   108.4600466 328.025600
   2687   2685   2688     1   109.5600471 388.275200
   2689   2687   2691     1   108.7700466 392.459200
   2689   2687   2690     1   107.5800459 329.699200
   2690   2687   2691     1   108.7700466 392.459200
   2694   2684   2696     1   109.5600471 388.275200
   2694   2684   2695     1   108.4600466 328.025600
   2695   2684   2696     1   109.5600471 388.275200
   2697   2696   2699     1   108.7700466 392.459200
   2697   2696   2698     1   107.5800459 329.699200
   2698   2696   2699     1   108.7700466 392.459200
   2702   2704   2705     1   108.8800464 416.726400
   2702   2704   2707     1   108.8800464 416.726400
   2703   2702   2704     1   117.6800502 383.254400
   2704   2706   2708     1   109.5600471 388.275200
   2704   2706   2709     1   109.5600471 388.275200
   2705   2704   2706     1   109.5600471 388.275200
   2705   2704   2707     1   108.4600466 328.025600
   2706   2704   2707     1   109.5600471 388.275200
   2708   2706   2710     1   109.8800469 414.216000
   2708   2706   2709     1   108.4600466 328.025600
   2709   2706   2710     1   109.8800469 414.216000
   2710   2711   2721     1   109.8800469 414.216000
   2710   2711   2722     1   109.8800469 414.216000
   2710   2712   2713     1   109.8800469 414.216000
   2710   2712   2715     1   109.8800469 414.216000
   2711   2723   2724     1   109.8000471 387.438400
   2711   2723   2725     1   109.8000471 387.438400
   2712   2714   2716     1   109.8000471 387.438400
   2712   2714   2717     1   109.8000471 387.438400
   2713   2712   2714     1   109.5600471 388.275200
   2713   2712   2715     1   108.4600466 328.025600
   2714   2712   2715     1   109.5600471 388.275200
   2716   2714   2718     1   108.7700466 392.459200
   2716   2714   2717     1   107.5800459 329.699200
   2717   2714   2718     1   108.7700466 392.459200
   2721   2711   2723     1   109.5600471 388.275200
   2721   2711   2722     1   108.4600466 328.025600
   2722   2711   2723     1   109.5600471 388.275200
   2724   2723   2726     1   108.7700466 392.459200
   2724   2723   2725     1   107.5800459 329.699200
   2725   2723   2726     1   108.7700466 392.459200
   2729   2731   2732     1   108.8800464 416.726400
   2729   2731   2734     1   108.8800464 416.726400
   2730   2729   2731     1   117.6800502 383.254400
   2731   2733   2735     1   109.5600471 388.275200
   2731   2733   2736     1   109.5600471 388.275200
   2732   2731   2733     1   109.5600471 388.275200
   2732   2731   2734     1   108.4600466 328.025600
   2733   2731   2734     1   109.5600471 388.275200
   2735   2733   2737     1   109.8800469 414.216000
   2735   2733   2736     1   108.4600466 328.025600
   2736   2733   2737     1   109.8800469 414.216000
   2737   2738   2748     1   109.8800469 414.216000
   2737   2738   2749     1   109.8800469 414.216000
   2737   2739   2740     1   109.8800469 414.216000
   2737   2739   2742     1   109.8800469 414.216000
   2738   2750   2751     1   109.8000471 387.438400
   2738   2750   2752     1   109.8000471 387.438400
   2739   2741   2743     1   109.8000471 387.438400
   2739   2741   2744     1   109.8000471 387.438400
   2740   2739   2741     1   109.5600471 388.275200
   2740   2739   2742     1   108.4600466 328.025600
   2741   2739   2742     1   109.5600471 388.275200
   2743   2741   2745     1   108.7700466 392.459200
   2743   2741   2744     1   107.5800459 329.699200
   2744   2741   2745     1   108.7700466 392.459200
   2748   2738   2750     1   109.5600471 388.275200
   2748   2738   2749     1   108.4600466 328.025600
   2749   2738   2750     1   109.5600471 388.275200
   2751   2750   2753     1   108.7700466 392.459200
   2751   2750   2752     1   107.5800459 329.699200
   2752   2750   2753     1   108.7700466 392.459200
   2756   2758   2759     1   108.8800464 416.726400
   2756   2758   2761     1   108.8800464 416.726400
   2757   2756   2758     1   117.6800502 383.254400
   2758   2760   2762     1   109.5600471 388.275200
   2758   2760   2763     1   109.5600471 388.275200
   2759   2758   2760     1   109.5600471 388.275200
   2759   2758   2761     1   108.4600466 328.025600
   2760   2758   2761     1   109.5600471 388.275200
   2762   2760   2764     1   109.8800469 414.216000
   2762   2760   2763     1   108.4600466 328.025600
   2763   2760   2764     1   109.8800469 414.216000
   2764   2765   2775     1   109.8800469 414.216000
   2764   2765   2776     1   109.8800469 414.216000
   2764   2766   2767     1   109.8800469 414.216000
   2764   2766   2769     1   109.8800469 414.216000
   2765   2777   2778     1   109.8000471 387.438400
   2765   2777   2779     1   109.8000471 387.438400
   2766   2768   2770     1   109.8000471 387.438400
   2766   2768   2771     1   109.8000471 387.438400
   2767   2766   2768     1   109.5600471 388.275200
   2767   2766   2769     1   108.4600466 328.025600
   2768   2766   2769     1   109.5600471 388.275200
   2770   2768   2772     1   108.7700466 392.459200
   2770   2768   2771     1   107.5800459 329.699200
   2771   2768   2772     1   108.7700466 392.459200
   2775   2765   2777     1   109.5600471 388.275200
   2775   2765   2776     1   108.4600466 328.025600
   2776   2765   2777     1   109.5600471 388.275200
   2778   2777   2780     1   108.7700466 392.459200
   2778   2777   2779     1   107.5800459 329.699200
   2779   2777   2780     1   108.7700466 392.459200
   2783   2785   2786     1   108.8800464 416.726400
   2783   2785   2788     1   108.8800464 416.726400
   2784   2783   2785     1   117.6800502 383.254400
   2785   2787   2789     1   109.5600471 388.275200
   2785   2787   2790     1   109.5600471 388.275200
   2786   2785   2787     1   109.5600471 388.275200
   2786   2785   2788     1   108.4600466 328.025600
   2787   2785   2788     1   109.5600471 388.275200
   2789   2787   2791     1   109.8800469 414.216000
   2789   2787   2790     1   108.4600466 328.025600
   2790   2787   2791     1   109.8800469 414.216000
   2791   2792   2802     1   109.8800469 414.216000
   2791   2792   2803     1   109.8800469 414.216000
   2791   2793   2794     1   109.8800469 414.216000
   2791   2793   2796     1   109.8800469 414.216000
   2792   2804   2805     1   109.8000471 387.438400
   2792   2804   2806     1   109.8000471 387.438400
   2793   2795   2797     1   109.8000471 387.438400
   2793   2795   2798     1   109.8000471 387.438400
   2794   2793   2795     1   109.5600471 388.275200
   2794   2793   2796     1   108.4600466 328.025600
   2795   2793   2796     1   109.5600471 388.275200
   2797   2795   2799     1   108.7700466 392.459200
   2797   2795   2798     1   107.5800459 329.699200
   2798   2795   2799     1   108.7700466 392.459200
   2802   2792   2804     1   109.5600471 388.275200
   2802   2792   2803     1   108.4600466 328.025600
   2803   2792   2804     1   109.5600471 388.275200
   2805   2804   2807     1   108.7700466 392.459200
   2805   2804   2806     1   107.5800459 329.699200
   2806   2804   2807     1   108.7700466 392.459200
   2810   2812   2813     1   108.8800464 416.726400
   2810   2812   2815     1   108.8800464 416.726400
   2811   2810   2812     1   117.6800502 383.254400
   2812   2814   2816     1   109.5600471 388.275200
   2812   2814   2817     1   109.5600471 388.275200
   2813   2812   2814     1   109.5600471 388.275200
   2813   2812   2815     1   108.4600466 328.025600
   2814   2812   2815     1   109.5600471 388.275200
   2816   2814   2818     1   109.8800469 414.216000
   2816   2814   2817     1   108.4600466 328.025600
   2817   2814   2818     1   109.8800469 414.216000
   2818   2819   2829     1   109.8800469 414.216000
   2818   2819   2830     1   109.8800469 414.216000
   2818   2820   2821     1   109.8800469 414.216000
   2818   2820   2823     1   109.8800469 414.216000
   2819   2831   2832     1   109.8000471 387.438400
   2819   2831   2833     1   109.8000471 387.438400
   2820   2822   2824     1   109.8000471 387.438400
   2820   2822   2825     1   109.8000471 387.438400
   2821   2820   2822     1   109.5600471 388.275200
   2821   2820   2823     1   108.4600466 328.025600
   2822   2820   2823     1   109.5600471 388.275200
   2824   2822   2826     1   108.7700466 392.459200
   2824   2822   2825     1   107.5800459 329.699200
   2825   2822   2826     1   108.7700466 392.459200
   2829   2819   2831     1   109.5600471 388.275200
   2829   2819   2830     1   108.4600466 328.025600
   2830   2819   2831     1   109.5600471 388.275200
   2832   2831   2834     1   108.7700466 392.459200
   2832   2831   2833     1   107.5800459 329.699200
   2833   2831   2834     1   108.7700466 392.459200
   2837   2839   2840     1   108.8800464 416.726400
   2837   2839   2842     1   108.8800464 416.726400
   2838   2837   2839     1   117.6800502 383.254400
   2839   2841   2843     1   109.5600471 388.275200
   2839   2841   2844     1   109.5600471 388.275200
   2840   2839   2841     1   109.5600471 388.275200
   2840   2839   2842     1   108.4600466 328.025600
   2841   2839   2842     1   109.5600471 388.275200
   2843   2841   2845     1   109.8800469 414.216000
   2843   2841   2844     1   108.4600466 328.025600
   2844   2841   2845     1   109.8800469 414.216000
   2845   2846   2856     1   109.8800469 414.216000
   2845   2846   2857     1   109.8800469 414.216000
   2845   2847   2848     1   109.8800469 414.216000
   2845   2847   2850     1   109.8800469 414.216000
   2846   2858   2859     1   109.8000471 387.438400
   2846   2858   2860     1   109.8000471 387.438400
   2847   2849   2851     1   109.8000471 387.438400
   2847   2849   2852     1   109.8000471 387.438400
   2848   2847   2849     1   109.5600471 388.275200
   2848   2847   2850     1   108.4600466 328.025600
   2849   2847   2850     1   109.5600471 388.275200
   2851   2849   2853     1   108.7700466 392.459200
   2851   2849   2852     1   107.5800459 329.699200
   2852   2849   2853     1   108.7700466 392.459200
   2856   2846   2858     1   109.5600471 388.275200
   2856   2846   2857     1   108.4600466 328.025600
   2857   2846   2858     1   109.5600471 388.275200
   2859   2858   2861     1   108.7700466 392.459200
   2859   2858   2860     1   107.5800459 329.699200
   2860   2858   2861     1   108.7700466 392.459200
   2864   2866   2867     1   108.8800464 416.726400
   2864   2866   2869     1   108.8800464 416.726400
   2865   2864   2866     1   117.6800502 383.254400
   2866   2868   2870     1   109.5600471 388.275200
   2866   2868   2871     1   109.5600471 388.275200
   2867   2866   2868     1   109.5600471 388.275200
   2867   2866   2869     1   108.4600466 328.025600
   2868   2866   2869     1   109.5600471 388.275200
   2870   2868   2872     1   109.8800469 414.216000
   2870   2868   2871     1   108.4600466 328.025600
   2871   2868   2872     1   109.8800469 414.216000
   2872   2873   2883     1   109.8800469 414.216000
   2872   2873   2884     1   109.8800469 414.216000
   2872   2874   2875     1   109.8800469 414.216000
   2872   2874   2877     1   109.8800469 414.216000
   2873   2885   2886     1   109.8000471 387.438400
   2873   2885   2887     1   109.8000471 387.438400
   2874   2876   2878     1   109.8000471 387.438400
   2874   2876   2879     1   109.8000471 387.438400
   2875   2874   2876     1   109.5600471 388.275200
   2875   2874   2877     1   108.4600466 328.025600
   2876   2874   2877     1   109.5600471 388.275200
   2878   2876   2880     1   108.7700466 392.459200
   2878   2876   2879     1   107.5800459 329.699200
   2879   2876   2880     1   108.7700466 392.459200
   2883   2873   2885     1   109.5600471 388.275200
   2883   2873   2884     1   108.4600466 328.025600
   2884   2873   2885     1   109.5600471 388.275200
   2886   2885   2888     1   108.7700466 392.459200
   2886   2885   2887     1   107.5800459 329.699200
   2887   2885   2888     1   108.7700466 392.459200
   2891   2893   2894     1   108.8800464 416.726400
   2891   2893   2896     1   108.8800464 416.726400
   2892   2891   2893     1   117.6800502 383.254400
   2893   2895   2897     1   109.5600471 388.275200
   2893   2895   2898     1   109.5600471 388.275200
   2894   2893   2895     1   109.5600471 388.275200
   2894   2893   2896     1   108.4600466 328.025600
   2895   2893   2896     1   109.5600471 388.275200
   2897   2895   2899     1   109.8800469 414.216000
   2897   2895   2898     1   108.4600466 328.025600
   2898   2895   2899     1   109.8800469 414.216000
   2899   2900   2910     1   109.8800469 414.216000
   2899   2900   2911     1   109.8800469 414.216000
   2899   2901   2902     1   109.8800469 414.216000
   2899   2901   2904     1   109.8800469 414.216000
   2900   2912   2913     1   109.8000471 387.438400
   2900   2912   2914     1   109.8000471 387.438400
   2901   2903   2905     1   109.8000471 387.438400
   2901   2903   2906     1   109.8000471 387.438400
   2902   2901   2903     1   109.5600471 388.275200
   2902   2901   2904     1   108.4600466 328.025600
   2903   2901   2904     1   109.5600471 388.275200
   2905   2903   2907     1   108.7700466 392.459200
   2905   2903   2906     1   107.5800459 329.699200
   2906   2903   2907     1   108.7700466 392.459200
   2910   2900   2912     1   109.5600471 388.275200
   2910   2900   2911     1   108.4600466 328.025600
   2911   2900   2912     1   109.5600471 388.275200
   2913   2912   2915     1   108.7700466 392.459200
   2913   2912   2914     1   107.5800459 329.699200
   2914   2912   2915     1   108.7700466 392.459200
   2918   2920   2921     1   108.8800464 416.726400
   2918   2920   2923     1   108.8800464 416.726400
   2919   2918   2920     1   117.6800502 383.254400
   2920   2922   2924     1   109.5600471 388.275200
   2920   2922   2925     1   109.5600471 388.275200
   2921   2920   2922     1   109.5600471 388.275200
   2921   2920   2923     1   108.4600466 328.025600
   2922   2920   2923     1   109.5600471 388.275200
   2924   2922   2926     1   109.8800469 414.216000
   2924   2922   2925     1   108.4600466 328.025600
   2925   2922   2926     1   109.8800469 414.216000
   2926   2927   2937     1   109.8800469 414.216000
   2926   2927   2938     1   109.8800469 414.216000
   2926   2928   2929     1   109.8800469 414.216000
   2926   2928   2931     1   109.8800469 414.216000
   2927   2939   2940     1   109.8000471 387.438400
   2927   2939   2941     1   109.8000471 387.438400
   2928   2930   2932     1   109.8000471 387.438400
   2928   2930   2933     1   109.8000471 387.438400
   2929   2928   2930     1   109.5600471 388.275200
   2929   2928   2931     1   108.4600466 328.025600
   2930   2928   2931     1   109.5600471 388.275200
   2932   2930   2934     1   108.7700466 392.459200
   2932   2930   2933     1   107.5800459 329.699200
   2933   2930   2934     1   108.7700466 392.459200
   2937   2927   2939     1   109.5600471 388.275200
   2937   2927   2938     1   108.4600466 328.025600
   2938   2927   2939     1   109.5600471 388.275200
   2940   2939   2942     1   108.7700466 392.459200
   2940   2939   2941     1   107.5800459 329.699200
   2941   2939   2942     1   108.7700466 392.459200
   2945   2947   2948     1   108.8800464 416.726400
   2945   2947   2950     1   108.8800464 416.726400
   2946   2945   2947     1   117.6800502 383.254400
   2947   2949   2951     1   109.5600471 388.275200
   2947   2949   2952     1   109.5600471 388.275200
   2948   2947   2949     1   109.5600471 388.275200
   2948   2947   2950     1   108.4600466 328.025600
   2949   2947   2950     1   109.5600471 388.275200
   2951   2949   2953     1   109.8800469 414.216000
   2951   2949   2952     1   108.4600466 328.025600
   2952   2949   2953     1   109.8800469 414.216000
   2953   2954   2964     1   109.8800469 414.216000
   2953   2954   2965     1   109.8800469 414.216000
   2953   2955   2956     1   109.8800469 414.216000
   2953   2955   2958     1   109.8800469 414.216000
   2954   2966   2967     1   109.8000471 387.438400
   2954   2966   2968     1   109.8000471 387.438400
   2955   2957   2959     1   109.8000471 387.438400
   2955   2957   2960     1   109.8000471 387.438400
   2956   2955   2957     1   109.5600471 388.275200
   2956   2955   2958     1   108.4600466 328.025600
   2957   2955   2958     1   109.5600471 388.275200
   2959   2957   2961     1   108.7700466 392.459200
   2959   2957   2960     1   107.5800459 329.699200
   2960   2957   2961     1   108.7700466 392.459200
   2964   2954   2966     1   109.5600471 388.275200
   2964   2954   2965     1   108.4600466 328.025600
   2965   2954   2966     1   109.5600471 388.275200
   2967   2966   2969     1   108.7700466 392.459200
   2967   2966   2968     1   107.5800459 329.699200
   2968   2966   2969     1   108.7700466 392.459200
   2972   2974   2975     1   108.8800464 416.726400
   2972   2974   2977     1   108.8800464 416.726400
   2973   2972   2974     1   117.6800502 383.254400
   2974   2976   2978     1   109.5600471 388.275200
   2974   2976   2979     1   109.5600471 388.275200
   2975   2974   2976     1   109.5600471 388.275200
   2975   2974   2977     1   108.4600466 328.025600
   2976   2974   2977     1   109.5600471 388.275200
   2978   2976   2980     1   109.8800469 414.216000
   2978   2976   2979     1   108.4600466 328.025600
   2979   2976   2980     1   109.8800469 414.216000
   2980   2981   2991     1   109.8800469 414.216000
   2980   2981   2992     1   109.8800469 414.216000
   2980   2982   2983     1   109.8800469 414.216000
   2980   2982   2985     1   109.8800469 414.216000
   2981   2993   2994     1   109.8000471 387.438400
   2981   2993   2995     1   109.8000471 387.438400
   2982   2984   2986     1   109.8000471 387.438400
   2982   2984   2987     1   109.8000471 387.438400
   2983   2982   2984     1   109.5600471 388.275200
   2983   2982   2985     1   108.4600466 328.025600
   2984   2982   2985     1   109.5600471 388.275200
   2986   2984   2988     1   108.7700466 392.459200
   2986   2984   2987     1   107.5800459 329.699200
   2987   2984   2988     1   108.7700466 392.459200
   2991   2981   2993     1   109.5600471 388.275200
   2991   2981   2992     1   108.4600466 328.025600
   2992   2981   2993     1   109.5600471 388.275200
   2994   2993   2996     1   108.7700466 392.459200
   2994   2993   2995     1   107.5800459 329.699200
   2995   2993   2996     1   108.7700466 392.459200
   2999   3001   3002     1   108.8800464 416.726400
   2999   3001   3004     1   108.8800464 416.726400
   3000   2999   3001     1   117.6800502 383.254400
   3001   3003   3005     1   109.5600471 388.275200
   3001   3003   3006     1   109.5600471 388.275200
   3002   3001   3003     1   109.5600471 388.275200
   3002   3001   3004     1   108.4600466 328.025600
   3003   3001   3004     1   109.5600471 388.275200
   3005   3003   3007     1   109.8800469 414.216000
   3005   3003   3006     1   108.4600466 328.025600
   3006   3003   3007     1   109.8800469 414.216000
   3007   3008   3018     1   109.8800469 414.216000
   3007   3008   3019     1   109.8800469 414.216000
   3007   3009   3010     1   109.8800469 414.216000
   3007   3009   3012     1   109.8800469 414.216000
   3008   3020   3021     1   109.8000471 387.438400
   3008   3020   3022     1   109.8000471 387.438400
   3009   3011   3013     1   109.8000471 387.438400
   3009   3011   3014     1   109.8000471 387.438400
   3010   3009   3011     1   109.5600471 388.275200
   3010   3009   3012     1   108.4600466 328.025600
   3011   3009   3012     1   109.5600471 388.275200
   3013   3011   3015     1   108.7700466 392.459200
   3013   3011   3014     1   107.5800459 329.699200
   3014   3011   3015     1   108.7700466 392.459200
   3018   3008   3020     1   109.5600471 388.275200
   3018   3008   3019     1   108.4600466 328.025600
   3019   3008   3020     1   109.5600471 388.275200
   3021   3020   3023     1   108.7700466 392.459200
   3021   3020   3022     1   107.5800459 329.699200
   3022   3020   3023     1   108.7700466 392.459200
   3026   3028   3029     1   108.8800464 416.726400
   3026   3028   3031     1   108.8800464 416.726400
   3027   3026   3028     1   117.6800502 383.254400
   3028   3030   3032     1   109.5600471 388.275200
   3028   3030   3033     1   109.5600471 388.275200
   3029   3028   3030     1   109.5600471 388.275200
   3029   3028   3031     1   108.4600466 328.025600
   3030   3028   3031     1   109.5600471 388.275200
   3032   3030   3034     1   109.8800469 414.216000
   3032   3030   3033     1   108.4600466 328.025600
   3033   3030   3034     1   109.8800469 414.216000
   3034   3035   3045     1   109.8800469 414.216000
   3034   3035   3046     1   109.8800469 414.216000
   3034   3036   3037     1   109.8800469 414.216000
   3034   3036   3039     1   109.8800469 414.216000
   3035   3047   3048     1   109.8000471 387.438400
   3035   3047   3049     1   109.8000471 387.438400
   3036   3038   3040     1   109.8000471 387.438400
   3036   3038   3041     1   109.8000471 387.438400
   3037   3036   3038     1   109.5600471 388.275200
   3037   3036   3039     1   108.4600466 328.025600
   3038   3036   3039     1   109.5600471 388.275200
   3040   3038   3042     1   108.7700466 392.459200
   3040   3038   3041     1   107.5800459 329.699200
   3041   3038   3042     1   108.7700466 392.459200
   3045   3035   3047     1   109.5600471 388.275200
   3045   3035   3046     1   108.4600466 328.025600
   3046   3035   3047     1   109.5600471 388.275200
   3048   3047   3050     1   108.7700466 392.459200
   3048   3047   3049     1   107.5800459 329.699200
   3049   3047   3050     1   108.7700466 392.459200
   3053   3055   3056     1   108.8800464 416.726400
   3053   3055   3058     1   108.8800464 416.726400
   3054   3053   3055     1   117.6800502 383.254400
   3055   3057   3059     1   109.5600471 388.275200
   3055   3057   3060     1   109.5600471 388.275200
   3056   3055   3057     1   109.5600471 388.275200
   3056   3055   3058     1   108.4600466 328.025600
   3057   3055   3058     1   109.5600471 388.275200
   3059   3057   3061     1   109.8800469 414.216000
   3059   3057   3060     1   108.4600466 328.025600
   3060   3057   3061     1   109.8800469 414.216000
   3061   3062   3072     1   109.8800469 414.216000
   3061   3062   3073     1   109.8800469 414.216000
   3061   3063   3064     1   109.8800469 414.216000
   3061   3063   3066     1   109.8800469 414.216000
   3062   3074   3075     1   109.8000471 387.438400
   3062   3074   3076     1   109.8000471 387.438400
   3063   3065   3067     1   109.8000471 387.438400
   3063   3065   3068     1   109.8000471 387.438400
   3064   3063   3065     1   109.5600471 388.275200
   3064   3063   3066     1   108.4600466 328.025600
   3065   3063   3066     1   109.5600471 388.275200
   3067   3065   3069     1   108.7700466 392.459200
   3067   3065   3068     1   107.5800459 329.699200
   3068   3065   3069     1   108.7700466 392.459200
   3072   3062   3074     1   109.5600471 388.275200
   3072   3062   3073     1   108.4600466 328.025600
   3073   3062   3074     1   109.5600471 388.275200
   3075   3074   3077     1   108.7700466 392.459200
   3075   3074   3076     1   107.5800459 329.699200
   3076   3074   3077     1   108.7700466 392.459200
   3080   3082   3083     1   108.8800464 416.726400
   3080   3082   3085     1   108.8800464 416.726400
   3081   3080   3082     1   117.6800502 383.254400
   3082   3084   3086     1   109.5600471 388.275200
   3082   3084   3087     1   109.5600471 388.275200
   3083   3082   3084     1   109.5600471 388.275200
   3083   3082   3085     1   108.4600466 328.025600
   3084   3082   3085     1   109.5600471 388.275200
   3086   3084   3088     1   109.8800469 414.216000
   3086   3084   3087     1   108.4600466 328.025600
   3087   3084   3088     1   109.8800469 414.216000
   3088   3089   3099     1   109.8800469 414.216000
   3088   3089   3100     1   109.8800469 414.216000
   3088   3090   3091     1   109.8800469 414.216000
   3088   3090   3093     1   109.8800469 414.216000
   3089   3101   3102     1   109.8000471 387.438400
   3089   3101   3103     1   109.8000471 387.438400
   3090   3092   3094     1   109.8000471 387.438400
   3090   3092   3095     1   109.8000471 387.438400
   3091   3090   3092     1   109.5600471 388.275200
   3091   3090   3093     1   108.4600466 328.025600
   3092   3090   3093     1   109.5600471 388.275200
   3094   3092   3096     1   108.7700466 392.459200
   3094   3092   3095     1   107.5800459 329.699200
   3095   3092   3096     1   108.7700466 392.459200
   3099   3089   3101     1   109.5600471 388.275200
   3099   3089   3100     1   108.4600466 328.025600
   3100   3089   3101     1   109.5600471 388.275200
   3102   3101   3104     1   108.7700466 392.459200
   3102   3101   3103     1   107.5800459 329.699200
   3103   3101   3104     1   108.7700466 392.459200
   3107   3109   3110     1   108.8800464 416.726400
   3107   3109   3112     1   108.8800464 416.726400
   3108   3107   3109     1   117.6800502 383.254400
   3109   3111   3113     1   109.5600471 388.275200
   3109   3111   3114     1   109.5600471 388.275200
   3110   3109   3111     1   109.5600471 388.275200
   3110   3109   3112     1   108.4600466 328.025600
   3111   3109   3112     1   109.5600471 388.275200
   3113   3111   3115     1   109.8800469 414.216000
   3113   3111   3114     1   108.4600466 328.025600
   3114   3111   3115     1   109.8800469 414.216000
   3115   3116   3126     1   109.8800469 414.216000
   3115   3116   3127     1   109.8800469 414.216000
   3115   3117   3118     1   109.8800469 414.216000
   3115   3117   3120     1   109.8800469 414.216000
   3116   3128   3129     1   109.8000471 387.438400
   3116   3128   3130     1   109.8000471 387.438400
   3117   3119   3121     1   109.8000471 387.438400
   3117   3119   3122     1   109.8000471 387.438400
   3118   3117   3119     1   109.5600471 388.275200
   3118   3117   3120     1   108.4600466 328.025600
   3119   3117   3120     1   109.5600471 388.275200
   3121   3119   3123     1   108.7700466 392.459200
   3121   3119   3122     1   107.5800459 329.699200
   3122   3119   3123     1   108.7700466 392.459200
   3126   3116   3128     1   109.5600471 388.275200
   3126   3116   3127     1   108.4600466 328.025600
   3127   3116   3128     1   109.5600471 388.275200
   3129   3128   3131     1   108.7700466 392.459200
   3129   3128   3130     1   107.5800459 329.699200
   3130   3128   3131     1   108.7700466 392.459200
   3134   3136   3137     1   108.8800464 416.726400
   3134   3136   3139     1   108.8800464 416.726400
   3135   3134   3136     1   117.6800502 383.254400
   3136   3138   3140     1   109.5600471 388.275200
   3136   3138   3141     1   109.5600471 388.275200
   3137   3136   3138     1   109.5600471 388.275200
   3137   3136   3139     1   108.4600466 328.025600
   3138   3136   3139     1   109.5600471 388.275200
   3140   3138   3142     1   109.8800469 414.216000
   3140   3138   3141     1   108.4600466 328.025600
   3141   3138   3142     1   109.8800469 414.216000
   3142   3143   3153     1   109.8800469 414.216000
   3142   3143   3154     1   109.8800469 414.216000
   3142   3144   3145     1   109.8800469 414.216000
   3142   3144   3147     1   109.8800469 414.216000
   3143   3155   3156     1   109.8000471 387.438400
   3143   3155   3157     1   109.8000471 387.438400
   3144   3146   3148     1   109.8000471 387.438400
   3144   3146   3149     1   109.8000471 387.438400
   3145   3144   3146     1   109.5600471 388.275200
   3145   3144   3147     1   108.4600466 328.025600
   3146   3144   3147     1   109.5600471 388.275200
   3148   3146   3150     1   108.7700466 392.459200
   3148   3146   3149     1   107.5800459 329.699200
   3149   3146   3150     1   108.7700466 392.459200
   3153   3143   3155     1   109.5600471 388.275200
   3153   3143   3154     1   108.4600466 328.025600
   3154   3143   3155     1   109.5600471 388.275200
   3156   3155   3158     1   108.7700466 392.459200
   3156   3155   3157     1   107.5800459 329.699200
   3157   3155   3158     1   108.7700466 392.459200
   3161   3163   3164     1   108.8800464 416.726400
   3161   3163   3166     1   108.8800464 416.726400
   3162   3161   3163     1   117.6800502 383.254400
   3163   3165   3167     1   109.5600471 388.275200
   3163   3165   3168     1   109.5600471 388.275200
   3164   3163   3165     1   109.5600471 388.275200
   3164   3163   3166     1   108.4600466 328.025600
   3165   3163   3166     1   109.5600471 388.275200
   3167   3165   3169     1   109.8800469 414.216000
   3167   3165   3168     1   108.4600466 328.025600
   3168   3165   3169     1   109.8800469 414.216000
   3169   3170   3180     1   109.8800469 414.216000
   3169   3170   3181     1   109.8800469 414.216000
   3169   3171   3172     1   109.8800469 414.216000
   3169   3171   3174     1   109.8800469 414.216000
   3170   3182   3183     1   109.8000471 387.438400
   3170   3182   3184     1   109.8000471 387.438400
   3171   3173   3175     1   109.8000471 387.438400
   3171   3173   3176     1   109.8000471 387.438400
   3172   3171   3173     1   109.5600471 388.275200
   3172   3171   3174     1   108.4600466 328.025600
   3173   3171   3174     1   109.5600471 388.275200
   3175   3173   3177     1   108.7700466 392.459200
   3175   3173   3176     1   107.5800459 329.699200
   3176   3173   3177     1   108.7700466 392.459200
   3180   3170   3182     1   109.5600471 388.275200
   3180   3170   3181     1   108.4600466 328.025600
   3181   3170   3182     1   109.5600471 388.275200
   3183   3182   3185     1   108.7700466 392.459200
   3183   3182   3184     1   107.5800459 329.699200
   3184   3182   3185     1   108.7700466 392.459200
   3188   3190   3191     1   108.8800464 416.726400
   3188   3190   3193     1   108.8800464 416.726400
   3189   3188   3190     1   117.6800502 383.254400
   3190   3192   3194     1   109.5600471 388.275200
   3190   3192   3195     1   109.5600471 388.275200
   3191   3190   3192     1   109.5600471 388.275200
   3191   3190   3193     1   108.4600466 328.025600
   3192   3190   3193     1   109.5600471 388.275200
   3194   3192   3196     1   109.8800469 414.216000
   3194   3192   3195     1   108.4600466 328.025600
   3195   3192   3196     1   109.8800469 414.216000
   3196   3197   3207     1   109.8800469 414.216000
   3196   3197   3208     1   109.8800469 414.216000
   3196   3198   3199     1   109.8800469 414.216000
   3196   3198   3201     1   109.8800469 414.216000
   3197   3209   3210     1   109.8000471 387.438400
   3197   3209   3211     1   109.8000471 387.438400
   3198   3200   3202     1   109.8000471 387.438400
   3198   3200   3203     1   109.8000471 387.438400
   3199   3198   3200     1   109.5600471 388.275200
   3199   3198   3201     1   108.4600466 328.025600
   3200   3198   3201     1   109.5600471 388.275200
   3202   3200   3204     1   108.7700466 392.459200
   3202   3200   3203     1   107.5800459 329.699200
   3203   3200   3204     1   108.7700466 392.459200
   3207   3197   3209     1   109.5600471 388.275200
   3207   3197   3208     1   108.4600466 328.025600
   3208   3197   3209     1   109.5600471 388.275200
   3210   3209   3212     1   108.7700466 392.459200
   3210   3209   3211     1   107.5800459 329.699200
   3211   3209   3212     1   108.7700466 392.459200
   3215   3217   3218     1   108.8800464 416.726400
   3215   3217   3220     1   108.8800464 416.726400
   3216   3215   3217     1   117.6800502 383.254400
   3217   3219   3221     1   109.5600471 388.275200
   3217   3219   3222     1   109.5600471 388.275200
   3218   3217   3219     1   109.5600471 388.275200
   3218   3217   3220     1   108.4600466 328.025600
   3219   3217   3220     1   109.5600471 388.275200
   3221   3219   3223     1   109.8800469 414.216000
   3221   3219   3222     1   108.4600466 328.025600
   3222   3219   3223     1   109.8800469 414.216000
   3223   3224   3234     1   109.8800469 414.216000
   3223   3224   3235     1   109.8800469 414.216000
   3223   3225   3226     1   109.8800469 414.216000
   3223   3225   3228     1   109.8800469 414.216000
   3224   3236   3237     1   109.8000471 387.438400
   3224   3236   3238     1   109.8000471 387.438400
   3225   3227   3229     1   109.8000471 387.438400
   3225   3227   3230     1   109.8000471 387.438400
   3226   3225   3227     1   109.5600471 388.275200
   3226   3225   3228     1   108.4600466 328.025600
   3227   3225   3228     1   109.5600471 388.275200
   3229   3227   3231     1   108.7700466 392.459200
   3229   3227   3230     1   107.5800459 329.699200
   3230   3227   3231     1   108.7700466 392.459200
   3234   3224   3236     1   109.5600471 388.275200
   3234   3224   3235     1   108.4600466 328.025600
   3235   3224   3236     1   109.5600471 388.275200
   3237   3236   3239     1   108.7700466 392.459200
   3237   3236   3238     1   107.5800459 329.699200
   3238   3236   3239     1   108.7700466 392.459200
   3242   3244   3245     1   108.8800464 416.726400
   3242   3244   3247     1   108.8800464 416.726400
   3243   3242   3244     1   117.6800502 383.254400
   3244   3246   3248     1   109.5600471 388.275200
   3244   3246   3249     1   109.5600471 388.275200
   3245   3244   3246     1   109.5600471 388.275200
   3245   3244   3247     1   108.4600466 328.025600
   3246   3244   3247     1   109.5600471 388.275200
   3248   3246   3250     1   109.8800469 414.216000
   3248   3246   3249     1   108.4600466 328.025600
   3249   3246   3250     1   109.8800469 414.216000
   3250   3251   3261     1   109.8800469 414.216000
   3250   3251   3262     1   109.8800469 414.216000
   3250   3252   3253     1   109.8800469 414.216000
   3250   3252   3255     1   109.8800469 414.216000
   3251   3263   3264     1   109.8000471 387.438400
   3251   3263   3265     1   109.8000471 387.438400
   3252   3254   3256     1   109.8000471 387.438400
   3252   3254   3257     1   109.8000471 387.438400
   3253   3252   3254     1   109.5600471 388.275200
   3253   3252   3255     1   108.4600466 328.025600
   3254   3252   3255     1   109.5600471 388.275200
   3256   3254   3258     1   108.7700466 392.459200
   3256   3254   3257     1   107.5800459 329.699200
   3257   3254   3258     1   108.7700466 392.459200
   3261   3251   3263     1   109.5600471 388.275200
   3261   3251   3262     1   108.4600466 328.025600
   3262   3251   3263     1   109.5600471 388.275200
   3264   3263   3266     1   108.7700466 392.459200
   3264   3263   3265     1   107.5800459 329.699200
   3265   3263   3266     1   108.7700466 392.459200

[ dihedrals ]
;    ai     aj     ak     al funct         c0         c1         c2         c3         c4         c5
      1      4      7     15     1  180.0000771  2.0083200  2
      1      4      7     15     1  0.0000000  1.2552000  3
      1      4      7     18     1  180.0000771  2.0083200  2
      1      4      7     18     1  0.0000000  1.2552000  3
      1      8      9     30     1  180.0000771  2.0083200  2
      1      8      9     30     1  0.0000000  1.2552000  3
      1      8     12     27     1  180.0000771  2.0083200  2
      1      8     12     27     1  0.0000000  1.2552000  3
      4      1      8      9     1  180.0000771  2.0083200  2
      4      1      8      9     1  0.0000000  1.2552000  3
      4      1      8     12     1  180.0000771  2.0083200  2
      4      1      8     12     1  0.0000000  1.2552000  3
      4      7     15     21     1  180.0000771  2.0083200  2
      4      7     15     21     1  0.0000000  1.2552000  3
      4      7     18     24     1  180.0000771  2.0083200  2
      4      7     18     24     1  0.0000000  1.2552000  3
      8      1      4      7     1  0.0000000  0.6508444  3
      7     15     21     35     1  0.0000000  0.6508444  3
      7     18     24     36     1  0.0000000  0.6508444  3
      8      9     30     34     1  0.0000000  0.6508444  3
      8     12     27     33     1  0.0000000  0.6508444  3
      9      8     12     27     1  180.0000771  2.0083200  2
      9      8     12     27     1  0.0000000  1.2552000  3
      9     30     34     40     1  180.0000771  0.0000000  2
      9     30     34     89     1  0.0000000  0.2928800  2
      9     30     34     89     1  0.0000000  0.4184000  4
     12      8      9     30     1  180.0000771  2.0083200  2
     12      8      9     30     1  0.0000000  1.2552000  3
     12     27     33     37     1  180.0000771  0.0000000  2
     12     27     33     64     1  0.0000000  0.2928800  2
     12     27     33     64     1  0.0000000  0.4184000  4
     15      7     18     24     1  180.0000771  2.0083200  2
     15      7     18     24     1  0.0000000  1.2552000  3
     15     21     35     38     1  180.0000771  0.0000000  2
     15     21     35    114     1  0.0000000  0.2928800  2
     15     21     35    114     1  0.0000000  0.4184000  4
     18      7     15     21     1  180.0000771  2.0083200  2
     18      7     15     21     1  0.0000000  1.2552000  3
     18     24     36     39     1  180.0000771  0.0000000  2
     18     24     36    139     1  0.0000000  0.2928800  2
     18     24     36    139     1  0.0000000  0.4184000  4
     21     35    114     94     1  180.0000771  6.2760000  1
     21     35    114     94     1  0.0000000  0.0000000  2
     24     36    139    119     1  180.0000771  6.2760000  1
     24     36    139    119     1  0.0000000  0.0000000  2
     27     33     64     44     1  180.0000771  6.2760000  1
     27     33     64     44     1  0.0000000  0.0000000  2
     30     34     89     69     1  180.0000771  6.2760000  1
     30     34     89     69     1  0.0000000  0.0000000  2
     33     64     44     41     1  0.0000000  2.2175200  1
     33     64     44     41     1  0.0000000  0.0000000  2
     33     64     44     41     1  180.0000771  0.6276000  3
     33     64     44     41     1  180.0000771  2.0920000  4
     34     89     69     66     1  0.0000000  2.2175200  1
     34     89     69     66     1  0.0000000  0.0000000  2
     34     89     69     66     1  180.0000771  0.6276000  3
     34     89     69     66     1  180.0000771  2.0920000  4
     35    114     94     91     1  0.0000000  2.2175200  1
     35    114     94     91     1  0.0000000  0.0000000  2
     35    114     94     91     1  180.0000771  0.6276000  3
     35    114     94     91     1  180.0000771  2.0920000  4
     36    139    119    116     1  0.0000000  2.2175200  1
     36    139    119    116     1  0.0000000  0.0000000  2
     36    139    119    116     1  180.0000771  0.6276000  3
     36    139    119    116     1  180.0000771  2.0920000  4
     37     33     64     44     1  180.0000771  10.4600000  2
     38     35    114     94     1  180.0000771  10.4600000  2
     39     36    139    119     1  180.0000771  10.4600000  2
     40     34     89     69     1  180.0000771  10.4600000  2
     41     47     48     57     1  180.0000771  2.0083200  2
     41     47     48     57     1  0.0000000  1.2552000  3
     41     47     51     54     1  180.0000771  2.0083200  2
     41     47     51     54     1  0.0000000  1.2552000  3
     44     41     47     48     1  180.0000771  2.0083200  2
     44     41     47     48     1  0.0000000  1.2552000  3
     44     41     47     51     1  180.0000771  2.0083200  2
     44     41     47     51     1  0.0000000  1.2552000  3
     47     41     44     64     1  0.0000000  0.6508444  3
     47     48     57     61     1  0.0000000  0.6508444  3
     47     51     54     60     1  0.0000000  0.6508444  3
     48     47     51     54     1  180.0000771  2.0083200  2
     48     47     51     54     1  0.0000000  1.2552000  3
     48     57     61     63     1  180.0000771  0.0000000  2
     48     57     61    189     1  0.0000000  0.2928800  2
     48     57     61    189     1  0.0000000  0.4184000  4
     51     47     48     57     1  180.0000771  2.0083200  2
     51     47     48     57     1  0.0000000  1.2552000  3
     51     54     60     62     1  180.0000771  0.0000000  2
     51     54     60    164     1  0.0000000  0.2928800  2
     51     54     60    164     1  0.0000000  0.4184000  4
     54     60    164    144     1  180.0000771  6.2760000  1
     54     60    164    144     1  0.0000000  0.0000000  2
     57     61    189    169     1  180.0000771  6.2760000  1
     57     61    189    169     1  0.0000000  0.0000000  2
     60    164    144    141     1  0.0000000  2.2175200  1
     60    164    144    141     1  0.0000000  0.0000000  2
     60    164    144    141     1  180.0000771  0.6276000  3
     60    164    144    141     1  180.0000771  2.0920000  4
     61    189    169    166     1  0.0000000  2.2175200  1
     61    189    169    166     1  0.0000000  0.0000000  2
     61    189    169    166     1  180.0000771  0.6276000  3
     61    189    169    166     1  180.0000771  2.0920000  4
     62     60    164    144     1  180.0000771  10.4600000  2
     63     61    189    169     1  180.0000771  10.4600000  2
     66     72     73     82     1  180.0000771  2.0083200  2
     66     72     73     82     1  0.0000000  1.2552000  3
     66     72     76     79     1  180.0000771  2.0083200  2
     66     72     76     79     1  0.0000000  1.2552000  3
     69     66     72     73     1  180.0000771  2.0083200  2
     69     66     72     73     1  0.0000000  1.2552000  3
     69     66     72     76     1  180.0000771  2.0083200  2
     69     66     72     76     1  0.0000000  1.2552000  3
     72     66     69     89     1  0.0000000  0.6508444  3
     72     73     82     86     1  0.0000000  0.6508444  3
     72     76     79     85     1  0.0000000  0.6508444  3
     73     72     76     79     1  180.0000771  2.0083200  2
     73     72     76     79     1  0.0000000  1.2552000  3
     73     82     86     88     1  180.0000771  0.0000000  2
     73     82     86    239     1  0.0000000  0.2928800  2
     73     82     86    239     1  0.0000000  0.4184000  4
     76     72     73     82     1  180.0000771  2.0083200  2
     76     72     73     82     1  0.0000000  1.2552000  3
     76     79     85     87     1  180.0000771  0.0000000  2
     76     79     85    214     1  0.0000000  0.2928800  2
     76     79     85    214     1  0.0000000  0.4184000  4
     79     85    214    194     1  180.0000771  6.2760000  1
     79     85    214    194     1  0.0000000  0.0000000  2
     82     86    239    219     1  180.0000771  6.2760000  1
     82     86    239    219     1  0.0000000  0.0000000  2
     85    214    194    191     1  0.0000000  2.2175200  1
     85    214    194    191     1  0.0000000  0.0000000  2
     85    214    194    191     1  180.0000771  0.6276000  3
     85    214    194    191     1  180.0000771  2.0920000  4
     86    239    219    216     1  0.0000000  2.2175200  1
     86    239    219    216     1  0.0000000  0.0000000  2
     86    239    219    216     1  180.0000771  0.6276000  3
     86    239    219    216     1  180.0000771  2.0920000  4
     87     85    214    194     1  180.0000771  10.4600000  2
     88     86    239    219     1  180.0000771  10.4600000  2
     91     97     98    107     1  180.0000771  2.0083200  2
     91     97     98    107     1  0.0000000  1.2552000  3
     91     97    101    104     1  180.0000771  2.0083200  2
     91     97    101    104     1  0.0000000  1.2552000  3
     94     91     97     98     1  180.0000771  2.0083200  2
     94     91     97     98     1  0.0000000  1.2552000  3
     94     91     97    101     1  180.0000771  2.0083200  2
     94     91     97    101     1  0.0000000  1.2552000  3
     97     91     94    114     1  0.0000000  0.6508444  3
     97     98    107    111     1  0.0000000  0.6508444  3
     97    101    104    110     1  0.0000000  0.6508444  3
     98     97    101    104     1  180.0000771  2.0083200  2
     98     97    101    104     1  0.0000000  1.2552000  3
     98    107    111    113     1  180.0000771  0.0000000  2
     98    107    111    289     1  0.0000000  0.2928800  2
     98    107    111    289     1  0.0000000  0.4184000  4
    101     97     98    107     1  180.0000771  2.0083200  2
    101     97     98    107     1  0.0000000  1.2552000  3
    101    104    110    112     1  180.0000771  0.0000000  2
    101    104    110    264     1  0.0000000  0.2928800  2
    101    104    110    264     1  0.0000000  0.4184000  4
    104    110    264    244     1  180.0000771  6.2760000  1
    104    110    264    244     1  0.0000000  0.0000000  2
    107    111    289    269     1  180.0000771  6.2760000  1
    107    111    289    269     1  0.0000000  0.0000000  2
    110    264    244    241     1  0.0000000  2.2175200  1
    110    264    244    241     1  0.0000000  0.0000000  2
    110    264    244    241     1  180.0000771  0.6276000  3
    110    264    244    241     1  180.0000771  2.0920000  4
    111    289    269    266     1  0.0000000  2.2175200  1
    111    289    269    266     1  0.0000000  0.0000000  2
    111    289    269    266     1  180.0000771  0.6276000  3
    111    289    269    266     1  180.0000771  2.0920000  4
    112    110    264    244     1  180.0000771  10.4600000  2
    113    111    289    269     1  180.0000771  10.4600000  2
    116    122    123    132     1  180.0000771  2.0083200  2
    116    122    123    132     1  0.0000000  1.2552000  3
    116    122    126    129     1  180.0000771  2.0083200  2
    116    122    126    129     1  0.0000000  1.2552000  3
    119    116    122    123     1  180.0000771  2.0083200  2
    119    116    122    123     1  0.0000000  1.2552000  3
    119    116    122    126     1  180.0000771  2.0083200  2
    119    116    122    126     1  0.0000000  1.2552000  3
    122    116    119    139     1  0.0000000  0.6508444  3
    122    123    132    136     1  0.0000000  0.6508444  3
    122    126    129    135     1  0.0000000  0.6508444  3
    123    122    126    129     1  180.0000771  2.0083200  2
    123    122    126    129     1  0.0000000  1.2552000  3
    123    132    136    138     1  180.0000771  0.0000000  2
    123    132    136    339     1  0.0000000  0.2928800  2
    123    132    136    339     1  0.0000000  0.4184000  4
    126    122    123    132     1  180.0000771  2.0083200  2
    126    122    123    132     1  0.0000000  1.2552000  3
    126    129    135    137     1  180.0000771  0.0000000  2
    126    129    135    314     1  0.0000000  0.2928800  2
    126    129    135    314     1  0.0000000  0.4184000  4
    129    135    314    294     1  180.0000771  6.2760000  1
    129    135    314    294     1  0.0000000  0.0000000  2
    132    136    339    319     1  180.0000771  6.2760000  1
    132    136    339    319     1  0.0000000  0.0000000  2
    135    314    294    291     1  0.0000000  2.2175200  1
    135    314    294    291     1  0.0000000  0.0000000  2
    135    314    294    291     1  180.0000771  0.6276000  3
    135    314    294    291     1  180.0000771  2.0920000  4
    136    339    319    316     1  0.0000000  2.2175200  1
    136    339    319    316     1  0.0000000  0.0000000  2
    136    339    319    316     1  180.0000771  0.6276000  3
    136    339    319    316     1  180.0000771  2.0920000  4
    137    135    314    294     1  180.0000771  10.4600000  2
    138    136    339    319     1  180.0000771  10.4600000  2
    141    147    148    157     1  180.0000771  2.0083200  2
    141    147    148    157     1  0.0000000  1.2552000  3
    141    147    151    154     1  180.0000771  2.0083200  2
    141    147    151    154     1  0.0000000  1.2552000  3
    144    141    147    148     1  180.0000771  2.0083200  2
    144    141    147    148     1  0.0000000  1.2552000  3
    144    141    147    151     1  180.0000771  2.0083200  2
    144    141    147    151     1  0.0000000  1.2552000  3
    147    141    144    164     1  0.0000000  0.6508444  3
    147    148    157    161     1  0.0000000  0.6508444  3
    147    151    154    160     1  0.0000000  0.6508444  3
    148    147    151    154     1  180.0000771  2.0083200  2
    148    147    151    154     1  0.0000000  1.2552000  3
    148    157    161    163     1  180.0000771  0.0000000  2
    148    157    161    389     1  0.0000000  0.2928800  2
    148    157    161    389     1  0.0000000  0.4184000  4
    151    147    148    157     1  180.0000771  2.0083200  2
    151    147    148    157     1  0.0000000  1.2552000  3
    151    154    160    162     1  180.0000771  0.0000000  2
    151    154    160    364     1  0.0000000  0.2928800  2
    151    154    160    364     1  0.0000000  0.4184000  4
    154    160    364    344     1  180.0000771  6.2760000  1
    154    160    364    344     1  0.0000000  0.0000000  2
    157    161    389    369     1  180.0000771  6.2760000  1
    157    161    389    369     1  0.0000000  0.0000000  2
    160    364    344    341     1  0.0000000  2.2175200  1
    160    364    344    341     1  0.0000000  0.0000000  2
    160    364    344    341     1  180.0000771  0.6276000  3
    160    364    344    341     1  180.0000771  2.0920000  4
    161    389    369    366     1  0.0000000  2.2175200  1
    161    389    369    366     1  0.0000000  0.0000000  2
    161    389    369    366     1  180.0000771  0.6276000  3
    161    389    369    366     1  180.0000771  2.0920000  4
    162    160    364    344     1  180.0000771  10.4600000  2
    163    161    389    369     1  180.0000771  10.4600000  2
    166    172    173    182     1  180.0000771  2.0083200  2
    166    172    173    182     1  0.0000000  1.2552000  3
    166    172    176    179     1  180.0000771  2.0083200  2
    166    172    176    179     1  0.0000000  1.2552000  3
    169    166    172    173     1  180.0000771  2.0083200  2
    169    166    172    173     1  0.0000000  1.2552000  3
    169    166    172    176     1  180.0000771  2.0083200  2
    169    166    172    176     1  0.0000000  1.2552000  3
    172    166    169    189     1  0.0000000  0.6508444  3
    172    173    182    186     1  0.0000000  0.6508444  3
    172    176    179    185     1  0.0000000  0.6508444  3
    173    172    176    179     1  180.0000771  2.0083200  2
    173    172    176    179     1  0.0000000  1.2552000  3
    173    182    186    188     1  180.0000771  0.0000000  2
    173    182    186    439     1  0.0000000  0.2928800  2
    173    182    186    439     1  0.0000000  0.4184000  4
    176    172    173    182     1  180.0000771  2.0083200  2
    176    172    173    182     1  0.0000000  1.2552000  3
    176    179    185    187     1  180.0000771  0.0000000  2
    176    179    185    414     1  0.0000000  0.2928800  2
    176    179    185    414     1  0.0000000  0.4184000  4
    179    185    414    394     1  180.0000771  6.2760000  1
    179    185    414    394     1  0.0000000  0.0000000  2
    182    186    439    419     1  180.0000771  6.2760000  1
    182    186    439    419     1  0.0000000  0.0000000  2
    185    414    394    391     1  0.0000000  2.2175200  1
    185    414    394    391     1  0.0000000  0.0000000  2
    185    414    394    391     1  180.0000771  0.6276000  3
    185    414    394    391     1  180.0000771  2.0920000  4
    186    439    419    416     1  0.0000000  2.2175200  1
    186    439    419    416     1  0.0000000  0.0000000  2
    186    439    419    416     1  180.0000771  0.6276000  3
    186    439    419    416     1  180.0000771  2.0920000  4
    187    185    414    394     1  180.0000771  10.4600000  2
    188    186    439    419     1  180.0000771  10.4600000  2
    191    197    198    207     1  180.0000771  2.0083200  2
    191    197    198    207     1  0.0000000  1.2552000  3
    191    197    201    204     1  180.0000771  2.0083200  2
    191    197    201    204     1  0.0000000  1.2552000  3
    194    191    197    198     1  180.0000771  2.0083200  2
    194    191    197    198     1  0.0000000  1.2552000  3
    194    191    197    201     1  180.0000771  2.0083200  2
    194    191    197    201     1  0.0000000  1.2552000  3
    197    191    194    214     1  0.0000000  0.6508444  3
    197    198    207    211     1  0.0000000  0.6508444  3
    197    201    204    210     1  0.0000000  0.6508444  3
    198    197    201    204     1  180.0000771  2.0083200  2
    198    197    201    204     1  0.0000000  1.2552000  3
    198    207    211    213     1  180.0000771  0.0000000  2
    198    207    211    489     1  0.0000000  0.2928800  2
    198    207    211    489     1  0.0000000  0.4184000  4
    201    197    198    207     1  180.0000771  2.0083200  2
    201    197    198    207     1  0.0000000  1.2552000  3
    201    204    210    212     1  180.0000771  0.0000000  2
    201    204    210    464     1  0.0000000  0.2928800  2
    201    204    210    464     1  0.0000000  0.4184000  4
    204    210    464    444     1  180.0000771  6.2760000  1
    204    210    464    444     1  0.0000000  0.0000000  2
    207    211    489    469     1  180.0000771  6.2760000  1
    207    211    489    469     1  0.0000000  0.0000000  2
    210    464    444    441     1  0.0000000  2.2175200  1
    210    464    444    441     1  0.0000000  0.0000000  2
    210    464    444    441     1  180.0000771  0.6276000  3
    210    464    444    441     1  180.0000771  2.0920000  4
    211    489    469    466     1  0.0000000  2.2175200  1
    211    489    469    466     1  0.0000000  0.0000000  2
    211    489    469    466     1  180.0000771  0.6276000  3
    211    489    469    466     1  180.0000771  2.0920000  4
    212    210    464    444     1  180.0000771  10.4600000  2
    213    211    489    469     1  180.0000771  10.4600000  2
    216    222    223    232     1  180.0000771  2.0083200  2
    216    222    223    232     1  0.0000000  1.2552000  3
    216    222    226    229     1  180.0000771  2.0083200  2
    216    222    226    229     1  0.0000000  1.2552000  3
    219    216    222    223     1  180.0000771  2.0083200  2
    219    216    222    223     1  0.0000000  1.2552000  3
    219    216    222    226     1  180.0000771  2.0083200  2
    219    216    222    226     1  0.0000000  1.2552000  3
    222    216    219    239     1  0.0000000  0.6508444  3
    222    223    232    236     1  0.0000000  0.6508444  3
    222    226    229    235     1  0.0000000  0.6508444  3
    223    222    226    229     1  180.0000771  2.0083200  2
    223    222    226    229     1  0.0000000  1.2552000  3
    223    232    236    238     1  180.0000771  0.0000000  2
    223    232    236    539     1  0.0000000  0.2928800  2
    223    232    236    539     1  0.0000000  0.4184000  4
    226    222    223    232     1  180.0000771  2.0083200  2
    226    222    223    232     1  0.0000000  1.2552000  3
    226    229    235    237     1  180.0000771  0.0000000  2
    226    229    235    514     1  0.0000000  0.2928800  2
    226    229    235    514     1  0.0000000  0.4184000  4
    229    235    514    494     1  180.0000771  6.2760000  1
    229    235    514    494     1  0.0000000  0.0000000  2
    232    236    539    519     1  180.0000771  6.2760000  1
    232    236    539    519     1  0.0000000  0.0000000  2
    235    514    494    491     1  0.0000000  2.2175200  1
    235    514    494    491     1  0.0000000  0.0000000  2
    235    514    494    491     1  180.0000771  0.6276000  3
    235    514    494    491     1  180.0000771  2.0920000  4
    236    539    519    516     1  0.0000000  2.2175200  1
    236    539    519    516     1  0.0000000  0.0000000  2
    236    539    519    516     1  180.0000771  0.6276000  3
    236    539    519    516     1  180.0000771  2.0920000  4
    237    235    514    494     1  180.0000771  10.4600000  2
    238    236    539    519     1  180.0000771  10.4600000  2
    241    247    248    257     1  180.0000771  2.0083200  2
    241    247    248    257     1  0.0000000  1.2552000  3
    241    247    251    254     1  180.0000771  2.0083200  2
    241    247    251    254     1  0.0000000  1.2552000  3
    244    241    247    248     1  180.0000771  2.0083200  2
    244    241    247    248     1  0.0000000  1.2552000  3
    244    241    247    251     1  180.0000771  2.0083200  2
    244    241    247    251     1  0.0000000  1.2552000  3
    247    241    244    264     1  0.0000000  0.6508444  3
    247    248    257    261     1  0.0000000  0.6508444  3
    247    251    254    260     1  0.0000000  0.6508444  3
    248    247    251    254     1  180.0000771  2.0083200  2
    248    247    251    254     1  0.0000000  1.2552000  3
    248    257    261    263     1  180.0000771  0.0000000  2
    248    257    261    589     1  0.0000000  0.2928800  2
    248    257    261    589     1  0.0000000  0.4184000  4
    251    247    248    257     1  180.0000771  2.0083200  2
    251    247    248    257     1  0.0000000  1.2552000  3
    251    254    260    262     1  180.0000771  0.0000000  2
    251    254    260    564     1  0.0000000  0.2928800  2
    251    254    260    564     1  0.0000000  0.4184000  4
    254    260    564    544     1  180.0000771  6.2760000  1
    254    260    564    544     1  0.0000000  0.0000000  2
    257    261    589    569     1  180.0000771  6.2760000  1
    257    261    589    569     1  0.0000000  0.0000000  2
    260    564    544    541     1  0.0000000  2.2175200  1
    260    564    544    541     1  0.0000000  0.0000000  2
    260    564    544    541     1  180.0000771  0.6276000  3
    260    564    544    541     1  180.0000771  2.0920000  4
    261    589    569    566     1  0.0000000  2.2175200  1
    261    589    569    566     1  0.0000000  0.0000000  2
    261    589    569    566     1  180.0000771  0.6276000  3
    261    589    569    566     1  180.0000771  2.0920000  4
    262    260    564    544     1  180.0000771  10.4600000  2
    263    261    589    569     1  180.0000771  10.4600000  2
    266    272    273    282     1  180.0000771  2.0083200  2
    266    272    273    282     1  0.0000000  1.2552000  3
    266    272    276    279     1  180.0000771  2.0083200  2
    266    272    276    279     1  0.0000000  1.2552000  3
    269    266    272    273     1  180.0000771  2.0083200  2
    269    266    272    273     1  0.0000000  1.2552000  3
    269    266    272    276     1  180.0000771  2.0083200  2
    269    266    272    276     1  0.0000000  1.2552000  3
    272    266    269    289     1  0.0000000  0.6508444  3
    272    273    282    286     1  0.0000000  0.6508444  3
    272    276    279    285     1  0.0000000  0.6508444  3
    273    272    276    279     1  180.0000771  2.0083200  2
    273    272    276    279     1  0.0000000  1.2552000  3
    273    282    286    288     1  180.0000771  0.0000000  2
    273    282    286    639     1  0.0000000  0.2928800  2
    273    282    286    639     1  0.0000000  0.4184000  4
    276    272    273    282     1  180.0000771  2.0083200  2
    276    272    273    282     1  0.0000000  1.2552000  3
    276    279    285    287     1  180.0000771  0.0000000  2
    276    279    285    614     1  0.0000000  0.2928800  2
    276    279    285    614     1  0.0000000  0.4184000  4
    279    285    614    594     1  180.0000771  6.2760000  1
    279    285    614    594     1  0.0000000  0.0000000  2
    282    286    639    619     1  180.0000771  6.2760000  1
    282    286    639    619     1  0.0000000  0.0000000  2
    285    614    594    591     1  0.0000000  2.2175200  1
    285    614    594    591     1  0.0000000  0.0000000  2
    285    614    594    591     1  180.0000771  0.6276000  3
    285    614    594    591     1  180.0000771  2.0920000  4
    286    639    619    616     1  0.0000000  2.2175200  1
    286    639    619    616     1  0.0000000  0.0000000  2
    286    639    619    616     1  180.0000771  0.6276000  3
    286    639    619    616     1  180.0000771  2.0920000  4
    287    285    614    594     1  180.0000771  10.4600000  2
    288    286    639    619     1  180.0000771  10.4600000  2
    291    297    298    307     1  180.0000771  2.0083200  2
    291    297    298    307     1  0.0000000  1.2552000  3
    291    297    301    304     1  180.0000771  2.0083200  2
    291    297    301    304     1  0.0000000  1.2552000  3
    294    291    297    298     1  180.0000771  2.0083200  2
    294    291    297    298     1  0.0000000  1.2552000  3
    294    291    297    301     1  180.0000771  2.0083200  2
    294    291    297    301     1  0.0000000  1.2552000  3
    297    291    294    314     1  0.0000000  0.6508444  3
    297    298    307    311     1  0.0000000  0.6508444  3
    297    301    304    310     1  0.0000000  0.6508444  3
    298    297    301    304     1  180.0000771  2.0083200  2
    298    297    301    304     1  0.0000000  1.2552000  3
    298    307    311    313     1  180.0000771  0.0000000  2
    298    307    311    689     1  0.0000000  0.2928800  2
    298    307    311    689     1  0.0000000  0.4184000  4
    301    297    298    307     1  180.0000771  2.0083200  2
    301    297    298    307     1  0.0000000  1.2552000  3
    301    304    310    312     1  180.0000771  0.0000000  2
    301    304    310    664     1  0.0000000  0.2928800  2
    301    304    310    664     1  0.0000000  0.4184000  4
    304    310    664    644     1  180.0000771  6.2760000  1
    304    310    664    644     1  0.0000000  0.0000000  2
    307    311    689    669     1  180.0000771  6.2760000  1
    307    311    689    669     1  0.0000000  0.0000000  2
    310    664    644    641     1  0.0000000  2.2175200  1
    310    664    644    641     1  0.0000000  0.0000000  2
    310    664    644    641     1  180.0000771  0.6276000  3
    310    664    644    641     1  180.0000771  2.0920000  4
    311    689    669    666     1  0.0000000  2.2175200  1
    311    689    669    666     1  0.0000000  0.0000000  2
    311    689    669    666     1  180.0000771  0.6276000  3
    311    689    669    666     1  180.0000771  2.0920000  4
    312    310    664    644     1  180.0000771  10.4600000  2
    313    311    689    669     1  180.0000771  10.4600000  2
    316    322    323    332     1  180.0000771  2.0083200  2
    316    322    323    332     1  0.0000000  1.2552000  3
    316    322    326    329     1  180.0000771  2.0083200  2
    316    322    326    329     1  0.0000000  1.2552000  3
    319    316    322    323     1  180.0000771  2.0083200  2
    319    316    322    323     1  0.0000000  1.2552000  3
    319    316    322    326     1  180.0000771  2.0083200  2
    319    316    322    326     1  0.0000000  1.2552000  3
    322    316    319    339     1  0.0000000  0.6508444  3
    322    323    332    336     1  0.0000000  0.6508444  3
    322    326    329    335     1  0.0000000  0.6508444  3
    323    322    326    329     1  180.0000771  2.0083200  2
    323    322    326    329     1  0.0000000  1.2552000  3
    323    332    336    338     1  180.0000771  0.0000000  2
    323    332    336    739     1  0.0000000  0.2928800  2
    323    332    336    739     1  0.0000000  0.4184000  4
    326    322    323    332     1  180.0000771  2.0083200  2
    326    322    323    332     1  0.0000000  1.2552000  3
    326    329    335    337     1  180.0000771  0.0000000  2
    326    329    335    714     1  0.0000000  0.2928800  2
    326    329    335    714     1  0.0000000  0.4184000  4
    329    335    714    694     1  180.0000771  6.2760000  1
    329    335    714    694     1  0.0000000  0.0000000  2
    332    336    739    719     1  180.0000771  6.2760000  1
    332    336    739    719     1  0.0000000  0.0000000  2
    335    714    694    691     1  0.0000000  2.2175200  1
    335    714    694    691     1  0.0000000  0.0000000  2
    335    714    694    691     1  180.0000771  0.6276000  3
    335    714    694    691     1  180.0000771  2.0920000  4
    336    739    719    716     1  0.0000000  2.2175200  1
    336    739    719    716     1  0.0000000  0.0000000  2
    336    739    719    716     1  180.0000771  0.6276000  3
    336    739    719    716     1  180.0000771  2.0920000  4
    337    335    714    694     1  180.0000771  10.4600000  2
    338    336    739    719     1  180.0000771  10.4600000  2
    341    347    348    357     1  180.0000771  2.0083200  2
    341    347    348    357     1  0.0000000  1.2552000  3
    341    347    351    354     1  180.0000771  2.0083200  2
    341    347    351    354     1  0.0000000  1.2552000  3
    344    341    347    348     1  180.0000771  2.0083200  2
    344    341    347    348     1  0.0000000  1.2552000  3
    344    341    347    351     1  180.0000771  2.0083200  2
    344    341    347    351     1  0.0000000  1.2552000  3
    347    341    344    364     1  0.0000000  0.6508444  3
    347    348    357    361     1  0.0000000  0.6508444  3
    347    351    354    360     1  0.0000000  0.6508444  3
    348    347    351    354     1  180.0000771  2.0083200  2
    348    347    351    354     1  0.0000000  1.2552000  3
    348    357    361    363     1  180.0000771  0.0000000  2
    348    357    361    789     1  0.0000000  0.2928800  2
    348    357    361    789     1  0.0000000  0.4184000  4
    351    347    348    357     1  180.0000771  2.0083200  2
    351    347    348    357     1  0.0000000  1.2552000  3
    351    354    360    362     1  180.0000771  0.0000000  2
    351    354    360    764     1  0.0000000  0.2928800  2
    351    354    360    764     1  0.0000000  0.4184000  4
    354    360    764    744     1  180.0000771  6.2760000  1
    354    360    764    744     1  0.0000000  0.0000000  2
    357    361    789    769     1  180.0000771  6.2760000  1
    357    361    789    769     1  0.0000000  0.0000000  2
    360    764    744    741     1  0.0000000  2.2175200  1
    360    764    744    741     1  0.0000000  0.0000000  2
    360    764    744    741     1  180.0000771  0.6276000  3
    360    764    744    741     1  180.0000771  2.0920000  4
    361    789    769    766     1  0.0000000  2.2175200  1
    361    789    769    766     1  0.0000000  0.0000000  2
    361    789    769    766     1  180.0000771  0.6276000  3
    361    789    769    766     1  180.0000771  2.0920000  4
    362    360    764    744     1  180.0000771  10.4600000  2
    363    361    789    769     1  180.0000771  10.4600000  2
    366    372    373    382     1  180.0000771  2.0083200  2
    366    372    373    382     1  0.0000000  1.2552000  3
    366    372    376    379     1  180.0000771  2.0083200  2
    366    372    376    379     1  0.0000000  1.2552000  3
    369    366    372    373     1  180.0000771  2.0083200  2
    369    366    372    373     1  0.0000000  1.2552000  3
    369    366    372    376     1  180.0000771  2.0083200  2
    369    366    372    376     1  0.0000000  1.2552000  3
    372    366    369    389     1  0.0000000  0.6508444  3
    372    373    382    386     1  0.0000000  0.6508444  3
    372    376    379    385     1  0.0000000  0.6508444  3
    373    372    376    379     1  180.0000771  2.0083200  2
    373    372    376    379     1  0.0000000  1.2552000  3
    373    382    386    388     1  180.0000771  0.0000000  2
    373    382    386    839     1  0.0000000  0.2928800  2
    373    382    386    839     1  0.0000000  0.4184000  4
    376    372    373    382     1  180.0000771  2.0083200  2
    376    372    373    382     1  0.0000000  1.2552000  3
    376    379    385    387     1  180.0000771  0.0000000  2
    376    379    385    814     1  0.0000000  0.2928800  2
    376    379    385    814     1  0.0000000  0.4184000  4
    379    385    814    794     1  180.0000771  6.2760000  1
    379    385    814    794     1  0.0000000  0.0000000  2
    382    386    839    819     1  180.0000771  6.2760000  1
    382    386    839    819     1  0.0000000  0.0000000  2
    385    814    794    791     1  0.0000000  2.2175200  1
    385    814    794    791     1  0.0000000  0.0000000  2
    385    814    794    791     1  180.0000771  0.6276000  3
    385    814    794    791     1  180.0000771  2.0920000  4
    386    839    819    816     1  0.0000000  2.2175200  1
    386    839    819    816     1  0.0000000  0.0000000  2
    386    839    819    816     1  180.0000771  0.6276000  3
    386    839    819    816     1  180.0000771  2.0920000  4
    387    385    814    794     1  180.0000771  10.4600000  2
    388    386    839    819     1  180.0000771  10.4600000  2
    391    397    398    407     1  180.0000771  2.0083200  2
    391    397    398    407     1  0.0000000  1.2552000  3
    391    397    401    404     1  180.0000771  2.0083200  2
    391    397    401    404     1  0.0000000  1.2552000  3
    394    391    397    398     1  180.0000771  2.0083200  2
    394    391    397    398     1  0.0000000  1.2552000  3
    394    391    397    401     1  180.0000771  2.0083200  2
    394    391    397    401     1  0.0000000  1.2552000  3
    397    391    394    414     1  0.0000000  0.6508444  3
    397    398    407    411     1  0.0000000  0.6508444  3
    397    401    404    410     1  0.0000000  0.6508444  3
    398    397    401    404     1  180.0000771  2.0083200  2
    398    397    401    404     1  0.0000000  1.2552000  3
    398    407    411    413     1  180.0000771  0.0000000  2
    398    407    411    889     1  0.0000000  0.2928800  2
    398    407    411    889     1  0.0000000  0.4184000  4
    401    397    398    407     1  180.0000771  2.0083200  2
    401    397    398    407     1  0.0000000  1.2552000  3
    401    404    410    412     1  180.0000771  0.0000000  2
    401    404    410    864     1  0.0000000  0.2928800  2
    401    404    410    864     1  0.0000000  0.4184000  4
    404    410    864    844     1  180.0000771  6.2760000  1
    404    410    864    844     1  0.0000000  0.0000000  2
    407    411    889    869     1  180.0000771  6.2760000  1
    407    411    889    869     1  0.0000000  0.0000000  2
    410    864    844    841     1  0.0000000  2.2175200  1
    410    864    844    841     1  0.0000000  0.0000000  2
    410    864    844    841     1  180.0000771  0.6276000  3
    410    864    844    841     1  180.0000771  2.0920000  4
    411    889    869    866     1  0.0000000  2.2175200  1
    411    889    869    866     1  0.0000000  0.0000000  2
    411    889    869    866     1  180.0000771  0.6276000  3
    411    889    869    866     1  180.0000771  2.0920000  4
    412    410    864    844     1  180.0000771  10.4600000  2
    413    411    889    869     1  180.0000771  10.4600000  2
    416    422    423    432     1  180.0000771  2.0083200  2
    416    422    423    432     1  0.0000000  1.2552000  3
    416    422    426    429     1  180.0000771  2.0083200  2
    416    422    426    429     1  0.0000000  1.2552000  3
    419    416    422    423     1  180.0000771  2.0083200  2
    419    416    422    423     1  0.0000000  1.2552000  3
    419    416    422    426     1  180.0000771  2.0083200  2
    419    416    422    426     1  0.0000000  1.2552000  3
    422    416    419    439     1  0.0000000  0.6508444  3
    422    423    432    436     1  0.0000000  0.6508444  3
    422    426    429    435     1  0.0000000  0.6508444  3
    423    422    426    429     1  180.0000771  2.0083200  2
    423    422    426    429     1  0.0000000  1.2552000  3
    423    432    436    438     1  180.0000771  0.0000000  2
    423    432    436    939     1  0.0000000  0.2928800  2
    423    432    436    939     1  0.0000000  0.4184000  4
    426    422    423    432     1  180.0000771  2.0083200  2
    426    422    423    432     1  0.0000000  1.2552000  3
    426    429    435    437     1  180.0000771  0.0000000  2
    426    429    435    914     1  0.0000000  0.2928800  2
    426    429    435    914     1  0.0000000  0.4184000  4
    429    435    914    894     1  180.0000771  6.2760000  1
    429    435    914    894     1  0.0000000  0.0000000  2
    432    436    939    919     1  180.0000771  6.2760000  1
    432    436    939    919     1  0.0000000  0.0000000  2
    435    914    894    891     1  0.0000000  2.2175200  1
    435    914    894    891     1  0.0000000  0.0000000  2
    435    914    894    891     1  180.0000771  0.6276000  3
    435    914    894    891     1  180.0000771  2.0920000  4
    436    939    919    916     1  0.0000000  2.2175200  1
    436    939    919    916     1  0.0000000  0.0000000  2
    436    939    919    916     1  180.0000771  0.6276000  3
    436    939    919    916     1  180.0000771  2.0920000  4
    437    435    914    894     1  180.0000771  10.4600000  2
    438    436    939    919     1  180.0000771  10.4600000  2
    441    447    448    457     1  180.0000771  2.0083200  2
    441    447    448    457     1  0.0000000  1.2552000  3
    441    447    451    454     1  180.0000771  2.0083200  2
    441    447    451    454     1  0.0000000  1.2552000  3
    444    441    447    448     1  180.0000771  2.0083200  2
    444    441    447    448     1  0.0000000  1.2552000  3
    444    441    447    451     1  180.0000771  2.0083200  2
    444    441    447    451     1  0.0000000  1.2552000  3
    447    441    444    464     1  0.0000000  0.6508444  3
    447    448    457    461     1  0.0000000  0.6508444  3
    447    451    454    460     1  0.0000000  0.6508444  3
    448    447    451    454     1  180.0000771  2.0083200  2
    448    447    451    454     1  0.0000000  1.2552000  3
    448    457    461    463     1  180.0000771  0.0000000  2
    448    457    461    989     1  0.0000000  0.2928800  2
    448    457    461    989     1  0.0000000  0.4184000  4
    451    447    448    457     1  180.0000771  2.0083200  2
    451    447    448    457     1  0.0000000  1.2552000  3
    451    454    460    462     1  180.0000771  0.0000000  2
    451    454    460    964     1  0.0000000  0.2928800  2
    451    454    460    964     1  0.0000000  0.4184000  4
    454    460    964    944     1  180.0000771  6.2760000  1
    454    460    964    944     1  0.0000000  0.0000000  2
    457    461    989    969     1  180.0000771  6.2760000  1
    457    461    989    969     1  0.0000000  0.0000000  2
    460    964    944    941     1  0.0000000  2.2175200  1
    460    964    944    941     1  0.0000000  0.0000000  2
    460    964    944    941     1  180.0000771  0.6276000  3
    460    964    944    941     1  180.0000771  2.0920000  4
    461    989    969    966     1  0.0000000  2.2175200  1
    461    989    969    966     1  0.0000000  0.0000000  2
    461    989    969    966     1  180.0000771  0.6276000  3
    461    989    969    966     1  180.0000771  2.0920000  4
    462    460    964    944     1  180.0000771  10.4600000  2
    463    461    989    969     1  180.0000771  10.4600000  2
    466    472    473    482     1  180.0000771  2.0083200  2
    466    472    473    482     1  0.0000000  1.2552000  3
    466    472    476    479     1  180.0000771  2.0083200  2
    466    472    476    479     1  0.0000000  1.2552000  3
    469    466    472    473     1  180.0000771  2.0083200  2
    469    466    472    473     1  0.0000000  1.2552000  3
    469    466    472    476     1  180.0000771  2.0083200  2
    469    466    472    476     1  0.0000000  1.2552000  3
    472    466    469    489     1  0.0000000  0.6508444  3
    472    473    482    486     1  0.0000000  0.6508444  3
    472    476    479    485     1  0.0000000  0.6508444  3
    473    472    476    479     1  180.0000771  2.0083200  2
    473    472    476    479     1  0.0000000  1.2552000  3
    473    482    486    488     1  180.0000771  0.0000000  2
    473    482    486   1039     1  0.0000000  0.2928800  2
    473    482    486   1039     1  0.0000000  0.4184000  4
    476    472    473    482     1  180.0000771  2.0083200  2
    476    472    473    482     1  0.0000000  1.2552000  3
    476    479    485    487     1  180.0000771  0.0000000  2
    476    479    485   1014     1  0.0000000  0.2928800  2
    476    479    485   1014     1  0.0000000  0.4184000  4
    479    485   1014    994     1  180.0000771  6.2760000  1
    479    485   1014    994     1  0.0000000  0.0000000  2
    482    486   1039   1019     1  180.0000771  6.2760000  1
    482    486   1039   1019     1  0.0000000  0.0000000  2
    485   1014    994    991     1  0.0000000  2.2175200  1
    485   1014    994    991     1  0.0000000  0.0000000  2
    485   1014    994    991     1  180.0000771  0.6276000  3
    485   1014    994    991     1  180.0000771  2.0920000  4
    486   1039   1019   1016     1  0.0000000  2.2175200  1
    486   1039   1019   1016     1  0.0000000  0.0000000  2
    486   1039   1019   1016     1  180.0000771  0.6276000  3
    486   1039   1019   1016     1  180.0000771  2.0920000  4
    487    485   1014    994     1  180.0000771  10.4600000  2
    488    486   1039   1019     1  180.0000771  10.4600000  2
    491    497    498    507     1  180.0000771  2.0083200  2
    491    497    498    507     1  0.0000000  1.2552000  3
    491    497    501    504     1  180.0000771  2.0083200  2
    491    497    501    504     1  0.0000000  1.2552000  3
    494    491    497    498     1  180.0000771  2.0083200  2
    494    491    497    498     1  0.0000000  1.2552000  3
    494    491    497    501     1  180.0000771  2.0083200  2
    494    491    497    501     1  0.0000000  1.2552000  3
    497    491    494    514     1  0.0000000  0.6508444  3
    497    498    507    511     1  0.0000000  0.6508444  3
    497    501    504    510     1  0.0000000  0.6508444  3
    498    497    501    504     1  180.0000771  2.0083200  2
    498    497    501    504     1  0.0000000  1.2552000  3
    498    507    511    513     1  180.0000771  0.0000000  2
    498    507    511   1089     1  0.0000000  0.2928800  2
    498    507    511   1089     1  0.0000000  0.4184000  4
    501    497    498    507     1  180.0000771  2.0083200  2
    501    497    498    507     1  0.0000000  1.2552000  3
    501    504    510    512     1  180.0000771  0.0000000  2
    501    504    510   1064     1  0.0000000  0.2928800  2
    501    504    510   1064     1  0.0000000  0.4184000  4
    504    510   1064   1044     1  180.0000771  6.2760000  1
    504    510   1064   1044     1  0.0000000  0.0000000  2
    507    511   1089   1069     1  180.0000771  6.2760000  1
    507    511   1089   1069     1  0.0000000  0.0000000  2
    510   1064   1044   1041     1  0.0000000  2.2175200  1
    510   1064   1044   1041     1  0.0000000  0.0000000  2
    510   1064   1044   1041     1  180.0000771  0.6276000  3
    510   1064   1044   1041     1  180.0000771  2.0920000  4
    511   1089   1069   1066     1  0.0000000  2.2175200  1
    511   1089   1069   1066     1  0.0000000  0.0000000  2
    511   1089   1069   1066     1  180.0000771  0.6276000  3
    511   1089   1069   1066     1  180.0000771  2.0920000  4
    512    510   1064   1044     1  180.0000771  10.4600000  2
    513    511   1089   1069     1  180.0000771  10.4600000  2
    516    522    523    532     1  180.0000771  2.0083200  2
    516    522    523    532     1  0.0000000  1.2552000  3
    516    522    526    529     1  180.0000771  2.0083200  2
    516    522    526    529     1  0.0000000  1.2552000  3
    519    516    522    523     1  180.0000771  2.0083200  2
    519    516    522    523     1  0.0000000  1.2552000  3
    519    516    522    526     1  180.0000771  2.0083200  2
    519    516    522    526     1  0.0000000  1.2552000  3
    522    516    519    539     1  0.0000000  0.6508444  3
    522    523    532    536     1  0.0000000  0.6508444  3
    522    526    529    535     1  0.0000000  0.6508444  3
    523    522    526    529     1  180.0000771  2.0083200  2
    523    522    526    529     1  0.0000000  1.2552000  3
    523    532    536    538     1  180.0000771  0.0000000  2
    523    532    536   1139     1  0.0000000  0.2928800  2
    523    532    536   1139     1  0.0000000  0.4184000  4
    526    522    523    532     1  180.0000771  2.0083200  2
    526    522    523    532     1  0.0000000  1.2552000  3
    526    529    535    537     1  180.0000771  0.0000000  2
    526    529    535   1114     1  0.0000000  0.2928800  2
    526    529    535   1114     1  0.0000000  0.4184000  4
    529    535   1114   1094     1  180.0000771  6.2760000  1
    529    535   1114   1094     1  0.0000000  0.0000000  2
    532    536   1139   1119     1  180.0000771  6.2760000  1
    532    536   1139   1119     1  0.0000000  0.0000000  2
    535   1114   1094   1091     1  0.0000000  2.2175200  1
    535   1114   1094   1091     1  0.0000000  0.0000000  2
    535   1114   1094   1091     1  180.0000771  0.6276000  3
    535   1114   1094   1091     1  180.0000771  2.0920000  4
    536   1139   1119   1116     1  0.0000000  2.2175200  1
    536   1139   1119   1116     1  0.0000000  0.0000000  2
    536   1139   1119   1116     1  180.0000771  0.6276000  3
    536   1139   1119   1116     1  180.0000771  2.0920000  4
    537    535   1114   1094     1  180.0000771  10.4600000  2
    538    536   1139   1119     1  180.0000771  10.4600000  2
    541    547    548    557     1  180.0000771  2.0083200  2
    541    547    548    557     1  0.0000000  1.2552000  3
    541    547    551    554     1  180.0000771  2.0083200  2
    541    547    551    554     1  0.0000000  1.2552000  3
    544    541    547    548     1  180.0000771  2.0083200  2
    544    541    547    548     1  0.0000000  1.2552000  3
    544    541    547    551     1  180.0000771  2.0083200  2
    544    541    547    551     1  0.0000000  1.2552000  3
    547    541    544    564     1  0.0000000  0.6508444  3
    547    548    557    561     1  0.0000000  0.6508444  3
    547    551    554    560     1  0.0000000  0.6508444  3
    548    547    551    554     1  180.0000771  2.0083200  2
    548    547    551    554     1  0.0000000  1.2552000  3
    548    557    561    563     1  180.0000771  0.0000000  2
    548    557    561   1189     1  0.0000000  0.2928800  2
    548    557    561   1189     1  0.0000000  0.4184000  4
    551    547    548    557     1  180.0000771  2.0083200  2
    551    547    548    557     1  0.0000000  1.2552000  3
    551    554    560    562     1  180.0000771  0.0000000  2
    551    554    560   1164     1  0.0000000  0.2928800  2
    551    554    560   1164     1  0.0000000  0.4184000  4
    554    560   1164   1144     1  180.0000771  6.2760000  1
    554    560   1164   1144     1  0.0000000  0.0000000  2
    557    561   1189   1169     1  180.0000771  6.2760000  1
    557    561   1189   1169     1  0.0000000  0.0000000  2
    560   1164   1144   1141     1  0.0000000  2.2175200  1
    560   1164   1144   1141     1  0.0000000  0.0000000  2
    560   1164   1144   1141     1  180.0000771  0.6276000  3
    560   1164   1144   1141     1  180.0000771  2.0920000  4
    561   1189   1169   1166     1  0.0000000  2.2175200  1
    561   1189   1169   1166     1  0.0000000  0.0000000  2
    561   1189   1169   1166     1  180.0000771  0.6276000  3
    561   1189   1169   1166     1  180.0000771  2.0920000  4
    562    560   1164   1144     1  180.0000771  10.4600000  2
    563    561   1189   1169     1  180.0000771  10.4600000  2
    566    572    573    582     1  180.0000771  2.0083200  2
    566    572    573    582     1  0.0000000  1.2552000  3
    566    572    576    579     1  180.0000771  2.0083200  2
    566    572    576    579     1  0.0000000  1.2552000  3
    569    566    572    573     1  180.0000771  2.0083200  2
    569    566    572    573     1  0.0000000  1.2552000  3
    569    566    572    576     1  180.0000771  2.0083200  2
    569    566    572    576     1  0.0000000  1.2552000  3
    572    566    569    589     1  0.0000000  0.6508444  3
    572    573    582    586     1  0.0000000  0.6508444  3
    572    576    579    585     1  0.0000000  0.6508444  3
    573    572    576    579     1  180.0000771  2.0083200  2
    573    572    576    579     1  0.0000000  1.2552000  3
    573    582    586    588     1  180.0000771  0.0000000  2
    573    582    586   1239     1  0.0000000  0.2928800  2
    573    582    586   1239     1  0.0000000  0.4184000  4
    576    572    573    582     1  180.0000771  2.0083200  2
    576    572    573    582     1  0.0000000  1.2552000  3
    576    579    585    587     1  180.0000771  0.0000000  2
    576    579    585   1214     1  0.0000000  0.2928800  2
    576    579    585   1214     1  0.0000000  0.4184000  4
    579    585   1214   1194     1  180.0000771  6.2760000  1
    579    585   1214   1194     1  0.0000000  0.0000000  2
    582    586   1239   1219     1  180.0000771  6.2760000  1
    582    586   1239   1219     1  0.0000000  0.0000000  2
    585   1214   1194   1191     1  0.0000000  2.2175200  1
    585   1214   1194   1191     1  0.0000000  0.0000000  2
    585   1214   1194   1191     1  180.0000771  0.6276000  3
    585   1214   1194   1191     1  180.0000771  2.0920000  4
    586   1239   1219   1216     1  0.0000000  2.2175200  1
    586   1239   1219   1216     1  0.0000000  0.0000000  2
    586   1239   1219   1216     1  180.0000771  0.6276000  3
    586   1239   1219   1216     1  180.0000771  2.0920000  4
    587    585   1214   1194     1  180.0000771  10.4600000  2
    588    586   1239   1219     1  180.0000771  10.4600000  2
    591    597    598    607     1  180.0000771  2.0083200  2
    591    597    598    607     1  0.0000000  1.2552000  3
    591    597    601    604     1  180.0000771  2.0083200  2
    591    597    601    604     1  0.0000000  1.2552000  3
    594    591    597    598     1  180.0000771  2.0083200  2
    594    591    597    598     1  0.0000000  1.2552000  3
    594    591    597    601     1  180.0000771  2.0083200  2
    594    591    597    601     1  0.0000000  1.2552000  3
    597    591    594    614     1  0.0000000  0.6508444  3
    597    598    607    611     1  0.0000000  0.6508444  3
    597    601    604    610     1  0.0000000  0.6508444  3
    598    597    601    604     1  180.0000771  2.0083200  2
    598    597    601    604     1  0.0000000  1.2552000  3
    598    607    611    613     1  180.0000771  0.0000000  2
    598    607    611   1289     1  0.0000000  0.2928800  2
    598    607    611   1289     1  0.0000000  0.4184000  4
    601    597    598    607     1  180.0000771  2.0083200  2
    601    597    598    607     1  0.0000000  1.2552000  3
    601    604    610    612     1  180.0000771  0.0000000  2
    601    604    610   1264     1  0.0000000  0.2928800  2
    601    604    610   1264     1  0.0000000  0.4184000  4
    604    610   1264   1244     1  180.0000771  6.2760000  1
    604    610   1264   1244     1  0.0000000  0.0000000  2
    607    611   1289   1269     1  180.0000771  6.2760000  1
    607    611   1289   1269     1  0.0000000  0.0000000  2
    610   1264   1244   1241     1  0.0000000  2.2175200  1
    610   1264   1244   1241     1  0.0000000  0.0000000  2
    610   1264   1244   1241     1  180.0000771  0.6276000  3
    610   1264   1244   1241     1  180.0000771  2.0920000  4
    611   1289   1269   1266     1  0.0000000  2.2175200  1
    611   1289   1269   1266     1  0.0000000  0.0000000  2
    611   1289   1269   1266     1  180.0000771  0.6276000  3
    611   1289   1269   1266     1  180.0000771  2.0920000  4
    612    610   1264   1244     1  180.0000771  10.4600000  2
    613    611   1289   1269     1  180.0000771  10.4600000  2
    616    622    623    632     1  180.0000771  2.0083200  2
    616    622    623    632     1  0.0000000  1.2552000  3
    616    622    626    629     1  180.0000771  2.0083200  2
    616    622    626    629     1  0.0000000  1.2552000  3
    619    616    622    623     1  180.0000771  2.0083200  2
    619    616    622    623     1  0.0000000  1.2552000  3
    619    616    622    626     1  180.0000771  2.0083200  2
    619    616    622    626     1  0.0000000  1.2552000  3
    622    616    619    639     1  0.0000000  0.6508444  3
    622    623    632    636     1  0.0000000  0.6508444  3
    622    626    629    635     1  0.0000000  0.6508444  3
    623    622    626    629     1  180.0000771  2.0083200  2
    623    622    626    629     1  0.0000000  1.2552000  3
    623    632    636    638     1  180.0000771  0.0000000  2
    623    632    636   1339     1  0.0000000  0.2928800  2
    623    632    636   1339     1  0.0000000  0.4184000  4
    626    622    623    632     1  180.0000771  2.0083200  2
    626    622    623    632     1  0.0000000  1.2552000  3
    626    629    635    637     1  180.0000771  0.0000000  2
    626    629    635   1314     1  0.0000000  0.2928800  2
    626    629    635   1314     1  0.0000000  0.4184000  4
    629    635   1314   1294     1  180.0000771  6.2760000  1
    629    635   1314   1294     1  0.0000000  0.0000000  2
    632    636   1339   1319     1  180.0000771  6.2760000  1
    632    636   1339   1319     1  0.0000000  0.0000000  2
    635   1314   1294   1291     1  0.0000000  2.2175200  1
    635   1314   1294   1291     1  0.0000000  0.0000000  2
    635   1314   1294   1291     1  180.0000771  0.6276000  3
    635   1314   1294   1291     1  180.0000771  2.0920000  4
    636   1339   1319   1316     1  0.0000000  2.2175200  1
    636   1339   1319   1316     1  0.0000000  0.0000000  2
    636   1339   1319   1316     1  180.0000771  0.6276000  3
    636   1339   1319   1316     1  180.0000771  2.0920000  4
    637    635   1314   1294     1  180.0000771  10.4600000  2
    638    636   1339   1319     1  180.0000771  10.4600000  2
    641    647    648    657     1  180.0000771  2.0083200  2
    641    647    648    657     1  0.0000000  1.2552000  3
    641    647    651    654     1  180.0000771  2.0083200  2
    641    647    651    654     1  0.0000000  1.2552000  3
    644    641    647    648     1  180.0000771  2.0083200  2
    644    641    647    648     1  0.0000000  1.2552000  3
    644    641    647    651     1  180.0000771  2.0083200  2
    644    641    647    651     1  0.0000000  1.2552000  3
    647    641    644    664     1  0.0000000  0.6508444  3
    647    648    657    661     1  0.0000000  0.6508444  3
    647    651    654    660     1  0.0000000  0.6508444  3
    648    647    651    654     1  180.0000771  2.0083200  2
    648    647    651    654     1  0.0000000  1.2552000  3
    648    657    661    663     1  180.0000771  0.0000000  2
    648    657    661   1389     1  0.0000000  0.2928800  2
    648    657    661   1389     1  0.0000000  0.4184000  4
    651    647    648    657     1  180.0000771  2.0083200  2
    651    647    648    657     1  0.0000000  1.2552000  3
    651    654    660    662     1  180.0000771  0.0000000  2
    651    654    660   1364     1  0.0000000  0.2928800  2
    651    654    660   1364     1  0.0000000  0.4184000  4
    654    660   1364   1344     1  180.0000771  6.2760000  1
    654    660   1364   1344     1  0.0000000  0.0000000  2
    657    661   1389   1369     1  180.0000771  6.2760000  1
    657    661   1389   1369     1  0.0000000  0.0000000  2
    660   1364   1344   1341     1  0.0000000  2.2175200  1
    660   1364   1344   1341     1  0.0000000  0.0000000  2
    660   1364   1344   1341     1  180.0000771  0.6276000  3
    660   1364   1344   1341     1  180.0000771  2.0920000  4
    661   1389   1369   1366     1  0.0000000  2.2175200  1
    661   1389   1369   1366     1  0.0000000  0.0000000  2
    661   1389   1369   1366     1  180.0000771  0.6276000  3
    661   1389   1369   1366     1  180.0000771  2.0920000  4
    662    660   1364   1344     1  180.0000771  10.4600000  2
    663    661   1389   1369     1  180.0000771  10.4600000  2
    666    672    673    682     1  180.0000771  2.0083200  2
    666    672    673    682     1  0.0000000  1.2552000  3
    666    672    676    679     1  180.0000771  2.0083200  2
    666    672    676    679     1  0.0000000  1.2552000  3
    669    666    672    673     1  180.0000771  2.0083200  2
    669    666    672    673     1  0.0000000  1.2552000  3
    669    666    672    676     1  180.0000771  2.0083200  2
    669    666    672    676     1  0.0000000  1.2552000  3
    672    666    669    689     1  0.0000000  0.6508444  3
    672    673    682    686     1  0.0000000  0.6508444  3
    672    676    679    685     1  0.0000000  0.6508444  3
    673    672    676    679     1  180.0000771  2.0083200  2
    673    672    676    679     1  0.0000000  1.2552000  3
    673    682    686    688     1  180.0000771  0.0000000  2
    673    682    686   1439     1  0.0000000  0.2928800  2
    673    682    686   1439     1  0.0000000  0.4184000  4
    676    672    673    682     1  180.0000771  2.0083200  2
    676    672    673    682     1  0.0000000  1.2552000  3
    676    679    685    687     1  180.0000771  0.0000000  2
    676    679    685   1414     1  0.0000000  0.2928800  2
    676    679    685   1414     1  0.0000000  0.4184000  4
    679    685   1414   1394     1  180.0000771  6.2760000  1
    679    685   1414   1394     1  0.0000000  0.0000000  2
    682    686   1439   1419     1  180.0000771  6.2760000  1
    682    686   1439   1419     1  0.0000000  0.0000000  2
    685   1414   1394   1391     1  0.0000000  2.2175200  1
    685   1414   1394   1391     1  0.0000000  0.0000000  2
    685   1414   1394   1391     1  180.0000771  0.6276000  3
    685   1414   1394   1391     1  180.0000771  2.0920000  4
    686   1439   1419   1416     1  0.0000000  2.2175200  1
    686   1439   1419   1416     1  0.0000000  0.0000000  2
    686   1439   1419   1416     1  180.0000771  0.6276000  3
    686   1439   1419   1416     1  180.0000771  2.0920000  4
    687    685   1414   1394     1  180.0000771  10.4600000  2
    688    686   1439   1419     1  180.0000771  10.4600000  2
    691    697    698    707     1  180.0000771  2.0083200  2
    691    697    698    707     1  0.0000000  1.2552000  3
    691    697    701    704     1  180.0000771  2.0083200  2
    691    697    701    704     1  0.0000000  1.2552000  3
    694    691    697    698     1  180.0000771  2.0083200  2
    694    691    697    698     1  0.0000000  1.2552000  3
    694    691    697    701     1  180.0000771  2.0083200  2
    694    691    697    701     1  0.0000000  1.2552000  3
    697    691    694    714     1  0.0000000  0.6508444  3
    697    698    707    711     1  0.0000000  0.6508444  3
    697    701    704    710     1  0.0000000  0.6508444  3
    698    697    701    704     1  180.0000771  2.0083200  2
    698    697    701    704     1  0.0000000  1.2552000  3
    698    707    711    713     1  180.0000771  0.0000000  2
    698    707    711   1489     1  0.0000000  0.2928800  2
    698    707    711   1489     1  0.0000000  0.4184000  4
    701    697    698    707     1  180.0000771  2.0083200  2
    701    697    698    707     1  0.0000000  1.2552000  3
    701    704    710    712     1  180.0000771  0.0000000  2
    701    704    710   1464     1  0.0000000  0.2928800  2
    701    704    710   1464     1  0.0000000  0.4184000  4
    704    710   1464   1444     1  180.0000771  6.2760000  1
    704    710   1464   1444     1  0.0000000  0.0000000  2
    707    711   1489   1469     1  180.0000771  6.2760000  1
    707    711   1489   1469     1  0.0000000  0.0000000  2
    710   1464   1444   1441     1  0.0000000  2.2175200  1
    710   1464   1444   1441     1  0.0000000  0.0000000  2
    710   1464   1444   1441     1  180.0000771  0.6276000  3
    710   1464   1444   1441     1  180.0000771  2.0920000  4
    711   1489   1469   1466     1  0.0000000  2.2175200  1
    711   1489   1469   1466     1  0.0000000  0.0000000  2
    711   1489   1469   1466     1  180.0000771  0.6276000  3
    711   1489   1469   1466     1  180.0000771  2.0920000  4
    712    710   1464   1444     1  180.0000771  10.4600000  2
    713    711   1489   1469     1  180.0000771  10.4600000  2
    716    722    723    732     1  180.0000771  2.0083200  2
    716    722    723    732     1  0.0000000  1.2552000  3
    716    722    726    729     1  180.0000771  2.0083200  2
    716    722    726    729     1  0.0000000  1.2552000  3
    719    716    722    723     1  180.0000771  2.0083200  2
    719    716    722    723     1  0.0000000  1.2552000  3
    719    716    722    726     1  180.0000771  2.0083200  2
    719    716    722    726     1  0.0000000  1.2552000  3
    722    716    719    739     1  0.0000000  0.6508444  3
    722    723    732    736     1  0.0000000  0.6508444  3
    722    726    729    735     1  0.0000000  0.6508444  3
    723    722    726    729     1  180.0000771  2.0083200  2
    723    722    726    729     1  0.0000000  1.2552000  3
    723    732    736    738     1  180.0000771  0.0000000  2
    723    732    736   1539     1  0.0000000  0.2928800  2
    723    732    736   1539     1  0.0000000  0.4184000  4
    726    722    723    732     1  180.0000771  2.0083200  2
    726    722    723    732     1  0.0000000  1.2552000  3
    726    729    735    737     1  180.0000771  0.0000000  2
    726    729    735   1514     1  0.0000000  0.2928800  2
    726    729    735   1514     1  0.0000000  0.4184000  4
    729    735   1514   1494     1  180.0000771  6.2760000  1
    729    735   1514   1494     1  0.0000000  0.0000000  2
    732    736   1539   1519     1  180.0000771  6.2760000  1
    732    736   1539   1519     1  0.0000000  0.0000000  2
    735   1514   1494   1491     1  0.0000000  2.2175200  1
    735   1514   1494   1491     1  0.0000000  0.0000000  2
    735   1514   1494   1491     1  180.0000771  0.6276000  3
    735   1514   1494   1491     1  180.0000771  2.0920000  4
    736   1539   1519   1516     1  0.0000000  2.2175200  1
    736   1539   1519   1516     1  0.0000000  0.0000000  2
    736   1539   1519   1516     1  180.0000771  0.6276000  3
    736   1539   1519   1516     1  180.0000771  2.0920000  4
    737    735   1514   1494     1  180.0000771  10.4600000  2
    738    736   1539   1519     1  180.0000771  10.4600000  2
    741    747    748    757     1  180.0000771  2.0083200  2
    741    747    748    757     1  0.0000000  1.2552000  3
    741    747    751    754     1  180.0000771  2.0083200  2
    741    747    751    754     1  0.0000000  1.2552000  3
    744    741    747    748     1  180.0000771  2.0083200  2
    744    741    747    748     1  0.0000000  1.2552000  3
    744    741    747    751     1  180.0000771  2.0083200  2
    744    741    747    751     1  0.0000000  1.2552000  3
    747    741    744    764     1  0.0000000  0.6508444  3
    747    748    757    761     1  0.0000000  0.6508444  3
    747    751    754    760     1  0.0000000  0.6508444  3
    748    747    751    754     1  180.0000771  2.0083200  2
    748    747    751    754     1  0.0000000  1.2552000  3
    748    757    761    763     1  180.0000771  0.0000000  2
    748    757    761   1568     1  0.0000000  0.2928800  2
    748    757    761   1568     1  0.0000000  0.4184000  4
    751    747    748    757     1  180.0000771  2.0083200  2
    751    747    748    757     1  0.0000000  1.2552000  3
    751    754    760   1541     1  0.0000000  0.2928800  2
    751    754    760   1541     1  0.0000000  0.4184000  4
    751    754    760    762     1  180.0000771  0.0000000  2
    754    760   1541   1543     1  180.0000771  6.2760000  1
    754    760   1541   1543     1  0.0000000  0.0000000  2
    757    761   1568   1570     1  180.0000771  6.2760000  1
    757    761   1568   1570     1  0.0000000  0.0000000  2
    760   1541   1543   1545     1  0.0000000  2.2175200  1
    760   1541   1543   1545     1  0.0000000  0.0000000  2
    760   1541   1543   1545     1  180.0000771  0.6276000  3
    760   1541   1543   1545     1  180.0000771  2.0920000  4
    761   1568   1570   1572     1  0.0000000  2.2175200  1
    761   1568   1570   1572     1  0.0000000  0.0000000  2
    761   1568   1570   1572     1  180.0000771  0.6276000  3
    761   1568   1570   1572     1  180.0000771  2.0920000  4
    762    760   1541   1543     1  180.0000771  10.4600000  2
    763    761   1568   1570     1  180.0000771  10.4600000  2
    766    772    773    782     1  180.0000771  2.0083200  2
    766    772    773    782     1  0.0000000  1.2552000  3
    766    772    776    779     1  180.0000771  2.0083200  2
    766    772    776    779     1  0.0000000  1.2552000  3
    769    766    772    773     1  180.0000771  2.0083200  2
    769    766    772    773     1  0.0000000  1.2552000  3
    769    766    772    776     1  180.0000771  2.0083200  2
    769    766    772    776     1  0.0000000  1.2552000  3
    772    766    769    789     1  0.0000000  0.6508444  3
    772    773    782    786     1  0.0000000  0.6508444  3
    772    776    779    785     1  0.0000000  0.6508444  3
    773    772    776    779     1  180.0000771  2.0083200  2
    773    772    776    779     1  0.0000000  1.2552000  3
    773    782    786    788     1  180.0000771  0.0000000  2
    773    782    786   1622     1  0.0000000  0.2928800  2
    773    782    786   1622     1  0.0000000  0.4184000  4
    776    772    773    782     1  180.0000771  2.0083200  2
    776    772    773    782     1  0.0000000  1.2552000  3
    776    779    785   1595     1  0.0000000  0.2928800  2
    776    779    785   1595     1  0.0000000  0.4184000  4
    776    779    785    787     1  180.0000771  0.0000000  2
    779    785   1595   1597     1  180.0000771  6.2760000  1
    779    785   1595   1597     1  0.0000000  0.0000000  2
    782    786   1622   1624     1  180.0000771  6.2760000  1
    782    786   1622   1624     1  0.0000000  0.0000000  2
    785   1595   1597   1599     1  0.0000000  2.2175200  1
    785   1595   1597   1599     1  0.0000000  0.0000000  2
    785   1595   1597   1599     1  180.0000771  0.6276000  3
    785   1595   1597   1599     1  180.0000771  2.0920000  4
    786   1622   1624   1626     1  0.0000000  2.2175200  1
    786   1622   1624   1626     1  0.0000000  0.0000000  2
    786   1622   1624   1626     1  180.0000771  0.6276000  3
    786   1622   1624   1626     1  180.0000771  2.0920000  4
    787    785   1595   1597     1  180.0000771  10.4600000  2
    788    786   1622   1624     1  180.0000771  10.4600000  2
    791    797    798    807     1  180.0000771  2.0083200  2
    791    797    798    807     1  0.0000000  1.2552000  3
    791    797    801    804     1  180.0000771  2.0083200  2
    791    797    801    804     1  0.0000000  1.2552000  3
    794    791    797    798     1  180.0000771  2.0083200  2
    794    791    797    798     1  0.0000000  1.2552000  3
    794    791    797    801     1  180.0000771  2.0083200  2
    794    791    797    801     1  0.0000000  1.2552000  3
    797    791    794    814     1  0.0000000  0.6508444  3
    797    798    807    811     1  0.0000000  0.6508444  3
    797    801    804    810     1  0.0000000  0.6508444  3
    798    797    801    804     1  180.0000771  2.0083200  2
    798    797    801    804     1  0.0000000  1.2552000  3
    798    807    811    813     1  180.0000771  0.0000000  2
    798    807    811   1676     1  0.0000000  0.2928800  2
    798    807    811   1676     1  0.0000000  0.4184000  4
    801    797    798    807     1  180.0000771  2.0083200  2
    801    797    798    807     1  0.0000000  1.2552000  3
    801    804    810   1649     1  0.0000000  0.2928800  2
    801    804    810   1649     1  0.0000000  0.4184000  4
    801    804    810    812     1  180.0000771  0.0000000  2
    804    810   1649   1651     1  180.0000771  6.2760000  1
    804    810   1649   1651     1  0.0000000  0.0000000  2
    807    811   1676   1678     1  180.0000771  6.2760000  1
    807    811   1676   1678     1  0.0000000  0.0000000  2
    810   1649   1651   1653     1  0.0000000  2.2175200  1
    810   1649   1651   1653     1  0.0000000  0.0000000  2
    810   1649   1651   1653     1  180.0000771  0.6276000  3
    810   1649   1651   1653     1  180.0000771  2.0920000  4
    811   1676   1678   1680     1  0.0000000  2.2175200  1
    811   1676   1678   1680     1  0.0000000  0.0000000  2
    811   1676   1678   1680     1  180.0000771  0.6276000  3
    811   1676   1678   1680     1  180.0000771  2.0920000  4
    812    810   1649   1651     1  180.0000771  10.4600000  2
    813    811   1676   1678     1  180.0000771  10.4600000  2
    816    822    823    832     1  180.0000771  2.0083200  2
    816    822    823    832     1  0.0000000  1.2552000  3
    816    822    826    829     1  180.0000771  2.0083200  2
    816    822    826    829     1  0.0000000  1.2552000  3
    819    816    822    823     1  180.0000771  2.0083200  2
    819    816    822    823     1  0.0000000  1.2552000  3
    819    816    822    826     1  180.0000771  2.0083200  2
    819    816    822    826     1  0.0000000  1.2552000  3
    822    816    819    839     1  0.0000000  0.6508444  3
    822    823    832    836     1  0.0000000  0.6508444  3
    822    826    829    835     1  0.0000000  0.6508444  3
    823    822    826    829     1  180.0000771  2.0083200  2
    823    822    826    829     1  0.0000000  1.2552000  3
    823    832    836    838     1  180.0000771  0.0000000  2
    823    832    836   1730     1  0.0000000  0.2928800  2
    823    832    836   1730     1  0.0000000  0.4184000  4
    826    822    823    832     1  180.0000771  2.0083200  2
    826    822    823    832     1  0.0000000  1.2552000  3
    826    829    835   1703     1  0.0000000  0.2928800  2
    826    829    835   1703     1  0.0000000  0.4184000  4
    826    829    835    837     1  180.0000771  0.0000000  2
    829    835   1703   1705     1  180.0000771  6.2760000  1
    829    835   1703   1705     1  0.0000000  0.0000000  2
    832    836   1730   1732     1  180.0000771  6.2760000  1
    832    836   1730   1732     1  0.0000000  0.0000000  2
    835   1703   1705   1707     1  0.0000000  2.2175200  1
    835   1703   1705   1707     1  0.0000000  0.0000000  2
    835   1703   1705   1707     1  180.0000771  0.6276000  3
    835   1703   1705   1707     1  180.0000771  2.0920000  4
    836   1730   1732   1734     1  0.0000000  2.2175200  1
    836   1730   1732   1734     1  0.0000000  0.0000000  2
    836   1730   1732   1734     1  180.0000771  0.6276000  3
    836   1730   1732   1734     1  180.0000771  2.0920000  4
    837    835   1703   1705     1  180.0000771  10.4600000  2
    838    836   1730   1732     1  180.0000771  10.4600000  2
    841    847    848    857     1  180.0000771  2.0083200  2
    841    847    848    857     1  0.0000000  1.2552000  3
    841    847    851    854     1  180.0000771  2.0083200  2
    841    847    851    854     1  0.0000000  1.2552000  3
    844    841    847    848     1  180.0000771  2.0083200  2
    844    841    847    848     1  0.0000000  1.2552000  3
    844    841    847    851     1  180.0000771  2.0083200  2
    844    841    847    851     1  0.0000000  1.2552000  3
    847    841    844    864     1  0.0000000  0.6508444  3
    847    848    857    861     1  0.0000000  0.6508444  3
    847    851    854    860     1  0.0000000  0.6508444  3
    848    847    851    854     1  180.0000771  2.0083200  2
    848    847    851    854     1  0.0000000  1.2552000  3
    848    857    861    863     1  180.0000771  0.0000000  2
    848    857    861   1784     1  0.0000000  0.2928800  2
    848    857    861   1784     1  0.0000000  0.4184000  4
    851    847    848    857     1  180.0000771  2.0083200  2
    851    847    848    857     1  0.0000000  1.2552000  3
    851    854    860   1757     1  0.0000000  0.2928800  2
    851    854    860   1757     1  0.0000000  0.4184000  4
    851    854    860    862     1  180.0000771  0.0000000  2
    854    860   1757   1759     1  180.0000771  6.2760000  1
    854    860   1757   1759     1  0.0000000  0.0000000  2
    857    861   1784   1786     1  180.0000771  6.2760000  1
    857    861   1784   1786     1  0.0000000  0.0000000  2
    860   1757   1759   1761     1  0.0000000  2.2175200  1
    860   1757   1759   1761     1  0.0000000  0.0000000  2
    860   1757   1759   1761     1  180.0000771  0.6276000  3
    860   1757   1759   1761     1  180.0000771  2.0920000  4
    861   1784   1786   1788     1  0.0000000  2.2175200  1
    861   1784   1786   1788     1  0.0000000  0.0000000  2
    861   1784   1786   1788     1  180.0000771  0.6276000  3
    861   1784   1786   1788     1  180.0000771  2.0920000  4
    862    860   1757   1759     1  180.0000771  10.4600000  2
    863    861   1784   1786     1  180.0000771  10.4600000  2
    866    872    873    882     1  180.0000771  2.0083200  2
    866    872    873    882     1  0.0000000  1.2552000  3
    866    872    876    879     1  180.0000771  2.0083200  2
    866    872    876    879     1  0.0000000  1.2552000  3
    869    866    872    873     1  180.0000771  2.0083200  2
    869    866    872    873     1  0.0000000  1.2552000  3
    869    866    872    876     1  180.0000771  2.0083200  2
    869    866    872    876     1  0.0000000  1.2552000  3
    872    866    869    889     1  0.0000000  0.6508444  3
    872    873    882    886     1  0.0000000  0.6508444  3
    872    876    879    885     1  0.0000000  0.6508444  3
    873    872    876    879     1  180.0000771  2.0083200  2
    873    872    876    879     1  0.0000000  1.2552000  3
    873    882    886    888     1  180.0000771  0.0000000  2
    873    882    886   1838     1  0.0000000  0.2928800  2
    873    882    886   1838     1  0.0000000  0.4184000  4
    876    872    873    882     1  180.0000771  2.0083200  2
    876    872    873    882     1  0.0000000  1.2552000  3
    876    879    885   1811     1  0.0000000  0.2928800  2
    876    879    885   1811     1  0.0000000  0.4184000  4
    876    879    885    887     1  180.0000771  0.0000000  2
    879    885   1811   1813     1  180.0000771  6.2760000  1
    879    885   1811   1813     1  0.0000000  0.0000000  2
    882    886   1838   1840     1  180.0000771  6.2760000  1
    882    886   1838   1840     1  0.0000000  0.0000000  2
    885   1811   1813   1815     1  0.0000000  2.2175200  1
    885   1811   1813   1815     1  0.0000000  0.0000000  2
    885   1811   1813   1815     1  180.0000771  0.6276000  3
    885   1811   1813   1815     1  180.0000771  2.0920000  4
    886   1838   1840   1842     1  0.0000000  2.2175200  1
    886   1838   1840   1842     1  0.0000000  0.0000000  2
    886   1838   1840   1842     1  180.0000771  0.6276000  3
    886   1838   1840   1842     1  180.0000771  2.0920000  4
    887    885   1811   1813     1  180.0000771  10.4600000  2
    888    886   1838   1840     1  180.0000771  10.4600000  2
    891    897    898    907     1  180.0000771  2.0083200  2
    891    897    898    907     1  0.0000000  1.2552000  3
    891    897    901    904     1  180.0000771  2.0083200  2
    891    897    901    904     1  0.0000000  1.2552000  3
    894    891    897    898     1  180.0000771  2.0083200  2
    894    891    897    898     1  0.0000000  1.2552000  3
    894    891    897    901     1  180.0000771  2.0083200  2
    894    891    897    901     1  0.0000000  1.2552000  3
    897    891    894    914     1  0.0000000  0.6508444  3
    897    898    907    911     1  0.0000000  0.6508444  3
    897    901    904    910     1  0.0000000  0.6508444  3
    898    897    901    904     1  180.0000771  2.0083200  2
    898    897    901    904     1  0.0000000  1.2552000  3
    898    907    911    913     1  180.0000771  0.0000000  2
    898    907    911   1892     1  0.0000000  0.2928800  2
    898    907    911   1892     1  0.0000000  0.4184000  4
    901    897    898    907     1  180.0000771  2.0083200  2
    901    897    898    907     1  0.0000000  1.2552000  3
    901    904    910   1865     1  0.0000000  0.2928800  2
    901    904    910   1865     1  0.0000000  0.4184000  4
    901    904    910    912     1  180.0000771  0.0000000  2
    904    910   1865   1867     1  180.0000771  6.2760000  1
    904    910   1865   1867     1  0.0000000  0.0000000  2
    907    911   1892   1894     1  180.0000771  6.2760000  1
    907    911   1892   1894     1  0.0000000  0.0000000  2
    910   1865   1867   1869     1  0.0000000  2.2175200  1
    910   1865   1867   1869     1  0.0000000  0.0000000  2
    910   1865   1867   1869     1  180.0000771  0.6276000  3
    910   1865   1867   1869     1  180.0000771  2.0920000  4
    911   1892   1894   1896     1  0.0000000  2.2175200  1
    911   1892   1894   1896     1  0.0000000  0.0000000  2
    911   1892   1894   1896     1  180.0000771  0.6276000  3
    911   1892   1894   1896     1  180.0000771  2.0920000  4
    912    910   1865   1867     1  180.0000771  10.4600000  2
    913    911   1892   1894     1  180.0000771  10.4600000  2
    916    922    923    932     1  180.0000771  2.0083200  2
    916    922    923    932     1  0.0000000  1.2552000  3
    916    922    926    929     1  180.0000771  2.0083200  2
    916    922    926    929     1  0.0000000  1.2552000  3
    919    916    922    923     1  180.0000771  2.0083200  2
    919    916    922    923     1  0.0000000  1.2552000  3
    919    916    922    926     1  180.0000771  2.0083200  2
    919    916    922    926     1  0.0000000  1.2552000  3
    922    916    919    939     1  0.0000000  0.6508444  3
    922    923    932    936     1  0.0000000  0.6508444  3
    922    926    929    935     1  0.0000000  0.6508444  3
    923    922    926    929     1  180.0000771  2.0083200  2
    923    922    926    929     1  0.0000000  1.2552000  3
    923    932    936    938     1  180.0000771  0.0000000  2
    923    932    936   1946     1  0.0000000  0.2928800  2
    923    932    936   1946     1  0.0000000  0.4184000  4
    926    922    923    932     1  180.0000771  2.0083200  2
    926    922    923    932     1  0.0000000  1.2552000  3
    926    929    935   1919     1  0.0000000  0.2928800  2
    926    929    935   1919     1  0.0000000  0.4184000  4
    926    929    935    937     1  180.0000771  0.0000000  2
    929    935   1919   1921     1  180.0000771  6.2760000  1
    929    935   1919   1921     1  0.0000000  0.0000000  2
    932    936   1946   1948     1  180.0000771  6.2760000  1
    932    936   1946   1948     1  0.0000000  0.0000000  2
    935   1919   1921   1923     1  0.0000000  2.2175200  1
    935   1919   1921   1923     1  0.0000000  0.0000000  2
    935   1919   1921   1923     1  180.0000771  0.6276000  3
    935   1919   1921   1923     1  180.0000771  2.0920000  4
    936   1946   1948   1950     1  0.0000000  2.2175200  1
    936   1946   1948   1950     1  0.0000000  0.0000000  2
    936   1946   1948   1950     1  180.0000771  0.6276000  3
    936   1946   1948   1950     1  180.0000771  2.0920000  4
    937    935   1919   1921     1  180.0000771  10.4600000  2
    938    936   1946   1948     1  180.0000771  10.4600000  2
    941    947    948    957     1  180.0000771  2.0083200  2
    941    947    948    957     1  0.0000000  1.2552000  3
    941    947    951    954     1  180.0000771  2.0083200  2
    941    947    951    954     1  0.0000000  1.2552000  3
    944    941    947    948     1  180.0000771  2.0083200  2
    944    941    947    948     1  0.0000000  1.2552000  3
    944    941    947    951     1  180.0000771  2.0083200  2
    944    941    947    951     1  0.0000000  1.2552000  3
    947    941    944    964     1  0.0000000  0.6508444  3
    947    948    957    961     1  0.0000000  0.6508444  3
    947    951    954    960     1  0.0000000  0.6508444  3
    948    947    951    954     1  180.0000771  2.0083200  2
    948    947    951    954     1  0.0000000  1.2552000  3
    948    957    961    963     1  180.0000771  0.0000000  2
    948    957    961   2000     1  0.0000000  0.2928800  2
    948    957    961   2000     1  0.0000000  0.4184000  4
    951    947    948    957     1  180.0000771  2.0083200  2
    951    947    948    957     1  0.0000000  1.2552000  3
    951    954    960   1973     1  0.0000000  0.2928800  2
    951    954    960   1973     1  0.0000000  0.4184000  4
    951    954    960    962     1  180.0000771  0.0000000  2
    954    960   1973   1975     1  180.0000771  6.2760000  1
    954    960   1973   1975     1  0.0000000  0.0000000  2
    957    961   2000   2002     1  180.0000771  6.2760000  1
    957    961   2000   2002     1  0.0000000  0.0000000  2
    960   1973   1975   1977     1  0.0000000  2.2175200  1
    960   1973   1975   1977     1  0.0000000  0.0000000  2
    960   1973   1975   1977     1  180.0000771  0.6276000  3
    960   1973   1975   1977     1  180.0000771  2.0920000  4
    961   2000   2002   2004     1  0.0000000  2.2175200  1
    961   2000   2002   2004     1  0.0000000  0.0000000  2
    961   2000   2002   2004     1  180.0000771  0.6276000  3
    961   2000   2002   2004     1  180.0000771  2.0920000  4
    962    960   1973   1975     1  180.0000771  10.4600000  2
    963    961   2000   2002     1  180.0000771  10.4600000  2
    966    972    973    982     1  180.0000771  2.0083200  2
    966    972    973    982     1  0.0000000  1.2552000  3
    966    972    976    979     1  180.0000771  2.0083200  2
    966    972    976    979     1  0.0000000  1.2552000  3
    969    966    972    973     1  180.0000771  2.0083200  2
    969    966    972    973     1  0.0000000  1.2552000  3
    969    966    972    976     1  180.0000771  2.0083200  2
    969    966    972    976     1  0.0000000  1.2552000  3
    972    966    969    989     1  0.0000000  0.6508444  3
    972    973    982    986     1  0.0000000  0.6508444  3
    972    976    979    985     1  0.0000000  0.6508444  3
    973    972    976    979     1  180.0000771  2.0083200  2
    973    972    976    979     1  0.0000000  1.2552000  3
    973    982    986    988     1  180.0000771  0.0000000  2
    973    982    986   2054     1  0.0000000  0.2928800  2
    973    982    986   2054     1  0.0000000  0.4184000  4
    976    972    973    982     1  180.0000771  2.0083200  2
    976    972    973    982     1  0.0000000  1.2552000  3
    976    979    985   2027     1  0.0000000  0.2928800  2
    976    979    985   2027     1  0.0000000  0.4184000  4
    976    979    985    987     1  180.0000771  0.0000000  2
    979    985   2027   2029     1  180.0000771  6.2760000  1
    979    985   2027   2029     1  0.0000000  0.0000000  2
    982    986   2054   2056     1  180.0000771  6.2760000  1
    982    986   2054   2056     1  0.0000000  0.0000000  2
    985   2027   2029   2031     1  0.0000000  2.2175200  1
    985   2027   2029   2031     1  0.0000000  0.0000000  2
    985   2027   2029   2031     1  180.0000771  0.6276000  3
    985   2027   2029   2031     1  180.0000771  2.0920000  4
    986   2054   2056   2058     1  0.0000000  2.2175200  1
    986   2054   2056   2058     1  0.0000000  0.0000000  2
    986   2054   2056   2058     1  180.0000771  0.6276000  3
    986   2054   2056   2058     1  180.0000771  2.0920000  4
    987    985   2027   2029     1  180.0000771  10.4600000  2
    988    986   2054   2056     1  180.0000771  10.4600000  2
    991    997    998   1007     1  180.0000771  2.0083200  2
    991    997    998   1007     1  0.0000000  1.2552000  3
    991    997   1001   1004     1  180.0000771  2.0083200  2
    991    997   1001   1004     1  0.0000000  1.2552000  3
    994    991    997    998     1  180.0000771  2.0083200  2
    994    991    997    998     1  0.0000000  1.2552000  3
    994    991    997   1001     1  180.0000771  2.0083200  2
    994    991    997   1001     1  0.0000000  1.2552000  3
    997    991    994   1014     1  0.0000000  0.6508444  3
    997    998   1007   1011     1  0.0000000  0.6508444  3
    997   1001   1004   1010     1  0.0000000  0.6508444  3
    998    997   1001   1004     1  180.0000771  2.0083200  2
    998    997   1001   1004     1  0.0000000  1.2552000  3
    998   1007   1011   1013     1  180.0000771  0.0000000  2
    998   1007   1011   2108     1  0.0000000  0.2928800  2
    998   1007   1011   2108     1  0.0000000  0.4184000  4
   1001    997    998   1007     1  180.0000771  2.0083200  2
   1001    997    998   1007     1  0.0000000  1.2552000  3
   1001   1004   1010   2081     1  0.0000000  0.2928800  2
   1001   1004   1010   2081     1  0.0000000  0.4184000  4
   1001   1004   1010   1012     1  180.0000771  0.0000000  2
   1004   1010   2081   2083     1  180.0000771  6.2760000  1
   1004   1010   2081   2083     1  0.0000000  0.0000000  2
   1007   1011   2108   2110     1  180.0000771  6.2760000  1
   1007   1011   2108   2110     1  0.0000000  0.0000000  2
   1010   2081   2083   2085     1  0.0000000  2.2175200  1
   1010   2081   2083   2085     1  0.0000000  0.0000000  2
   1010   2081   2083   2085     1  180.0000771  0.6276000  3
   1010   2081   2083   2085     1  180.0000771  2.0920000  4
   1011   2108   2110   2112     1  0.0000000  2.2175200  1
   1011   2108   2110   2112     1  0.0000000  0.0000000  2
   1011   2108   2110   2112     1  180.0000771  0.6276000  3
   1011   2108   2110   2112     1  180.0000771  2.0920000  4
   1012   1010   2081   2083     1  180.0000771  10.4600000  2
   1013   1011   2108   2110     1  180.0000771  10.4600000  2
   1016   1022   1023   1032     1  180.0000771  2.0083200  2
   1016   1022   1023   1032     1  0.0000000  1.2552000  3
   1016   1022   1026   1029     1  180.0000771  2.0083200  2
   1016   1022   1026   1029     1  0.0000000  1.2552000  3
   1019   1016   1022   1023     1  180.0000771  2.0083200  2
   1019   1016   1022   1023     1  0.0000000  1.2552000  3
   1019   1016   1022   1026     1  180.0000771  2.0083200  2
   1019   1016   1022   1026     1  0.0000000  1.2552000  3
   1022   1016   1019   1039     1  0.0000000  0.6508444  3
   1022   1023   1032   1036     1  0.0000000  0.6508444  3
   1022   1026   1029   1035     1  0.0000000  0.6508444  3
   1023   1022   1026   1029     1  180.0000771  2.0083200  2
   1023   1022   1026   1029     1  0.0000000  1.2552000  3
   1023   1032   1036   1038     1  180.0000771  0.0000000  2
   1023   1032   1036   2162     1  0.0000000  0.2928800  2
   1023   1032   1036   2162     1  0.0000000  0.4184000  4
   1026   1022   1023   1032     1  180.0000771  2.0083200  2
   1026   1022   1023   1032     1  0.0000000  1.2552000  3
   1026   1029   1035   2135     1  0.0000000  0.2928800  2
   1026   1029   1035   2135     1  0.0000000  0.4184000  4
   1026   1029   1035   1037     1  180.0000771  0.0000000  2
   1029   1035   2135   2137     1  180.0000771  6.2760000  1
   1029   1035   2135   2137     1  0.0000000  0.0000000  2
   1032   1036   2162   2164     1  180.0000771  6.2760000  1
   1032   1036   2162   2164     1  0.0000000  0.0000000  2
   1035   2135   2137   2139     1  0.0000000  2.2175200  1
   1035   2135   2137   2139     1  0.0000000  0.0000000  2
   1035   2135   2137   2139     1  180.0000771  0.6276000  3
   1035   2135   2137   2139     1  180.0000771  2.0920000  4
   1036   2162   2164   2166     1  0.0000000  2.2175200  1
   1036   2162   2164   2166     1  0.0000000  0.0000000  2
   1036   2162   2164   2166     1  180.0000771  0.6276000  3
   1036   2162   2164   2166     1  180.0000771  2.0920000  4
   1037   1035   2135   2137     1  180.0000771  10.4600000  2
   1038   1036   2162   2164     1  180.0000771  10.4600000  2
   1041   1047   1048   1057     1  180.0000771  2.0083200  2
   1041   1047   1048   1057     1  0.0000000  1.2552000  3
   1041   1047   1051   1054     1  180.0000771  2.0083200  2
   1041   1047   1051   1054     1  0.0000000  1.2552000  3
   1044   1041   1047   1048     1  180.0000771  2.0083200  2
   1044   1041   1047   1048     1  0.0000000  1.2552000  3
   1044   1041   1047   1051     1  180.0000771  2.0083200  2
   1044   1041   1047   1051     1  0.0000000  1.2552000  3
   1047   1041   1044   1064     1  0.0000000  0.6508444  3
   1047   1048   1057   1061     1  0.0000000  0.6508444  3
   1047   1051   1054   1060     1  0.0000000  0.6508444  3
   1048   1047   1051   1054     1  180.0000771  2.0083200  2
   1048   1047   1051   1054     1  0.0000000  1.2552000  3
   1048   1057   1061   1063     1  180.0000771  0.0000000  2
   1048   1057   1061   2216     1  0.0000000  0.2928800  2
   1048   1057   1061   2216     1  0.0000000  0.4184000  4
   1051   1047   1048   1057     1  180.0000771  2.0083200  2
   1051   1047   1048   1057     1  0.0000000  1.2552000  3
   1051   1054   1060   2189     1  0.0000000  0.2928800  2
   1051   1054   1060   2189     1  0.0000000  0.4184000  4
   1051   1054   1060   1062     1  180.0000771  0.0000000  2
   1054   1060   2189   2191     1  180.0000771  6.2760000  1
   1054   1060   2189   2191     1  0.0000000  0.0000000  2
   1057   1061   2216   2218     1  180.0000771  6.2760000  1
   1057   1061   2216   2218     1  0.0000000  0.0000000  2
   1060   2189   2191   2193     1  0.0000000  2.2175200  1
   1060   2189   2191   2193     1  0.0000000  0.0000000  2
   1060   2189   2191   2193     1  180.0000771  0.6276000  3
   1060   2189   2191   2193     1  180.0000771  2.0920000  4
   1061   2216   2218   2220     1  0.0000000  2.2175200  1
   1061   2216   2218   2220     1  0.0000000  0.0000000  2
   1061   2216   2218   2220     1  180.0000771  0.6276000  3
   1061   2216   2218   2220     1  180.0000771  2.0920000  4
   1062   1060   2189   2191     1  180.0000771  10.4600000  2
   1063   1061   2216   2218     1  180.0000771  10.4600000  2
   1066   1072   1073   1082     1  180.0000771  2.0083200  2
   1066   1072   1073   1082     1  0.0000000  1.2552000  3
   1066   1072   1076   1079     1  180.0000771  2.0083200  2
   1066   1072   1076   1079     1  0.0000000  1.2552000  3
   1069   1066   1072   1073     1  180.0000771  2.0083200  2
   1069   1066   1072   1073     1  0.0000000  1.2552000  3
   1069   1066   1072   1076     1  180.0000771  2.0083200  2
   1069   1066   1072   1076     1  0.0000000  1.2552000  3
   1072   1066   1069   1089     1  0.0000000  0.6508444  3
   1072   1073   1082   1086     1  0.0000000  0.6508444  3
   1072   1076   1079   1085     1  0.0000000  0.6508444  3
   1073   1072   1076   1079     1  180.0000771  2.0083200  2
   1073   1072   1076   1079     1  0.0000000  1.2552000  3
   1073   1082   1086   1088     1  180.0000771  0.0000000  2
   1073   1082   1086   2270     1  0.0000000  0.2928800  2
   1073   1082   1086   2270     1  0.0000000  0.4184000  4
   1076   1072   1073   1082     1  180.0000771  2.0083200  2
   1076   1072   1073   1082     1  0.0000000  1.2552000  3
   1076   1079   1085   2243     1  0.0000000  0.2928800  2
   1076   1079   1085   2243     1  0.0000000  0.4184000  4
   1076   1079   1085   1087     1  180.0000771  0.0000000  2
   1079   1085   2243   2245     1  180.0000771  6.2760000  1
   1079   1085   2243   2245     1  0.0000000  0.0000000  2
   1082   1086   2270   2272     1  180.0000771  6.2760000  1
   1082   1086   2270   2272     1  0.0000000  0.0000000  2
   1085   2243   2245   2247     1  0.0000000  2.2175200  1
   1085   2243   2245   2247     1  0.0000000  0.0000000  2
   1085   2243   2245   2247     1  180.0000771  0.6276000  3
   1085   2243   2245   2247     1  180.0000771  2.0920000  4
   1086   2270   2272   2274     1  0.0000000  2.2175200  1
   1086   2270   2272   2274     1  0.0000000  0.0000000  2
   1086   2270   2272   2274     1  180.0000771  0.6276000  3
   1086   2270   2272   2274     1  180.0000771  2.0920000  4
   1087   1085   2243   2245     1  180.0000771  10.4600000  2
   1088   1086   2270   2272     1  180.0000771  10.4600000  2
   1091   1097   1098   1107     1  180.0000771  2.0083200  2
   1091   1097   1098   1107     1  0.0000000  1.2552000  3
   1091   1097   1101   1104     1  180.0000771  2.0083200  2
   1091   1097   1101   1104     1  0.0000000  1.2552000  3
   1094   1091   1097   1098     1  180.0000771  2.0083200  2
   1094   1091   1097   1098     1  0.0000000  1.2552000  3
   1094   1091   1097   1101     1  180.0000771  2.0083200  2
   1094   1091   1097   1101     1  0.0000000  1.2552000  3
   1097   1091   1094   1114     1  0.0000000  0.6508444  3
   1097   1098   1107   1111     1  0.0000000  0.6508444  3
   1097   1101   1104   1110     1  0.0000000  0.6508444  3
   1098   1097   1101   1104     1  180.0000771  2.0083200  2
   1098   1097   1101   1104     1  0.0000000  1.2552000  3
   1098   1107   1111   1113     1  180.0000771  0.0000000  2
   1098   1107   1111   2324     1  0.0000000  0.2928800  2
   1098   1107   1111   2324     1  0.0000000  0.4184000  4
   1101   1097   1098   1107     1  180.0000771  2.0083200  2
   1101   1097   1098   1107     1  0.0000000  1.2552000  3
   1101   1104   1110   2297     1  0.0000000  0.2928800  2
   1101   1104   1110   2297     1  0.0000000  0.4184000  4
   1101   1104   1110   1112     1  180.0000771  0.0000000  2
   1104   1110   2297   2299     1  180.0000771  6.2760000  1
   1104   1110   2297   2299     1  0.0000000  0.0000000  2
   1107   1111   2324   2326     1  180.0000771  6.2760000  1
   1107   1111   2324   2326     1  0.0000000  0.0000000  2
   1110   2297   2299   2301     1  0.0000000  2.2175200  1
   1110   2297   2299   2301     1  0.0000000  0.0000000  2
   1110   2297   2299   2301     1  180.0000771  0.6276000  3
   1110   2297   2299   2301     1  180.0000771  2.0920000  4
   1111   2324   2326   2328     1  0.0000000  2.2175200  1
   1111   2324   2326   2328     1  0.0000000  0.0000000  2
   1111   2324   2326   2328     1  180.0000771  0.6276000  3
   1111   2324   2326   2328     1  180.0000771  2.0920000  4
   1112   1110   2297   2299     1  180.0000771  10.4600000  2
   1113   1111   2324   2326     1  180.0000771  10.4600000  2
   1116   1122   1123   1132     1  180.0000771  2.0083200  2
   1116   1122   1123   1132     1  0.0000000  1.2552000  3
   1116   1122   1126   1129     1  180.0000771  2.0083200  2
   1116   1122   1126   1129     1  0.0000000  1.2552000  3
   1119   1116   1122   1123     1  180.0000771  2.0083200  2
   1119   1116   1122   1123     1  0.0000000  1.2552000  3
   1119   1116   1122   1126     1  180.0000771  2.0083200  2
   1119   1116   1122   1126     1  0.0000000  1.2552000  3
   1122   1116   1119   1139     1  0.0000000  0.6508444  3
   1122   1123   1132   1136     1  0.0000000  0.6508444  3
   1122   1126   1129   1135     1  0.0000000  0.6508444  3
   1123   1122   1126   1129     1  180.0000771  2.0083200  2
   1123   1122   1126   1129     1  0.0000000  1.2552000  3
   1123   1132   1136   1138     1  180.0000771  0.0000000  2
   1123   1132   1136   2378     1  0.0000000  0.2928800  2
   1123   1132   1136   2378     1  0.0000000  0.4184000  4
   1126   1122   1123   1132     1  180.0000771  2.0083200  2
   1126   1122   1123   1132     1  0.0000000  1.2552000  3
   1126   1129   1135   2351     1  0.0000000  0.2928800  2
   1126   1129   1135   2351     1  0.0000000  0.4184000  4
   1126   1129   1135   1137     1  180.0000771  0.0000000  2
   1129   1135   2351   2353     1  180.0000771  6.2760000  1
   1129   1135   2351   2353     1  0.0000000  0.0000000  2
   1132   1136   2378   2380     1  180.0000771  6.2760000  1
   1132   1136   2378   2380     1  0.0000000  0.0000000  2
   1135   2351   2353   2355     1  0.0000000  2.2175200  1
   1135   2351   2353   2355     1  0.0000000  0.0000000  2
   1135   2351   2353   2355     1  180.0000771  0.6276000  3
   1135   2351   2353   2355     1  180.0000771  2.0920000  4
   1136   2378   2380   2382     1  0.0000000  2.2175200  1
   1136   2378   2380   2382     1  0.0000000  0.0000000  2
   1136   2378   2380   2382     1  180.0000771  0.6276000  3
   1136   2378   2380   2382     1  180.0000771  2.0920000  4
   1137   1135   2351   2353     1  180.0000771  10.4600000  2
   1138   1136   2378   2380     1  180.0000771  10.4600000  2
   1141   1147   1148   1157     1  180.0000771  2.0083200  2
   1141   1147   1148   1157     1  0.0000000  1.2552000  3
   1141   1147   1151   1154     1  180.0000771  2.0083200  2
   1141   1147   1151   1154     1  0.0000000  1.2552000  3
   1144   1141   1147   1148     1  180.0000771  2.0083200  2
   1144   1141   1147   1148     1  0.0000000  1.2552000  3
   1144   1141   1147   1151     1  180.0000771  2.0083200  2
   1144   1141   1147   1151     1  0.0000000  1.2552000  3
   1147   1141   1144   1164     1  0.0000000  0.6508444  3
   1147   1148   1157   1161     1  0.0000000  0.6508444  3
   1147   1151   1154   1160     1  0.0000000  0.6508444  3
   1148   1147   1151   1154     1  180.0000771  2.0083200  2
   1148   1147   1151   1154     1  0.0000000  1.2552000  3
   1148   1157   1161   1163     1  180.0000771  0.0000000  2
   1148   1157   1161   2432     1  0.0000000  0.2928800  2
   1148   1157   1161   2432     1  0.0000000  0.4184000  4
   1151   1147   1148   1157     1  180.0000771  2.0083200  2
   1151   1147   1148   1157     1  0.0000000  1.2552000  3
   1151   1154   1160   2405     1  0.0000000  0.2928800  2
   1151   1154   1160   2405     1  0.0000000  0.4184000  4
   1151   1154   1160   1162     1  180.0000771  0.0000000  2
   1154   1160   2405   2407     1  180.0000771  6.2760000  1
   1154   1160   2405   2407     1  0.0000000  0.0000000  2
   1157   1161   2432   2434     1  180.0000771  6.2760000  1
   1157   1161   2432   2434     1  0.0000000  0.0000000  2
   1160   2405   2407   2409     1  0.0000000  2.2175200  1
   1160   2405   2407   2409     1  0.0000000  0.0000000  2
   1160   2405   2407   2409     1  180.0000771  0.6276000  3
   1160   2405   2407   2409     1  180.0000771  2.0920000  4
   1161   2432   2434   2436     1  0.0000000  2.2175200  1
   1161   2432   2434   2436     1  0.0000000  0.0000000  2
   1161   2432   2434   2436     1  180.0000771  0.6276000  3
   1161   2432   2434   2436     1  180.0000771  2.0920000  4
   1162   1160   2405   2407     1  180.0000771  10.4600000  2
   1163   1161   2432   2434     1  180.0000771  10.4600000  2
   1166   1172   1173   1182     1  180.0000771  2.0083200  2
   1166   1172   1173   1182     1  0.0000000  1.2552000  3
   1166   1172   1176   1179     1  180.0000771  2.0083200  2
   1166   1172   1176   1179     1  0.0000000  1.2552000  3
   1169   1166   1172   1173     1  180.0000771  2.0083200  2
   1169   1166   1172   1173     1  0.0000000  1.2552000  3
   1169   1166   1172   1176     1  180.0000771  2.0083200  2
   1169   1166   1172   1176     1  0.0000000  1.2552000  3
   1172   1166   1169   1189     1  0.0000000  0.6508444  3
   1172   1173   1182   1186     1  0.0000000  0.6508444  3
   1172   1176   1179   1185     1  0.0000000  0.6508444  3
   1173   1172   1176   1179     1  180.0000771  2.0083200  2
   1173   1172   1176   1179     1  0.0000000  1.2552000  3
   1173   1182   1186   1188     1  180.0000771  0.0000000  2
   1173   1182   1186   2486     1  0.0000000  0.2928800  2
   1173   1182   1186   2486     1  0.0000000  0.4184000  4
   1176   1172   1173   1182     1  180.0000771  2.0083200  2
   1176   1172   1173   1182     1  0.0000000  1.2552000  3
   1176   1179   1185   2459     1  0.0000000  0.2928800  2
   1176   1179   1185   2459     1  0.0000000  0.4184000  4
   1176   1179   1185   1187     1  180.0000771  0.0000000  2
   1179   1185   2459   2461     1  180.0000771  6.2760000  1
   1179   1185   2459   2461     1  0.0000000  0.0000000  2
   1182   1186   2486   2488     1  180.0000771  6.2760000  1
   1182   1186   2486   2488     1  0.0000000  0.0000000  2
   1185   2459   2461   2463     1  0.0000000  2.2175200  1
   1185   2459   2461   2463     1  0.0000000  0.0000000  2
   1185   2459   2461   2463     1  180.0000771  0.6276000  3
   1185   2459   2461   2463     1  180.0000771  2.0920000  4
   1186   2486   2488   2490     1  0.0000000  2.2175200  1
   1186   2486   2488   2490     1  0.0000000  0.0000000  2
   1186   2486   2488   2490     1  180.0000771  0.6276000  3
   1186   2486   2488   2490     1  180.0000771  2.0920000  4
   1187   1185   2459   2461     1  180.0000771  10.4600000  2
   1188   1186   2486   2488     1  180.0000771  10.4600000  2
   1191   1197   1198   1207     1  180.0000771  2.0083200  2
   1191   1197   1198   1207     1  0.0000000  1.2552000  3
   1191   1197   1201   1204     1  180.0000771  2.0083200  2
   1191   1197   1201   1204     1  0.0000000  1.2552000  3
   1194   1191   1197   1198     1  180.0000771  2.0083200  2
   1194   1191   1197   1198     1  0.0000000  1.2552000  3
   1194   1191   1197   1201     1  180.0000771  2.0083200  2
   1194   1191   1197   1201     1  0.0000000  1.2552000  3
   1197   1191   1194   1214     1  0.0000000  0.6508444  3
   1197   1198   1207   1211     1  0.0000000  0.6508444  3
   1197   1201   1204   1210     1  0.0000000  0.6508444  3
   1198   1197   1201   1204     1  180.0000771  2.0083200  2
   1198   1197   1201   1204     1  0.0000000  1.2552000  3
   1198   1207   1211   1213     1  180.0000771  0.0000000  2
   1198   1207   1211   2540     1  0.0000000  0.2928800  2
   1198   1207   1211   2540     1  0.0000000  0.4184000  4
   1201   1197   1198   1207     1  180.0000771  2.0083200  2
   1201   1197   1198   1207     1  0.0000000  1.2552000  3
   1201   1204   1210   2513     1  0.0000000  0.2928800  2
   1201   1204   1210   2513     1  0.0000000  0.4184000  4
   1201   1204   1210   1212     1  180.0000771  0.0000000  2
   1204   1210   2513   2515     1  180.0000771  6.2760000  1
   1204   1210   2513   2515     1  0.0000000  0.0000000  2
   1207   1211   2540   2542     1  180.0000771  6.2760000  1
   1207   1211   2540   2542     1  0.0000000  0.0000000  2
   1210   2513   2515   2517     1  0.0000000  2.2175200  1
   1210   2513   2515   2517     1  0.0000000  0.0000000  2
   1210   2513   2515   2517     1  180.0000771  0.6276000  3
   1210   2513   2515   2517     1  180.0000771  2.0920000  4
   1211   2540   2542   2544     1  0.0000000  2.2175200  1
   1211   2540   2542   2544     1  0.0000000  0.0000000  2
   1211   2540   2542   2544     1  180.0000771  0.6276000  3
   1211   2540   2542   2544     1  180.0000771  2.0920000  4
   1212   1210   2513   2515     1  180.0000771  10.4600000  2
   1213   1211   2540   2542     1  180.0000771  10.4600000  2
   1216   1222   1223   1232     1  180.0000771  2.0083200  2
   1216   1222   1223   1232     1  0.0000000  1.2552000  3
   1216   1222   1226   1229     1  180.0000771  2.0083200  2
   1216   1222   1226   1229     1  0.0000000  1.2552000  3
   1219   1216   1222   1223     1  180.0000771  2.0083200  2
   1219   1216   1222   1223     1  0.0000000  1.2552000  3
   1219   1216   1222   1226     1  180.0000771  2.0083200  2
   1219   1216   1222   1226     1  0.0000000  1.2552000  3
   1222   1216   1219   1239     1  0.0000000  0.6508444  3
   1222   1223   1232   1236     1  0.0000000  0.6508444  3
   1222   1226   1229   1235     1  0.0000000  0.6508444  3
   1223   1222   1226   1229     1  180.0000771  2.0083200  2
   1223   1222   1226   1229     1  0.0000000  1.2552000  3
   1223   1232   1236   1238     1  180.0000771  0.0000000  2
   1223   1232   1236   2594     1  0.0000000  0.2928800  2
   1223   1232   1236   2594     1  0.0000000  0.4184000  4
   1226   1222   1223   1232     1  180.0000771  2.0083200  2
   1226   1222   1223   1232     1  0.0000000  1.2552000  3
   1226   1229   1235   2567     1  0.0000000  0.2928800  2
   1226   1229   1235   2567     1  0.0000000  0.4184000  4
   1226   1229   1235   1237     1  180.0000771  0.0000000  2
   1229   1235   2567   2569     1  180.0000771  6.2760000  1
   1229   1235   2567   2569     1  0.0000000  0.0000000  2
   1232   1236   2594   2596     1  180.0000771  6.2760000  1
   1232   1236   2594   2596     1  0.0000000  0.0000000  2
   1235   2567   2569   2571     1  0.0000000  2.2175200  1
   1235   2567   2569   2571     1  0.0000000  0.0000000  2
   1235   2567   2569   2571     1  180.0000771  0.6276000  3
   1235   2567   2569   2571     1  180.0000771  2.0920000  4
   1236   2594   2596   2598     1  0.0000000  2.2175200  1
   1236   2594   2596   2598     1  0.0000000  0.0000000  2
   1236   2594   2596   2598     1  180.0000771  0.6276000  3
   1236   2594   2596   2598     1  180.0000771  2.0920000  4
   1237   1235   2567   2569     1  180.0000771  10.4600000  2
   1238   1236   2594   2596     1  180.0000771  10.4600000  2
   1241   1247   1248   1257     1  180.0000771  2.0083200  2
   1241   1247   1248   1257     1  0.0000000  1.2552000  3
   1241   1247   1251   1254     1  180.0000771  2.0083200  2
   1241   1247   1251   1254     1  0.0000000  1.2552000  3
   1244   1241   1247   1248     1  180.0000771  2.0083200  2
   1244   1241   1247   1248     1  0.0000000  1.2552000  3
   1244   1241   1247   1251     1  180.0000771  2.0083200  2
   1244   1241   1247   1251     1  0.0000000  1.2552000  3
   1247   1241   1244   1264     1  0.0000000  0.6508444  3
   1247   1248   1257   1261     1  0.0000000  0.6508444  3
   1247   1251   1254   1260     1  0.0000000  0.6508444  3
   1248   1247   1251   1254     1  180.0000771  2.0083200  2
   1248   1247   1251   1254     1  0.0000000  1.2552000  3
   1248   1257   1261   1263     1  180.0000771  0.0000000  2
   1248   1257   1261   2648     1  0.0000000  0.2928800  2
   1248   1257   1261   2648     1  0.0000000  0.4184000  4
   1251   1247   1248   1257     1  180.0000771  2.0083200  2
   1251   1247   1248   1257     1  0.0000000  1.2552000  3
   1251   1254   1260   2621     1  0.0000000  0.2928800  2
   1251   1254   1260   2621     1  0.0000000  0.4184000  4
   1251   1254   1260   1262     1  180.0000771  0.0000000  2
   1254   1260   2621   2623     1  180.0000771  6.2760000  1
   1254   1260   2621   2623     1  0.0000000  0.0000000  2
   1257   1261   2648   2650     1  180.0000771  6.2760000  1
   1257   1261   2648   2650     1  0.0000000  0.0000000  2
   1260   2621   2623   2625     1  0.0000000  2.2175200  1
   1260   2621   2623   2625     1  0.0000000  0.0000000  2
   1260   2621   2623   2625     1  180.0000771  0.6276000  3
   1260   2621   2623   2625     1  180.0000771  2.0920000  4
   1261   2648   2650   2652     1  0.0000000  2.2175200  1
   1261   2648   2650   2652     1  0.0000000  0.0000000  2
   1261   2648   2650   2652     1  180.0000771  0.6276000  3
   1261   2648   2650   2652     1  180.0000771  2.0920000  4
   1262   1260   2621   2623     1  180.0000771  10.4600000  2
   1263   1261   2648   2650     1  180.0000771  10.4600000  2
   1266   1272   1273   1282     1  180.0000771  2.0083200  2
   1266   1272   1273   1282     1  0.0000000  1.2552000  3
   1266   1272   1276   1279     1  180.0000771  2.0083200  2
   1266   1272   1276   1279     1  0.0000000  1.2552000  3
   1269   1266   1272   1273     1  180.0000771  2.0083200  2
   1269   1266   1272   1273     1  0.0000000  1.2552000  3
   1269   1266   1272   1276     1  180.0000771  2.0083200  2
   1269   1266   1272   1276     1  0.0000000  1.2552000  3
   1272   1266   1269   1289     1  0.0000000  0.6508444  3
   1272   1273   1282   1286     1  0.0000000  0.6508444  3
   1272   1276   1279   1285     1  0.0000000  0.6508444  3
   1273   1272   1276   1279     1  180.0000771  2.0083200  2
   1273   1272   1276   1279     1  0.0000000  1.2552000  3
   1273   1282   1286   1288     1  180.0000771  0.0000000  2
   1273   1282   1286   2702     1  0.0000000  0.2928800  2
   1273   1282   1286   2702     1  0.0000000  0.4184000  4
   1276   1272   1273   1282     1  180.0000771  2.0083200  2
   1276   1272   1273   1282     1  0.0000000  1.2552000  3
   1276   1279   1285   2675     1  0.0000000  0.2928800  2
   1276   1279   1285   2675     1  0.0000000  0.4184000  4
   1276   1279   1285   1287     1  180.0000771  0.0000000  2
   1279   1285   2675   2677     1  180.0000771  6.2760000  1
   1279   1285   2675   2677     1  0.0000000  0.0000000  2
   1282   1286   2702   2704     1  180.0000771  6.2760000  1
   1282   1286   2702   2704     1  0.0000000  0.0000000  2
   1285   2675   2677   2679     1  0.0000000  2.2175200  1
   1285   2675   2677   2679     1  0.0000000  0.0000000  2
   1285   2675   2677   2679     1  180.0000771  0.6276000  3
   1285   2675   2677   2679     1  180.0000771  2.0920000  4
   1286   2702   2704   2706     1  0.0000000  2.2175200  1
   1286   2702   2704   2706     1  0.0000000  0.0000000  2
   1286   2702   2704   2706     1  180.0000771  0.6276000  3
   1286   2702   2704   2706     1  180.0000771  2.0920000  4
   1287   1285   2675   2677     1  180.0000771  10.4600000  2
   1288   1286   2702   2704     1  180.0000771  10.4600000  2
   1291   1297   1298   1307     1  180.0000771  2.0083200  2
   1291   1297   1298   1307     1  0.0000000  1.2552000  3
   1291   1297   1301   1304     1  180.0000771  2.0083200  2
   1291   1297   1301   1304     1  0.0000000  1.2552000  3
   1294   1291   1297   1298     1  180.0000771  2.0083200  2
   1294   1291   1297   1298     1  0.0000000  1.2552000  3
   1294   1291   1297   1301     1  180.0000771  2.0083200  2
   1294   1291   1297   1301     1  0.0000000  1.2552000  3
   1297   1291   1294   1314     1  0.0000000  0.6508444  3
   1297   1298   1307   1311     1  0.0000000  0.6508444  3
   1297   1301   1304   1310     1  0.0000000  0.6508444  3
   1298   1297   1301   1304     1  180.0000771  2.0083200  2
   1298   1297   1301   1304     1  0.0000000  1.2552000  3
   1298   1307   1311   1313     1  180.0000771  0.0000000  2
   1298   1307   1311   2756     1  0.0000000  0.2928800  2
   1298   1307   1311   2756     1  0.0000000  0.4184000  4
   1301   1297   1298   1307     1  180.0000771  2.0083200  2
   1301   1297   1298   1307     1  0.0000000  1.2552000  3
   1301   1304   1310   2729     1  0.0000000  0.2928800  2
   1301   1304   1310   2729     1  0.0000000  0.4184000  4
   1301   1304   1310   1312     1  180.0000771  0.0000000  2
   1304   1310   2729   2731     1  180.0000771  6.2760000  1
   1304   1310   2729   2731     1  0.0000000  0.0000000  2
   1307   1311   2756   2758     1  180.0000771  6.2760000  1
   1307   1311   2756   2758     1  0.0000000  0.0000000  2
   1310   2729   2731   2733     1  0.0000000  2.2175200  1
   1310   2729   2731   2733     1  0.0000000  0.0000000  2
   1310   2729   2731   2733     1  180.0000771  0.6276000  3
   1310   2729   2731   2733     1  180.0000771  2.0920000  4
   1311   2756   2758   2760     1  0.0000000  2.2175200  1
   1311   2756   2758   2760     1  0.0000000  0.0000000  2
   1311   2756   2758   2760     1  180.0000771  0.6276000  3
   1311   2756   2758   2760     1  180.0000771  2.0920000  4
   1312   1310   2729   2731     1  180.0000771  10.4600000  2
   1313   1311   2756   2758     1  180.0000771  10.4600000  2
   1316   1322   1323   1332     1  180.0000771  2.0083200  2
   1316   1322   1323   1332     1  0.0000000  1.2552000  3
   1316   1322   1326   1329     1  180.0000771  2.0083200  2
   1316   1322   1326   1329     1  0.0000000  1.2552000  3
   1319   1316   1322   1323     1  180.0000771  2.0083200  2
   1319   1316   1322   1323     1  0.0000000  1.2552000  3
   1319   1316   1322   1326     1  180.0000771  2.0083200  2
   1319   1316   1322   1326     1  0.0000000  1.2552000  3
   1322   1316   1319   1339     1  0.0000000  0.6508444  3
   1322   1323   1332   1336     1  0.0000000  0.6508444  3
   1322   1326   1329   1335     1  0.0000000  0.6508444  3
   1323   1322   1326   1329     1  180.0000771  2.0083200  2
   1323   1322   1326   1329     1  0.0000000  1.2552000  3
   1323   1332   1336   1338     1  180.0000771  0.0000000  2
   1323   1332   1336   2810     1  0.0000000  0.2928800  2
   1323   1332   1336   2810     1  0.0000000  0.4184000  4
   1326   1322   1323   1332     1  180.0000771  2.0083200  2
   1326   1322   1323   1332     1  0.0000000  1.2552000  3
   1326   1329   1335   2783     1  0.0000000  0.2928800  2
   1326   1329   1335   2783     1  0.0000000  0.4184000  4
   1326   1329   1335   1337     1  180.0000771  0.0000000  2
   1329   1335   2783   2785     1  180.0000771  6.2760000  1
   1329   1335   2783   2785     1  0.0000000  0.0000000  2
   1332   1336   2810   2812     1  180.0000771  6.2760000  1
   1332   1336   2810   2812     1  0.0000000  0.0000000  2
   1335   2783   2785   2787     1  0.0000000  2.2175200  1
   1335   2783   2785   2787     1  0.0000000  0.0000000  2
   1335   2783   2785   2787     1  180.0000771  0.6276000  3
   1335   2783   2785   2787     1  180.0000771  2.0920000  4
   1336   2810   2812   2814     1  0.0000000  2.2175200  1
   1336   2810   2812   2814     1  0.0000000  0.0000000  2
   1336   2810   2812   2814     1  180.0000771  0.6276000  3
   1336   2810   2812   2814     1  180.0000771  2.0920000  4
   1337   1335   2783   2785     1  180.0000771  10.4600000  2
   1338   1336   2810   2812     1  180.0000771  10.4600000  2
   1341   1347   1348   1357     1  180.0000771  2.0083200  2
   1341   1347   1348   1357     1  0.0000000  1.2552000  3
   1341   1347   1351   1354     1  180.0000771  2.0083200  2
   1341   1347   1351   1354     1  0.0000000  1.2552000  3
   1344   1341   1347   1348     1  180.0000771  2.0083200  2
   1344   1341   1347   1348     1  0.0000000  1.2552000  3
   1344   1341   1347   1351     1  180.0000771  2.0083200  2
   1344   1341   1347   1351     1  0.0000000  1.2552000  3
   1347   1341   1344   1364     1  0.0000000  0.6508444  3
   1347   1348   1357   1361     1  0.0000000  0.6508444  3
   1347   1351   1354   1360     1  0.0000000  0.6508444  3
   1348   1347   1351   1354     1  180.0000771  2.0083200  2
   1348   1347   1351   1354     1  0.0000000  1.2552000  3
   1348   1357   1361   1363     1  180.0000771  0.0000000  2
   1348   1357   1361   2864     1  0.0000000  0.2928800  2
   1348   1357   1361   2864     1  0.0000000  0.4184000  4
   1351   1347   1348   1357     1  180.0000771  2.0083200  2
   1351   1347   1348   1357     1  0.0000000  1.2552000  3
   1351   1354   1360   2837     1  0.0000000  0.2928800  2
   1351   1354   1360   2837     1  0.0000000  0.4184000  4
   1351   1354   1360   1362     1  180.0000771  0.0000000  2
   1354   1360   2837   2839     1  180.0000771  6.2760000  1
   1354   1360   2837   2839     1  0.0000000  0.0000000  2
   1357   1361   2864   2866     1  180.0000771  6.2760000  1
   1357   1361   2864   2866     1  0.0000000  0.0000000  2
   1360   2837   2839   2841     1  0.0000000  2.2175200  1
   1360   2837   2839   2841     1  0.0000000  0.0000000  2
   1360   2837   2839   2841     1  180.0000771  0.6276000  3
   1360   2837   2839   2841     1  180.0000771  2.0920000  4
   1361   2864   2866   2868     1  0.0000000  2.2175200  1
   1361   2864   2866   2868     1  0.0000000  0.0000000  2
   1361   2864   2866   2868     1  180.0000771  0.6276000  3
   1361   2864   2866   2868     1  180.0000771  2.0920000  4
   1362   1360   2837   2839     1  180.0000771  10.4600000  2
   1363   1361   2864   2866     1  180.0000771  10.4600000  2
   1366   1372   1373   1382     1  180.0000771  2.0083200  2
   1366   1372   1373   1382     1  0.0000000  1.2552000  3
   1366   1372   1376   1379     1  180.0000771  2.0083200  2
   1366   1372   1376   1379     1  0.0000000  1.2552000  3
   1369   1366   1372   1373     1  180.0000771  2.0083200  2
   1369   1366   1372   1373     1  0.0000000  1.2552000  3
   1369   1366   1372   1376     1  180.0000771  2.0083200  2
   1369   1366   1372   1376     1  0.0000000  1.2552000  3
   1372   1366   1369   1389     1  0.0000000  0.6508444  3
   1372   1373   1382   1386     1  0.0000000  0.6508444  3
   1372   1376   1379   1385     1  0.0000000  0.6508444  3
   1373   1372   1376   1379     1  180.0000771  2.0083200  2
   1373   1372   1376   1379     1  0.0000000  1.2552000  3
   1373   1382   1386   1388     1  180.0000771  0.0000000  2
   1373   1382   1386   2918     1  0.0000000  0.2928800  2
   1373   1382   1386   2918     1  0.0000000  0.4184000  4
   1376   1372   1373   1382     1  180.0000771  2.0083200  2
   1376   1372   1373   1382     1  0.0000000  1.2552000  3
   1376   1379   1385   2891     1  0.0000000  0.2928800  2
   1376   1379   1385   2891     1  0.0000000  0.4184000  4
   1376   1379   1385   1387     1  180.0000771  0.0000000  2
   1379   1385   2891   2893     1  180.0000771  6.2760000  1
   1379   1385   2891   2893     1  0.0000000  0.0000000  2
   1382   1386   2918   2920     1  180.0000771  6.2760000  1
   1382   1386   2918   2920     1  0.0000000  0.0000000  2
   1385   2891   2893   2895     1  0.0000000  2.2175200  1
   1385   2891   2893   2895     1  0.0000000  0.0000000  2
   1385   2891   2893   2895     1  180.0000771  0.6276000  3
   1385   2891   2893   2895     1  180.0000771  2.0920000  4
   1386   2918   2920   2922     1  0.0000000  2.2175200  1
   1386   2918   2920   2922     1  0.0000000  0.0000000  2
   1386   2918   2920   2922     1  180.0000771  0.6276000  3
   1386   2918   2920   2922     1  180.0000771  2.0920000  4
   1387   1385   2891   2893     1  180.0000771  10.4600000  2
   1388   1386   2918   2920     1  180.0000771  10.4600000  2
   1391   1397   1398   1407     1  180.0000771  2.0083200  2
   1391   1397   1398   1407     1  0.0000000  1.2552000  3
   1391   1397   1401   1404     1  180.0000771  2.0083200  2
   1391   1397   1401   1404     1  0.0000000  1.2552000  3
   1394   1391   1397   1398     1  180.0000771  2.0083200  2
   1394   1391   1397   1398     1  0.0000000  1.2552000  3
   1394   1391   1397   1401     1  180.0000771  2.0083200  2
   1394   1391   1397   1401     1  0.0000000  1.2552000  3
   1397   1391   1394   1414     1  0.0000000  0.6508444  3
   1397   1398   1407   1411     1  0.0000000  0.6508444  3
   1397   1401   1404   1410     1  0.0000000  0.6508444  3
   1398   1397   1401   1404     1  180.0000771  2.0083200  2
   1398   1397   1401   1404     1  0.0000000  1.2552000  3
   1398   1407   1411   1413     1  180.0000771  0.0000000  2
   1398   1407   1411   2972     1  0.0000000  0.2928800  2
   1398   1407   1411   2972     1  0.0000000  0.4184000  4
   1401   1397   1398   1407     1  180.0000771  2.0083200  2
   1401   1397   1398   1407     1  0.0000000  1.2552000  3
   1401   1404   1410   2945     1  0.0000000  0.2928800  2
   1401   1404   1410   2945     1  0.0000000  0.4184000  4
   1401   1404   1410   1412     1  180.0000771  0.0000000  2
   1404   1410   2945   2947     1  180.0000771  6.2760000  1
   1404   1410   2945   2947     1  0.0000000  0.0000000  2
   1407   1411   2972   2974     1  180.0000771  6.2760000  1
   1407   1411   2972   2974     1  0.0000000  0.0000000  2
   1410   2945   2947   2949     1  0.0000000  2.2175200  1
   1410   2945   2947   2949     1  0.0000000  0.0000000  2
   1410   2945   2947   2949     1  180.0000771  0.6276000  3
   1410   2945   2947   2949     1  180.0000771  2.0920000  4
   1411   2972   2974   2976     1  0.0000000  2.2175200  1
   1411   2972   2974   2976     1  0.0000000  0.0000000  2
   1411   2972   2974   2976     1  180.0000771  0.6276000  3
   1411   2972   2974   2976     1  180.0000771  2.0920000  4
   1412   1410   2945   2947     1  180.0000771  10.4600000  2
   1413   1411   2972   2974     1  180.0000771  10.4600000  2
   1416   1422   1423   1432     1  180.0000771  2.0083200  2
   1416   1422   1423   1432     1  0.0000000  1.2552000  3
   1416   1422   1426   1429     1  180.0000771  2.0083200  2
   1416   1422   1426   1429     1  0.0000000  1.2552000  3
   1419   1416   1422   1423     1  180.0000771  2.0083200  2
   1419   1416   1422   1423     1  0.0000000  1.2552000  3
   1419   1416   1422   1426     1  180.0000771  2.0083200  2
   1419   1416   1422   1426     1  0.0000000  1.2552000  3
   1422   1416   1419   1439     1  0.0000000  0.6508444  3
   1422   1423   1432   1436     1  0.0000000  0.6508444  3
   1422   1426   1429   1435     1  0.0000000  0.6508444  3
   1423   1422   1426   1429     1  180.0000771  2.0083200  2
   1423   1422   1426   1429     1  0.0000000  1.2552000  3
   1423   1432   1436   1438     1  180.0000771  0.0000000  2
   1423   1432   1436   3026     1  0.0000000  0.2928800  2
   1423   1432   1436   3026     1  0.0000000  0.4184000  4
   1426   1422   1423   1432     1  180.0000771  2.0083200  2
   1426   1422   1423   1432     1  0.0000000  1.2552000  3
   1426   1429   1435   2999     1  0.0000000  0.2928800  2
   1426   1429   1435   2999     1  0.0000000  0.4184000  4
   1426   1429   1435   1437     1  180.0000771  0.0000000  2
   1429   1435   2999   3001     1  180.0000771  6.2760000  1
   1429   1435   2999   3001     1  0.0000000  0.0000000  2
   1432   1436   3026   3028     1  180.0000771  6.2760000  1
   1432   1436   3026   3028     1  0.0000000  0.0000000  2
   1435   2999   3001   3003     1  0.0000000  2.2175200  1
   1435   2999   3001   3003     1  0.0000000  0.0000000  2
   1435   2999   3001   3003     1  180.0000771  0.6276000  3
   1435   2999   3001   3003     1  180.0000771  2.0920000  4
   1436   3026   3028   3030     1  0.0000000  2.2175200  1
   1436   3026   3028   3030     1  0.0000000  0.0000000  2
   1436   3026   3028   3030     1  180.0000771  0.6276000  3
   1436   3026   3028   3030     1  180.0000771  2.0920000  4
   1437   1435   2999   3001     1  180.0000771  10.4600000  2
   1438   1436   3026   3028     1  180.0000771  10.4600000  2
   1441   1447   1448   1457     1  180.0000771  2.0083200  2
   1441   1447   1448   1457     1  0.0000000  1.2552000  3
   1441   1447   1451   1454     1  180.0000771  2.0083200  2
   1441   1447   1451   1454     1  0.0000000  1.2552000  3
   1444   1441   1447   1448     1  180.0000771  2.0083200  2
   1444   1441   1447   1448     1  0.0000000  1.2552000  3
   1444   1441   1447   1451     1  180.0000771  2.0083200  2
   1444   1441   1447   1451     1  0.0000000  1.2552000  3
   1447   1441   1444   1464     1  0.0000000  0.6508444  3
   1447   1448   1457   1461     1  0.0000000  0.6508444  3
   1447   1451   1454   1460     1  0.0000000  0.6508444  3
   1448   1447   1451   1454     1  180.0000771  2.0083200  2
   1448   1447   1451   1454     1  0.0000000  1.2552000  3
   1448   1457   1461   1463     1  180.0000771  0.0000000  2
   1448   1457   1461   3080     1  0.0000000  0.2928800  2
   1448   1457   1461   3080     1  0.0000000  0.4184000  4
   1451   1447   1448   1457     1  180.0000771  2.0083200  2
   1451   1447   1448   1457     1  0.0000000  1.2552000  3
   1451   1454   1460   3053     1  0.0000000  0.2928800  2
   1451   1454   1460   3053     1  0.0000000  0.4184000  4
   1451   1454   1460   1462     1  180.0000771  0.0000000  2
   1454   1460   3053   3055     1  180.0000771  6.2760000  1
   1454   1460   3053   3055     1  0.0000000  0.0000000  2
   1457   1461   3080   3082     1  180.0000771  6.2760000  1
   1457   1461   3080   3082     1  0.0000000  0.0000000  2
   1460   3053   3055   3057     1  0.0000000  2.2175200  1
   1460   3053   3055   3057     1  0.0000000  0.0000000  2
   1460   3053   3055   3057     1  180.0000771  0.6276000  3
   1460   3053   3055   3057     1  180.0000771  2.0920000  4
   1461   3080   3082   3084     1  0.0000000  2.2175200  1
   1461   3080   3082   3084     1  0.0000000  0.0000000  2
   1461   3080   3082   3084     1  180.0000771  0.6276000  3
   1461   3080   3082   3084     1  180.0000771  2.0920000  4
   1462   1460   3053   3055     1  180.0000771  10.4600000  2
   1463   1461   3080   3082     1  180.0000771  10.4600000  2
   1466   1472   1473   1482     1  180.0000771  2.0083200  2
   1466   1472   1473   1482     1  0.0000000  1.2552000  3
   1466   1472   1476   1479     1  180.0000771  2.0083200  2
   1466   1472   1476   1479     1  0.0000000  1.2552000  3
   1469   1466   1472   1473     1  180.0000771  2.0083200  2
   1469   1466   1472   1473     1  0.0000000  1.2552000  3
   1469   1466   1472   1476     1  180.0000771  2.0083200  2
   1469   1466   1472   1476     1  0.0000000  1.2552000  3
   1472   1466   1469   1489     1  0.0000000  0.6508444  3
   1472   1473   1482   1486     1  0.0000000  0.6508444  3
   1472   1476   1479   1485     1  0.0000000  0.6508444  3
   1473   1472   1476   1479     1  180.0000771  2.0083200  2
   1473   1472   1476   1479     1  0.0000000  1.2552000  3
   1473   1482   1486   1488     1  180.0000771  0.0000000  2
   1473   1482   1486   3134     1  0.0000000  0.2928800  2
   1473   1482   1486   3134     1  0.0000000  0.4184000  4
   1476   1472   1473   1482     1  180.0000771  2.0083200  2
   1476   1472   1473   1482     1  0.0000000  1.2552000  3
   1476   1479   1485   3107     1  0.0000000  0.2928800  2
   1476   1479   1485   3107     1  0.0000000  0.4184000  4
   1476   1479   1485   1487     1  180.0000771  0.0000000  2
   1479   1485   3107   3109     1  180.0000771  6.2760000  1
   1479   1485   3107   3109     1  0.0000000  0.0000000  2
   1482   1486   3134   3136     1  180.0000771  6.2760000  1
   1482   1486   3134   3136     1  0.0000000  0.0000000  2
   1485   3107   3109   3111     1  0.0000000  2.2175200  1
   1485   3107   3109   3111     1  0.0000000  0.0000000  2
   1485   3107   3109   3111     1  180.0000771  0.6276000  3
   1485   3107   3109   3111     1  180.0000771  2.0920000  4
   1486   3134   3136   3138     1  0.0000000  2.2175200  1
   1486   3134   3136   3138     1  0.0000000  0.0000000  2
   1486   3134   3136   3138     1  180.0000771  0.6276000  3
   1486   3134   3136   3138     1  180.0000771  2.0920000  4
   1487   1485   3107   3109     1  180.0000771  10.4600000  2
   1488   1486   3134   3136     1  180.0000771  10.4600000  2
   1491   1497   1498   1507     1  180.0000771  2.0083200  2
   1491   1497   1498   1507     1  0.0000000  1.2552000  3
   1491   1497   1501   1504     1  180.0000771  2.0083200  2
   1491   1497   1501   1504     1  0.0000000  1.2552000  3
   1494   1491   1497   1498     1  180.0000771  2.0083200  2
   1494   1491   1497   1498     1  0.0000000  1.2552000  3
   1494   1491   1497   1501     1  180.0000771  2.0083200  2
   1494   1491   1497   1501     1  0.0000000  1.2552000  3
   1497   1491   1494   1514     1  0.0000000  0.6508444  3
   1497   1498   1507   1511     1  0.0000000  0.6508444  3
   1497   1501   1504   1510     1  0.0000000  0.6508444  3
   1498   1497   1501   1504     1  180.0000771  2.0083200  2
   1498   1497   1501   1504     1  0.0000000  1.2552000  3
   1498   1507   1511   1513     1  180.0000771  0.0000000  2
   1498   1507   1511   3188     1  0.0000000  0.2928800  2
   1498   1507   1511   3188     1  0.0000000  0.4184000  4
   1501   1497   1498   1507     1  180.0000771  2.0083200  2
   1501   1497   1498   1507     1  0.0000000  1.2552000  3
   1501   1504   1510   3161     1  0.0000000  0.2928800  2
   1501   1504   1510   3161     1  0.0000000  0.4184000  4
   1501   1504   1510   1512     1  180.0000771  0.0000000  2
   1504   1510   3161   3163     1  180.0000771  6.2760000  1
   1504   1510   3161   3163     1  0.0000000  0.0000000  2
   1507   1511   3188   3190     1  180.0000771  6.2760000  1
   1507   1511   3188   3190     1  0.0000000  0.0000000  2
   1510   3161   3163   3165     1  0.0000000  2.2175200  1
   1510   3161   3163   3165     1  0.0000000  0.0000000  2
   1510   3161   3163   3165     1  180.0000771  0.6276000  3
   1510   3161   3163   3165     1  180.0000771  2.0920000  4
   1511   3188   3190   3192     1  0.0000000  2.2175200  1
   1511   3188   3190   3192     1  0.0000000  0.0000000  2
   1511   3188   3190   3192     1  180.0000771  0.6276000  3
   1511   3188   3190   3192     1  180.0000771  2.0920000  4
   1512   1510   3161   3163     1  180.0000771  10.4600000  2
   1513   1511   3188   3190     1  180.0000771  10.4600000  2
   1516   1522   1523   1532     1  180.0000771  2.0083200  2
   1516   1522   1523   1532     1  0.0000000  1.2552000  3
   1516   1522   1526   1529     1  180.0000771  2.0083200  2
   1516   1522   1526   1529     1  0.0000000  1.2552000  3
   1519   1516   1522   1523     1  180.0000771  2.0083200  2
   1519   1516   1522   1523     1  0.0000000  1.2552000  3
   1519   1516   1522   1526     1  180.0000771  2.0083200  2
   1519   1516   1522   1526     1  0.0000000  1.2552000  3
   1522   1516   1519   1539     1  0.0000000  0.6508444  3
   1522   1523   1532   1536     1  0.0000000  0.6508444  3
   1522   1526   1529   1535     1  0.0000000  0.6508444  3
   1523   1522   1526   1529     1  180.0000771  2.0083200  2
   1523   1522   1526   1529     1  0.0000000  1.2552000  3
   1523   1532   1536   3242     1  0.0000000  0.2928800  2
   1523   1532   1536   3242     1  0.0000000  0.4184000  4
   1523   1532   1536   1538     1  180.0000771  0.0000000  2
   1526   1522   1523   1532     1  180.0000771  2.0083200  2
   1526   1522   1523   1532     1  0.0000000  1.2552000  3
   1526   1529   1535   3215     1  0.0000000  0.2928800  2
   1526   1529   1535   3215     1  0.0000000  0.4184000  4
   1526   1529   1535   1537     1  180.0000771  0.0000000  2
   1529   1535   3215   3217     1  180.0000771  6.2760000  1
   1529   1535   3215   3217     1  0.0000000  0.0000000  2
   1532   1536   3242   3244     1  180.0000771  6.2760000  1
   1532   1536   3242   3244     1  0.0000000  0.0000000  2
   1535   3215   3217   3219     1  0.0000000  2.2175200  1
   1535   3215   3217   3219     1  0.0000000  0.0000000  2
   1535   3215   3217   3219     1  180.0000771  0.6276000  3
   1535   3215   3217   3219     1  180.0000771  2.0920000  4
   1536   3242   3244   3246     1  0.0000000  2.2175200  1
   1536   3242   3244   3246     1  0.0000000  0.0000000  2
   1536   3242   3244   3246     1  180.0000771  0.6276000  3
   1536   3242   3244   3246     1  180.0000771  2.0920000  4
   1537   1535   3215   3217     1  180.0000771  10.4600000  2
   1538   1536   3242   3244     1  180.0000771  10.4600000  2
   1541   1543   1545   1549     1  0.0000000  0.6508444  3
   1543   1545   1549   1550     1  180.0000771  2.0083200  2
   1543   1545   1549   1550     1  0.0000000  1.2552000  3
   1543   1545   1549   1551     1  180.0000771  2.0083200  2
   1543   1545   1549   1551     1  0.0000000  1.2552000  3
   1545   1549   1550   1562     1  180.0000771  2.0083200  2
   1545   1549   1550   1562     1  0.0000000  1.2552000  3
   1545   1549   1551   1553     1  180.0000771  2.0083200  2
   1545   1549   1551   1553     1  0.0000000  1.2552000  3
   1549   1550   1562   1565     1  0.0000000  0.6508444  3
   1549   1551   1553   1557     1  0.0000000  0.6508444  3
   1550   1549   1551   1553     1  180.0000771  2.0083200  2
   1550   1549   1551   1553     1  0.0000000  1.2552000  3
   1550   1562   1565   1566     1  180.0000771  0.0000000  2
   1550   1562   1565   1567     1  180.0000771  0.0000000  2
   1551   1549   1550   1562     1  180.0000771  2.0083200  2
   1551   1549   1550   1562     1  0.0000000  1.2552000  3
   1551   1553   1557   1558     1  180.0000771  0.0000000  2
   1551   1553   1557   1559     1  180.0000771  0.0000000  2
   1568   1570   1572   1576     1  0.0000000  0.6508444  3
   1570   1572   1576   1577     1  180.0000771  2.0083200  2
   1570   1572   1576   1577     1  0.0000000  1.2552000  3
   1570   1572   1576   1578     1  180.0000771  2.0083200  2
   1570   1572   1576   1578     1  0.0000000  1.2552000  3
   1572   1576   1577   1589     1  180.0000771  2.0083200  2
   1572   1576   1577   1589     1  0.0000000  1.2552000  3
   1572   1576   1578   1580     1  180.0000771  2.0083200  2
   1572   1576   1578   1580     1  0.0000000  1.2552000  3
   1576   1577   1589   1592     1  0.0000000  0.6508444  3
   1576   1578   1580   1584     1  0.0000000  0.6508444  3
   1577   1589   1592   1593     1  180.0000771  0.0000000  2
   1577   1589   1592   1594     1  180.0000771  0.0000000  2
   1577   1576   1578   1580     1  180.0000771  2.0083200  2
   1577   1576   1578   1580     1  0.0000000  1.2552000  3
   1578   1580   1584   1585     1  180.0000771  0.0000000  2
   1578   1580   1584   1586     1  180.0000771  0.0000000  2
   1578   1576   1577   1589     1  180.0000771  2.0083200  2
   1578   1576   1577   1589     1  0.0000000  1.2552000  3
   1595   1597   1599   1603     1  0.0000000  0.6508444  3
   1597   1599   1603   1604     1  180.0000771  2.0083200  2
   1597   1599   1603   1604     1  0.0000000  1.2552000  3
   1597   1599   1603   1605     1  180.0000771  2.0083200  2
   1597   1599   1603   1605     1  0.0000000  1.2552000  3
   1599   1603   1604   1616     1  180.0000771  2.0083200  2
   1599   1603   1604   1616     1  0.0000000  1.2552000  3
   1599   1603   1605   1607     1  180.0000771  2.0083200  2
   1599   1603   1605   1607     1  0.0000000  1.2552000  3
   1603   1604   1616   1619     1  0.0000000  0.6508444  3
   1603   1605   1607   1611     1  0.0000000  0.6508444  3
   1604   1603   1605   1607     1  180.0000771  2.0083200  2
   1604   1603   1605   1607     1  0.0000000  1.2552000  3
   1604   1616   1619   1620     1  180.0000771  0.0000000  2
   1604   1616   1619   1621     1  180.0000771  0.0000000  2
   1605   1603   1604   1616     1  180.0000771  2.0083200  2
   1605   1603   1604   1616     1  0.0000000  1.2552000  3
   1605   1607   1611   1612     1  180.0000771  0.0000000  2
   1605   1607   1611   1613     1  180.0000771  0.0000000  2
   1622   1624   1626   1630     1  0.0000000  0.6508444  3
   1624   1626   1630   1631     1  180.0000771  2.0083200  2
   1624   1626   1630   1631     1  0.0000000  1.2552000  3
   1624   1626   1630   1632     1  180.0000771  2.0083200  2
   1624   1626   1630   1632     1  0.0000000  1.2552000  3
   1626   1630   1631   1643     1  180.0000771  2.0083200  2
   1626   1630   1631   1643     1  0.0000000  1.2552000  3
   1626   1630   1632   1634     1  180.0000771  2.0083200  2
   1626   1630   1632   1634     1  0.0000000  1.2552000  3
   1630   1631   1643   1646     1  0.0000000  0.6508444  3
   1630   1632   1634   1638     1  0.0000000  0.6508444  3
   1631   1643   1646   1647     1  180.0000771  0.0000000  2
   1631   1643   1646   1648     1  180.0000771  0.0000000  2
   1631   1630   1632   1634     1  180.0000771  2.0083200  2
   1631   1630   1632   1634     1  0.0000000  1.2552000  3
   1632   1634   1638   1639     1  180.0000771  0.0000000  2
   1632   1634   1638   1640     1  180.0000771  0.0000000  2
   1632   1630   1631   1643     1  180.0000771  2.0083200  2
   1632   1630   1631   1643     1  0.0000000  1.2552000  3
   1649   1651   1653   1657     1  0.0000000  0.6508444  3
   1651   1653   1657   1658     1  180.0000771  2.0083200  2
   1651   1653   1657   1658     1  0.0000000  1.2552000  3
   1651   1653   1657   1659     1  180.0000771  2.0083200  2
   1651   1653   1657   1659     1  0.0000000  1.2552000  3
   1653   1657   1658   1670     1  180.0000771  2.0083200  2
   1653   1657   1658   1670     1  0.0000000  1.2552000  3
   1653   1657   1659   1661     1  180.0000771  2.0083200  2
   1653   1657   1659   1661     1  0.0000000  1.2552000  3
   1657   1658   1670   1673     1  0.0000000  0.6508444  3
   1657   1659   1661   1665     1  0.0000000  0.6508444  3
   1658   1657   1659   1661     1  180.0000771  2.0083200  2
   1658   1657   1659   1661     1  0.0000000  1.2552000  3
   1658   1670   1673   1674     1  180.0000771  0.0000000  2
   1658   1670   1673   1675     1  180.0000771  0.0000000  2
   1659   1657   1658   1670     1  180.0000771  2.0083200  2
   1659   1657   1658   1670     1  0.0000000  1.2552000  3
   1659   1661   1665   1666     1  180.0000771  0.0000000  2
   1659   1661   1665   1667     1  180.0000771  0.0000000  2
   1676   1678   1680   1684     1  0.0000000  0.6508444  3
   1678   1680   1684   1685     1  180.0000771  2.0083200  2
   1678   1680   1684   1685     1  0.0000000  1.2552000  3
   1678   1680   1684   1686     1  180.0000771  2.0083200  2
   1678   1680   1684   1686     1  0.0000000  1.2552000  3
   1680   1684   1685   1697     1  180.0000771  2.0083200  2
   1680   1684   1685   1697     1  0.0000000  1.2552000  3
   1680   1684   1686   1688     1  180.0000771  2.0083200  2
   1680   1684   1686   1688     1  0.0000000  1.2552000  3
   1684   1685   1697   1700     1  0.0000000  0.6508444  3
   1684   1686   1688   1692     1  0.0000000  0.6508444  3
   1685   1697   1700   1701     1  180.0000771  0.0000000  2
   1685   1697   1700   1702     1  180.0000771  0.0000000  2
   1685   1684   1686   1688     1  180.0000771  2.0083200  2
   1685   1684   1686   1688     1  0.0000000  1.2552000  3
   1686   1688   1692   1693     1  180.0000771  0.0000000  2
   1686   1688   1692   1694     1  180.0000771  0.0000000  2
   1686   1684   1685   1697     1  180.0000771  2.0083200  2
   1686   1684   1685   1697     1  0.0000000  1.2552000  3
   1703   1705   1707   1711     1  0.0000000  0.6508444  3
   1705   1707   1711   1712     1  180.0000771  2.0083200  2
   1705   1707   1711   1712     1  0.0000000  1.2552000  3
   1705   1707   1711   1713     1  180.0000771  2.0083200  2
   1705   1707   1711   1713     1  0.0000000  1.2552000  3
   1707   1711   1712   1724     1  180.0000771  2.0083200  2
   1707   1711   1712   1724     1  0.0000000  1.2552000  3
   1707   1711   1713   1715     1  180.0000771  2.0083200  2
   1707   1711   1713   1715     1  0.0000000  1.2552000  3
   1711   1712   1724   1727     1  0.0000000  0.6508444  3
   1711   1713   1715   1719     1  0.0000000  0.6508444  3
   1712   1711   1713   1715     1  180.0000771  2.0083200  2
   1712   1711   1713   1715     1  0.0000000  1.2552000  3
   1712   1724   1727   1728     1  180.0000771  0.0000000  2
   1712   1724   1727   1729     1  180.0000771  0.0000000  2
   1713   1711   1712   1724     1  180.0000771  2.0083200  2
   1713   1711   1712   1724     1  0.0000000  1.2552000  3
   1713   1715   1719   1720     1  180.0000771  0.0000000  2
   1713   1715   1719   1721     1  180.0000771  0.0000000  2
   1730   1732   1734   1738     1  0.0000000  0.6508444  3
   1732   1734   1738   1739     1  180.0000771  2.0083200  2
   1732   1734   1738   1739     1  0.0000000  1.2552000  3
   1732   1734   1738   1740     1  180.0000771  2.0083200  2
   1732   1734   1738   1740     1  0.0000000  1.2552000  3
   1734   1738   1739   1751     1  180.0000771  2.0083200  2
   1734   1738   1739   1751     1  0.0000000  1.2552000  3
   1734   1738   1740   1742     1  180.0000771  2.0083200  2
   1734   1738   1740   1742     1  0.0000000  1.2552000  3
   1738   1739   1751   1754     1  0.0000000  0.6508444  3
   1738   1740   1742   1746     1  0.0000000  0.6508444  3
   1739   1751   1754   1755     1  180.0000771  0.0000000  2
   1739   1751   1754   1756     1  180.0000771  0.0000000  2
   1739   1738   1740   1742     1  180.0000771  2.0083200  2
   1739   1738   1740   1742     1  0.0000000  1.2552000  3
   1740   1742   1746   1747     1  180.0000771  0.0000000  2
   1740   1742   1746   1748     1  180.0000771  0.0000000  2
   1740   1738   1739   1751     1  180.0000771  2.0083200  2
   1740   1738   1739   1751     1  0.0000000  1.2552000  3
   1757   1759   1761   1765     1  0.0000000  0.6508444  3
   1759   1761   1765   1766     1  180.0000771  2.0083200  2
   1759   1761   1765   1766     1  0.0000000  1.2552000  3
   1759   1761   1765   1767     1  180.0000771  2.0083200  2
   1759   1761   1765   1767     1  0.0000000  1.2552000  3
   1761   1765   1766   1778     1  180.0000771  2.0083200  2
   1761   1765   1766   1778     1  0.0000000  1.2552000  3
   1761   1765   1767   1769     1  180.0000771  2.0083200  2
   1761   1765   1767   1769     1  0.0000000  1.2552000  3
   1765   1766   1778   1781     1  0.0000000  0.6508444  3
   1765   1767   1769   1773     1  0.0000000  0.6508444  3
   1766   1765   1767   1769     1  180.0000771  2.0083200  2
   1766   1765   1767   1769     1  0.0000000  1.2552000  3
   1766   1778   1781   1782     1  180.0000771  0.0000000  2
   1766   1778   1781   1783     1  180.0000771  0.0000000  2
   1767   1765   1766   1778     1  180.0000771  2.0083200  2
   1767   1765   1766   1778     1  0.0000000  1.2552000  3
   1767   1769   1773   1774     1  180.0000771  0.0000000  2
   1767   1769   1773   1775     1  180.0000771  0.0000000  2
   1784   1786   1788   1792     1  0.0000000  0.6508444  3
   1786   1788   1792   1793     1  180.0000771  2.0083200  2
   1786   1788   1792   1793     1  0.0000000  1.2552000  3
   1786   1788   1792   1794     1  180.0000771  2.0083200  2
   1786   1788   1792   1794     1  0.0000000  1.2552000  3
   1788   1792   1793   1805     1  180.0000771  2.0083200  2
   1788   1792   1793   1805     1  0.0000000  1.2552000  3
   1788   1792   1794   1796     1  180.0000771  2.0083200  2
   1788   1792   1794   1796     1  0.0000000  1.2552000  3
   1792   1793   1805   1808     1  0.0000000  0.6508444  3
   1792   1794   1796   1800     1  0.0000000  0.6508444  3
   1793   1805   1808   1809     1  180.0000771  0.0000000  2
   1793   1805   1808   1810     1  180.0000771  0.0000000  2
   1793   1792   1794   1796     1  180.0000771  2.0083200  2
   1793   1792   1794   1796     1  0.0000000  1.2552000  3
   1794   1796   1800   1801     1  180.0000771  0.0000000  2
   1794   1796   1800   1802     1  180.0000771  0.0000000  2
   1794   1792   1793   1805     1  180.0000771  2.0083200  2
   1794   1792   1793   1805     1  0.0000000  1.2552000  3
   1811   1813   1815   1819     1  0.0000000  0.6508444  3
   1813   1815   1819   1820     1  180.0000771  2.0083200  2
   1813   1815   1819   1820     1  0.0000000  1.2552000  3
   1813   1815   1819   1821     1  180.0000771  2.0083200  2
   1813   1815   1819   1821     1  0.0000000  1.2552000  3
   1815   1819   1820   1832     1  180.0000771  2.0083200  2
   1815   1819   1820   1832     1  0.0000000  1.2552000  3
   1815   1819   1821   1823     1  180.0000771  2.0083200  2
   1815   1819   1821   1823     1  0.0000000  1.2552000  3
   1819   1820   1832   1835     1  0.0000000  0.6508444  3
   1819   1821   1823   1827     1  0.0000000  0.6508444  3
   1820   1819   1821   1823     1  180.0000771  2.0083200  2
   1820   1819   1821   1823     1  0.0000000  1.2552000  3
   1820   1832   1835   1836     1  180.0000771  0.0000000  2
   1820   1832   1835   1837     1  180.0000771  0.0000000  2
   1821   1819   1820   1832     1  180.0000771  2.0083200  2
   1821   1819   1820   1832     1  0.0000000  1.2552000  3
   1821   1823   1827   1828     1  180.0000771  0.0000000  2
   1821   1823   1827   1829     1  180.0000771  0.0000000  2
   1838   1840   1842   1846     1  0.0000000  0.6508444  3
   1840   1842   1846   1847     1  180.0000771  2.0083200  2
   1840   1842   1846   1847     1  0.0000000  1.2552000  3
   1840   1842   1846   1848     1  180.0000771  2.0083200  2
   1840   1842   1846   1848     1  0.0000000  1.2552000  3
   1842   1846   1847   1859     1  180.0000771  2.0083200  2
   1842   1846   1847   1859     1  0.0000000  1.2552000  3
   1842   1846   1848   1850     1  180.0000771  2.0083200  2
   1842   1846   1848   1850     1  0.0000000  1.2552000  3
   1846   1847   1859   1862     1  0.0000000  0.6508444  3
   1846   1848   1850   1854     1  0.0000000  0.6508444  3
   1847   1859   1862   1863     1  180.0000771  0.0000000  2
   1847   1859   1862   1864     1  180.0000771  0.0000000  2
   1847   1846   1848   1850     1  180.0000771  2.0083200  2
   1847   1846   1848   1850     1  0.0000000  1.2552000  3
   1848   1850   1854   1855     1  180.0000771  0.0000000  2
   1848   1850   1854   1856     1  180.0000771  0.0000000  2
   1848   1846   1847   1859     1  180.0000771  2.0083200  2
   1848   1846   1847   1859     1  0.0000000  1.2552000  3
   1865   1867   1869   1873     1  0.0000000  0.6508444  3
   1867   1869   1873   1874     1  180.0000771  2.0083200  2
   1867   1869   1873   1874     1  0.0000000  1.2552000  3
   1867   1869   1873   1875     1  180.0000771  2.0083200  2
   1867   1869   1873   1875     1  0.0000000  1.2552000  3
   1869   1873   1874   1886     1  180.0000771  2.0083200  2
   1869   1873   1874   1886     1  0.0000000  1.2552000  3
   1869   1873   1875   1877     1  180.0000771  2.0083200  2
   1869   1873   1875   1877     1  0.0000000  1.2552000  3
   1873   1874   1886   1889     1  0.0000000  0.6508444  3
   1873   1875   1877   1881     1  0.0000000  0.6508444  3
   1874   1873   1875   1877     1  180.0000771  2.0083200  2
   1874   1873   1875   1877     1  0.0000000  1.2552000  3
   1874   1886   1889   1890     1  180.0000771  0.0000000  2
   1874   1886   1889   1891     1  180.0000771  0.0000000  2
   1875   1873   1874   1886     1  180.0000771  2.0083200  2
   1875   1873   1874   1886     1  0.0000000  1.2552000  3
   1875   1877   1881   1882     1  180.0000771  0.0000000  2
   1875   1877   1881   1883     1  180.0000771  0.0000000  2
   1892   1894   1896   1900     1  0.0000000  0.6508444  3
   1894   1896   1900   1901     1  180.0000771  2.0083200  2
   1894   1896   1900   1901     1  0.0000000  1.2552000  3
   1894   1896   1900   1902     1  180.0000771  2.0083200  2
   1894   1896   1900   1902     1  0.0000000  1.2552000  3
   1896   1900   1901   1913     1  180.0000771  2.0083200  2
   1896   1900   1901   1913     1  0.0000000  1.2552000  3
   1896   1900   1902   1904     1  180.0000771  2.0083200  2
   1896   1900   1902   1904     1  0.0000000  1.2552000  3
   1900   1901   1913   1916     1  0.0000000  0.6508444  3
   1900   1902   1904   1908     1  0.0000000  0.6508444  3
   1901   1913   1916   1917     1  180.0000771  0.0000000  2
   1901   1913   1916   1918     1  180.0000771  0.0000000  2
   1901   1900   1902   1904     1  180.0000771  2.0083200  2
   1901   1900   1902   1904     1  0.0000000  1.2552000  3
   1902   1904   1908   1909     1  180.0000771  0.0000000  2
   1902   1904   1908   1910     1  180.0000771  0.0000000  2
   1902   1900   1901   1913     1  180.0000771  2.0083200  2
   1902   1900   1901   1913     1  0.0000000  1.2552000  3
   1919   1921   1923   1927     1  0.0000000  0.6508444  3
   1921   1923   1927   1928     1  180.0000771  2.0083200  2
   1921   1923   1927   1928     1  0.0000000  1.2552000  3
   1921   1923   1927   1929     1  180.0000771  2.0083200  2
   1921   1923   1927   1929     1  0.0000000  1.2552000  3
   1923   1927   1928   1940     1  180.0000771  2.0083200  2
   1923   1927   1928   1940     1  0.0000000  1.2552000  3
   1923   1927   1929   1931     1  180.0000771  2.0083200  2
   1923   1927   1929   1931     1  0.0000000  1.2552000  3
   1927   1928   1940   1943     1  0.0000000  0.6508444  3
   1927   1929   1931   1935     1  0.0000000  0.6508444  3
   1928   1927   1929   1931     1  180.0000771  2.0083200  2
   1928   1927   1929   1931     1  0.0000000  1.2552000  3
   1928   1940   1943   1944     1  180.0000771  0.0000000  2
   1928   1940   1943   1945     1  180.0000771  0.0000000  2
   1929   1927   1928   1940     1  180.0000771  2.0083200  2
   1929   1927   1928   1940     1  0.0000000  1.2552000  3
   1929   1931   1935   1936     1  180.0000771  0.0000000  2
   1929   1931   1935   1937     1  180.0000771  0.0000000  2
   1946   1948   1950   1954     1  0.0000000  0.6508444  3
   1948   1950   1954   1955     1  180.0000771  2.0083200  2
   1948   1950   1954   1955     1  0.0000000  1.2552000  3
   1948   1950   1954   1956     1  180.0000771  2.0083200  2
   1948   1950   1954   1956     1  0.0000000  1.2552000  3
   1950   1954   1955   1967     1  180.0000771  2.0083200  2
   1950   1954   1955   1967     1  0.0000000  1.2552000  3
   1950   1954   1956   1958     1  180.0000771  2.0083200  2
   1950   1954   1956   1958     1  0.0000000  1.2552000  3
   1954   1955   1967   1970     1  0.0000000  0.6508444  3
   1954   1956   1958   1962     1  0.0000000  0.6508444  3
   1955   1967   1970   1971     1  180.0000771  0.0000000  2
   1955   1967   1970   1972     1  180.0000771  0.0000000  2
   1955   1954   1956   1958     1  180.0000771  2.0083200  2
   1955   1954   1956   1958     1  0.0000000  1.2552000  3
   1956   1958   1962   1963     1  180.0000771  0.0000000  2
   1956   1958   1962   1964     1  180.0000771  0.0000000  2
   1956   1954   1955   1967     1  180.0000771  2.0083200  2
   1956   1954   1955   1967     1  0.0000000  1.2552000  3
   1973   1975   1977   1981     1  0.0000000  0.6508444  3
   1975   1977   1981   1982     1  180.0000771  2.0083200  2
   1975   1977   1981   1982     1  0.0000000  1.2552000  3
   1975   1977   1981   1983     1  180.0000771  2.0083200  2
   1975   1977   1981   1983     1  0.0000000  1.2552000  3
   1977   1981   1982   1994     1  180.0000771  2.0083200  2
   1977   1981   1982   1994     1  0.0000000  1.2552000  3
   1977   1981   1983   1985     1  180.0000771  2.0083200  2
   1977   1981   1983   1985     1  0.0000000  1.2552000  3
   1981   1982   1994   1997     1  0.0000000  0.6508444  3
   1981   1983   1985   1989     1  0.0000000  0.6508444  3
   1982   1981   1983   1985     1  180.0000771  2.0083200  2
   1982   1981   1983   1985     1  0.0000000  1.2552000  3
   1982   1994   1997   1998     1  180.0000771  0.0000000  2
   1982   1994   1997   1999     1  180.0000771  0.0000000  2
   1983   1981   1982   1994     1  180.0000771  2.0083200  2
   1983   1981   1982   1994     1  0.0000000  1.2552000  3
   1983   1985   1989   1990     1  180.0000771  0.0000000  2
   1983   1985   1989   1991     1  180.0000771  0.0000000  2
   2000   2002   2004   2008     1  0.0000000  0.6508444  3
   2002   2004   2008   2009     1  180.0000771  2.0083200  2
   2002   2004   2008   2009     1  0.0000000  1.2552000  3
   2002   2004   2008   2010     1  180.0000771  2.0083200  2
   2002   2004   2008   2010     1  0.0000000  1.2552000  3
   2004   2008   2009   2021     1  180.0000771  2.0083200  2
   2004   2008   2009   2021     1  0.0000000  1.2552000  3
   2004   2008   2010   2012     1  180.0000771  2.0083200  2
   2004   2008   2010   2012     1  0.0000000  1.2552000  3
   2008   2009   2021   2024     1  0.0000000  0.6508444  3
   2008   2010   2012   2016     1  0.0000000  0.6508444  3
   2009   2021   2024   2025     1  180.0000771  0.0000000  2
   2009   2021   2024   2026     1  180.0000771  0.0000000  2
   2009   2008   2010   2012     1  180.0000771  2.0083200  2
   2009   2008   2010   2012     1  0.0000000  1.2552000  3
   2010   2012   2016   2017     1  180.0000771  0.0000000  2
   2010   2012   2016   2018     1  180.0000771  0.0000000  2
   2010   2008   2009   2021     1  180.0000771  2.0083200  2
   2010   2008   2009   2021     1  0.0000000  1.2552000  3
   2027   2029   2031   2035     1  0.0000000  0.6508444  3
   2029   2031   2035   2036     1  180.0000771  2.0083200  2
   2029   2031   2035   2036     1  0.0000000  1.2552000  3
   2029   2031   2035   2037     1  180.0000771  2.0083200  2
   2029   2031   2035   2037     1  0.0000000  1.2552000  3
   2031   2035   2036   2048     1  180.0000771  2.0083200  2
   2031   2035   2036   2048     1  0.0000000  1.2552000  3
   2031   2035   2037   2039     1  180.0000771  2.0083200  2
   2031   2035   2037   2039     1  0.0000000  1.2552000  3
   2035   2036   2048   2051     1  0.0000000  0.6508444  3
   2035   2037   2039   2043     1  0.0000000  0.6508444  3
   2036   2035   2037   2039     1  180.0000771  2.0083200  2
   2036   2035   2037   2039     1  0.0000000  1.2552000  3
   2036   2048   2051   2052     1  180.0000771  0.0000000  2
   2036   2048   2051   2053     1  180.0000771  0.0000000  2
   2037   2035   2036   2048     1  180.0000771  2.0083200  2
   2037   2035   2036   2048     1  0.0000000  1.2552000  3
   2037   2039   2043   2044     1  180.0000771  0.0000000  2
   2037   2039   2043   2045     1  180.0000771  0.0000000  2
   2054   2056   2058   2062     1  0.0000000  0.6508444  3
   2056   2058   2062   2063     1  180.0000771  2.0083200  2
   2056   2058   2062   2063     1  0.0000000  1.2552000  3
   2056   2058   2062   2064     1  180.0000771  2.0083200  2
   2056   2058   2062   2064     1  0.0000000  1.2552000  3
   2058   2062   2063   2075     1  180.0000771  2.0083200  2
   2058   2062   2063   2075     1  0.0000000  1.2552000  3
   2058   2062   2064   2066     1  180.0000771  2.0083200  2
   2058   2062   2064   2066     1  0.0000000  1.2552000  3
   2062   2063   2075   2078     1  0.0000000  0.6508444  3
   2062   2064   2066   2070     1  0.0000000  0.6508444  3
   2063   2075   2078   2079     1  180.0000771  0.0000000  2
   2063   2075   2078   2080     1  180.0000771  0.0000000  2
   2063   2062   2064   2066     1  180.0000771  2.0083200  2
   2063   2062   2064   2066     1  0.0000000  1.2552000  3
   2064   2066   2070   2071     1  180.0000771  0.0000000  2
   2064   2066   2070   2072     1  180.0000771  0.0000000  2
   2064   2062   2063   2075     1  180.0000771  2.0083200  2
   2064   2062   2063   2075     1  0.0000000  1.2552000  3
   2081   2083   2085   2089     1  0.0000000  0.6508444  3
   2083   2085   2089   2090     1  180.0000771  2.0083200  2
   2083   2085   2089   2090     1  0.0000000  1.2552000  3
   2083   2085   2089   2091     1  180.0000771  2.0083200  2
   2083   2085   2089   2091     1  0.0000000  1.2552000  3
   2085   2089   2090   2102     1  180.0000771  2.0083200  2
   2085   2089   2090   2102     1  0.0000000  1.2552000  3
   2085   2089   2091   2093     1  180.0000771  2.0083200  2
   2085   2089   2091   2093     1  0.0000000  1.2552000  3
   2089   2090   2102   2105     1  0.0000000  0.6508444  3
   2089   2091   2093   2097     1  0.0000000  0.6508444  3
   2090   2089   2091   2093     1  180.0000771  2.0083200  2
   2090   2089   2091   2093     1  0.0000000  1.2552000  3
   2090   2102   2105   2106     1  180.0000771  0.0000000  2
   2090   2102   2105   2107     1  180.0000771  0.0000000  2
   2091   2089   2090   2102     1  180.0000771  2.0083200  2
   2091   2089   2090   2102     1  0.0000000  1.2552000  3
   2091   2093   2097   2098     1  180.0000771  0.0000000  2
   2091   2093   2097   2099     1  180.0000771  0.0000000  2
   2108   2110   2112   2116     1  0.0000000  0.6508444  3
   2110   2112   2116   2117     1  180.0000771  2.0083200  2
   2110   2112   2116   2117     1  0.0000000  1.2552000  3
   2110   2112   2116   2118     1  180.0000771  2.0083200  2
   2110   2112   2116   2118     1  0.0000000  1.2552000  3
   2112   2116   2117   2129     1  180.0000771  2.0083200  2
   2112   2116   2117   2129     1  0.0000000  1.2552000  3
   2112   2116   2118   2120     1  180.0000771  2.0083200  2
   2112   2116   2118   2120     1  0.0000000  1.2552000  3
   2116   2117   2129   2132     1  0.0000000  0.6508444  3
   2116   2118   2120   2124     1  0.0000000  0.6508444  3
   2117   2129   2132   2133     1  180.0000771  0.0000000  2
   2117   2129   2132   2134     1  180.0000771  0.0000000  2
   2117   2116   2118   2120     1  180.0000771  2.0083200  2
   2117   2116   2118   2120     1  0.0000000  1.2552000  3
   2118   2120   2124   2125     1  180.0000771  0.0000000  2
   2118   2120   2124   2126     1  180.0000771  0.0000000  2
   2118   2116   2117   2129     1  180.0000771  2.0083200  2
   2118   2116   2117   2129     1  0.0000000  1.2552000  3
   2135   2137   2139   2143     1  0.0000000  0.6508444  3
   2137   2139   2143   2144     1  180.0000771  2.0083200  2
   2137   2139   2143   2144     1  0.0000000  1.2552000  3
   2137   2139   2143   2145     1  180.0000771  2.0083200  2
   2137   2139   2143   2145     1  0.0000000  1.2552000  3
   2139   2143   2144   2156     1  180.0000771  2.0083200  2
   2139   2143   2144   2156     1  0.0000000  1.2552000  3
   2139   2143   2145   2147     1  180.0000771  2.0083200  2
   2139   2143   2145   2147     1  0.0000000  1.2552000  3
   2143   2144   2156   2159     1  0.0000000  0.6508444  3
   2143   2145   2147   2151     1  0.0000000  0.6508444  3
   2144   2143   2145   2147     1  180.0000771  2.0083200  2
   2144   2143   2145   2147     1  0.0000000  1.2552000  3
   2144   2156   2159   2160     1  180.0000771  0.0000000  2
   2144   2156   2159   2161     1  180.0000771  0.0000000  2
   2145   2143   2144   2156     1  180.0000771  2.0083200  2
   2145   2143   2144   2156     1  0.0000000  1.2552000  3
   2145   2147   2151   2152     1  180.0000771  0.0000000  2
   2145   2147   2151   2153     1  180.0000771  0.0000000  2
   2162   2164   2166   2170     1  0.0000000  0.6508444  3
   2164   2166   2170   2171     1  180.0000771  2.0083200  2
   2164   2166   2170   2171     1  0.0000000  1.2552000  3
   2164   2166   2170   2172     1  180.0000771  2.0083200  2
   2164   2166   2170   2172     1  0.0000000  1.2552000  3
   2166   2170   2171   2183     1  180.0000771  2.0083200  2
   2166   2170   2171   2183     1  0.0000000  1.2552000  3
   2166   2170   2172   2174     1  180.0000771  2.0083200  2
   2166   2170   2172   2174     1  0.0000000  1.2552000  3
   2170   2171   2183   2186     1  0.0000000  0.6508444  3
   2170   2172   2174   2178     1  0.0000000  0.6508444  3
   2171   2183   2186   2187     1  180.0000771  0.0000000  2
   2171   2183   2186   2188     1  180.0000771  0.0000000  2
   2171   2170   2172   2174     1  180.0000771  2.0083200  2
   2171   2170   2172   2174     1  0.0000000  1.2552000  3
   2172   2174   2178   2179     1  180.0000771  0.0000000  2
   2172   2174   2178   2180     1  180.0000771  0.0000000  2
   2172   2170   2171   2183     1  180.0000771  2.0083200  2
   2172   2170   2171   2183     1  0.0000000  1.2552000  3
   2189   2191   2193   2197     1  0.0000000  0.6508444  3
   2191   2193   2197   2198     1  180.0000771  2.0083200  2
   2191   2193   2197   2198     1  0.0000000  1.2552000  3
   2191   2193   2197   2199     1  180.0000771  2.0083200  2
   2191   2193   2197   2199     1  0.0000000  1.2552000  3
   2193   2197   2198   2210     1  180.0000771  2.0083200  2
   2193   2197   2198   2210     1  0.0000000  1.2552000  3
   2193   2197   2199   2201     1  180.0000771  2.0083200  2
   2193   2197   2199   2201     1  0.0000000  1.2552000  3
   2197   2198   2210   2213     1  0.0000000  0.6508444  3
   2197   2199   2201   2205     1  0.0000000  0.6508444  3
   2198   2197   2199   2201     1  180.0000771  2.0083200  2
   2198   2197   2199   2201     1  0.0000000  1.2552000  3
   2198   2210   2213   2214     1  180.0000771  0.0000000  2
   2198   2210   2213   2215     1  180.0000771  0.0000000  2
   2199   2197   2198   2210     1  180.0000771  2.0083200  2
   2199   2197   2198   2210     1  0.0000000  1.2552000  3
   2199   2201   2205   2206     1  180.0000771  0.0000000  2
   2199   2201   2205   2207     1  180.0000771  0.0000000  2
   2216   2218   2220   2224     1  0.0000000  0.6508444  3
   2218   2220   2224   2225     1  180.0000771  2.0083200  2
   2218   2220   2224   2225     1  0.0000000  1.2552000  3
   2218   2220   2224   2226     1  180.0000771  2.0083200  2
   2218   2220   2224   2226     1  0.0000000  1.2552000  3
   2220   2224   2225   2237     1  180.0000771  2.0083200  2
   2220   2224   2225   2237     1  0.0000000  1.2552000  3
   2220   2224   2226   2228     1  180.0000771  2.0083200  2
   2220   2224   2226   2228     1  0.0000000  1.2552000  3
   2224   2225   2237   2240     1  0.0000000  0.6508444  3
   2224   2226   2228   2232     1  0.0000000  0.6508444  3
   2225   2237   2240   2241     1  180.0000771  0.0000000  2
   2225   2237   2240   2242     1  180.0000771  0.0000000  2
   2225   2224   2226   2228     1  180.0000771  2.0083200  2
   2225   2224   2226   2228     1  0.0000000  1.2552000  3
   2226   2228   2232   2233     1  180.0000771  0.0000000  2
   2226   2228   2232   2234     1  180.0000771  0.0000000  2
   2226   2224   2225   2237     1  180.0000771  2.0083200  2
   2226   2224   2225   2237     1  0.0000000  1.2552000  3
   2243   2245   2247   2251     1  0.0000000  0.6508444  3
   2245   2247   2251   2252     1  180.0000771  2.0083200  2
   2245   2247   2251   2252     1  0.0000000  1.2552000  3
   2245   2247   2251   2253     1  180.0000771  2.0083200  2
   2245   2247   2251   2253     1  0.0000000  1.2552000  3
   2247   2251   2252   2264     1  180.0000771  2.0083200  2
   2247   2251   2252   2264     1  0.0000000  1.2552000  3
   2247   2251   2253   2255     1  180.0000771  2.0083200  2
   2247   2251   2253   2255     1  0.0000000  1.2552000  3
   2251   2252   2264   2267     1  0.0000000  0.6508444  3
   2251   2253   2255   2259     1  0.0000000  0.6508444  3
   2252   2251   2253   2255     1  180.0000771  2.0083200  2
   2252   2251   2253   2255     1  0.0000000  1.2552000  3
   2252   2264   2267   2268     1  180.0000771  0.0000000  2
   2252   2264   2267   2269     1  180.0000771  0.0000000  2
   2253   2251   2252   2264     1  180.0000771  2.0083200  2
   2253   2251   2252   2264     1  0.0000000  1.2552000  3
   2253   2255   2259   2260     1  180.0000771  0.0000000  2
   2253   2255   2259   2261     1  180.0000771  0.0000000  2
   2270   2272   2274   2278     1  0.0000000  0.6508444  3
   2272   2274   2278   2279     1  180.0000771  2.0083200  2
   2272   2274   2278   2279     1  0.0000000  1.2552000  3
   2272   2274   2278   2280     1  180.0000771  2.0083200  2
   2272   2274   2278   2280     1  0.0000000  1.2552000  3
   2274   2278   2279   2291     1  180.0000771  2.0083200  2
   2274   2278   2279   2291     1  0.0000000  1.2552000  3
   2274   2278   2280   2282     1  180.0000771  2.0083200  2
   2274   2278   2280   2282     1  0.0000000  1.2552000  3
   2278   2279   2291   2294     1  0.0000000  0.6508444  3
   2278   2280   2282   2286     1  0.0000000  0.6508444  3
   2279   2291   2294   2295     1  180.0000771  0.0000000  2
   2279   2291   2294   2296     1  180.0000771  0.0000000  2
   2279   2278   2280   2282     1  180.0000771  2.0083200  2
   2279   2278   2280   2282     1  0.0000000  1.2552000  3
   2280   2282   2286   2287     1  180.0000771  0.0000000  2
   2280   2282   2286   2288     1  180.0000771  0.0000000  2
   2280   2278   2279   2291     1  180.0000771  2.0083200  2
   2280   2278   2279   2291     1  0.0000000  1.2552000  3
   2297   2299   2301   2305     1  0.0000000  0.6508444  3
   2299   2301   2305   2306     1  180.0000771  2.0083200  2
   2299   2301   2305   2306     1  0.0000000  1.2552000  3
   2299   2301   2305   2307     1  180.0000771  2.0083200  2
   2299   2301   2305   2307     1  0.0000000  1.2552000  3
   2301   2305   2306   2318     1  180.0000771  2.0083200  2
   2301   2305   2306   2318     1  0.0000000  1.2552000  3
   2301   2305   2307   2309     1  180.0000771  2.0083200  2
   2301   2305   2307   2309     1  0.0000000  1.2552000  3
   2305   2306   2318   2321     1  0.0000000  0.6508444  3
   2305   2307   2309   2313     1  0.0000000  0.6508444  3
   2306   2305   2307   2309     1  180.0000771  2.0083200  2
   2306   2305   2307   2309     1  0.0000000  1.2552000  3
   2306   2318   2321   2322     1  180.0000771  0.0000000  2
   2306   2318   2321   2323     1  180.0000771  0.0000000  2
   2307   2305   2306   2318     1  180.0000771  2.0083200  2
   2307   2305   2306   2318     1  0.0000000  1.2552000  3
   2307   2309   2313   2314     1  180.0000771  0.0000000  2
   2307   2309   2313   2315     1  180.0000771  0.0000000  2
   2324   2326   2328   2332     1  0.0000000  0.6508444  3
   2326   2328   2332   2333     1  180.0000771  2.0083200  2
   2326   2328   2332   2333     1  0.0000000  1.2552000  3
   2326   2328   2332   2334     1  180.0000771  2.0083200  2
   2326   2328   2332   2334     1  0.0000000  1.2552000  3
   2328   2332   2333   2345     1  180.0000771  2.0083200  2
   2328   2332   2333   2345     1  0.0000000  1.2552000  3
   2328   2332   2334   2336     1  180.0000771  2.0083200  2
   2328   2332   2334   2336     1  0.0000000  1.2552000  3
   2332   2333   2345   2348     1  0.0000000  0.6508444  3
   2332   2334   2336   2340     1  0.0000000  0.6508444  3
   2333   2345   2348   2349     1  180.0000771  0.0000000  2
   2333   2345   2348   2350     1  180.0000771  0.0000000  2
   2333   2332   2334   2336     1  180.0000771  2.0083200  2
   2333   2332   2334   2336     1  0.0000000  1.2552000  3
   2334   2336   2340   2341     1  180.0000771  0.0000000  2
   2334   2336   2340   2342     1  180.0000771  0.0000000  2
   2334   2332   2333   2345     1  180.0000771  2.0083200  2
   2334   2332   2333   2345     1  0.0000000  1.2552000  3
   2351   2353   2355   2359     1  0.0000000  0.6508444  3
   2353   2355   2359   2360     1  180.0000771  2.0083200  2
   2353   2355   2359   2360     1  0.0000000  1.2552000  3
   2353   2355   2359   2361     1  180.0000771  2.0083200  2
   2353   2355   2359   2361     1  0.0000000  1.2552000  3
   2355   2359   2360   2372     1  180.0000771  2.0083200  2
   2355   2359   2360   2372     1  0.0000000  1.2552000  3
   2355   2359   2361   2363     1  180.0000771  2.0083200  2
   2355   2359   2361   2363     1  0.0000000  1.2552000  3
   2359   2360   2372   2375     1  0.0000000  0.6508444  3
   2359   2361   2363   2367     1  0.0000000  0.6508444  3
   2360   2359   2361   2363     1  180.0000771  2.0083200  2
   2360   2359   2361   2363     1  0.0000000  1.2552000  3
   2360   2372   2375   2376     1  180.0000771  0.0000000  2
   2360   2372   2375   2377     1  180.0000771  0.0000000  2
   2361   2359   2360   2372     1  180.0000771  2.0083200  2
   2361   2359   2360   2372     1  0.0000000  1.2552000  3
   2361   2363   2367   2368     1  180.0000771  0.0000000  2
   2361   2363   2367   2369     1  180.0000771  0.0000000  2
   2378   2380   2382   2386     1  0.0000000  0.6508444  3
   2380   2382   2386   2387     1  180.0000771  2.0083200  2
   2380   2382   2386   2387     1  0.0000000  1.2552000  3
   2380   2382   2386   2388     1  180.0000771  2.0083200  2
   2380   2382   2386   2388     1  0.0000000  1.2552000  3
   2382   2386   2387   2399     1  180.0000771  2.0083200  2
   2382   2386   2387   2399     1  0.0000000  1.2552000  3
   2382   2386   2388   2390     1  180.0000771  2.0083200  2
   2382   2386   2388   2390     1  0.0000000  1.2552000  3
   2386   2387   2399   2402     1  0.0000000  0.6508444  3
   2386   2388   2390   2394     1  0.0000000  0.6508444  3
   2387   2399   2402   2403     1  180.0000771  0.0000000  2
   2387   2399   2402   2404     1  180.0000771  0.0000000  2
   2387   2386   2388   2390     1  180.0000771  2.0083200  2
   2387   2386   2388   2390     1  0.0000000  1.2552000  3
   2388   2390   2394   2395     1  180.0000771  0.0000000  2
   2388   2390   2394   2396     1  180.0000771  0.0000000  2
   2388   2386   2387   2399     1  180.0000771  2.0083200  2
   2388   2386   2387   2399     1  0.0000000  1.2552000  3
   2405   2407   2409   2413     1  0.0000000  0.6508444  3
   2407   2409   2413   2414     1  180.0000771  2.0083200  2
   2407   2409   2413   2414     1  0.0000000  1.2552000  3
   2407   2409   2413   2415     1  180.0000771  2.0083200  2
   2407   2409   2413   2415     1  0.0000000  1.2552000  3
   2409   2413   2414   2426     1  180.0000771  2.0083200  2
   2409   2413   2414   2426     1  0.0000000  1.2552000  3
   2409   2413   2415   2417     1  180.0000771  2.0083200  2
   2409   2413   2415   2417     1  0.0000000  1.2552000  3
   2413   2414   2426   2429     1  0.0000000  0.6508444  3
   2413   2415   2417   2421     1  0.0000000  0.6508444  3
   2414   2413   2415   2417     1  180.0000771  2.0083200  2
   2414   2413   2415   2417     1  0.0000000  1.2552000  3
   2414   2426   2429   2430     1  180.0000771  0.0000000  2
   2414   2426   2429   2431     1  180.0000771  0.0000000  2
   2415   2413   2414   2426     1  180.0000771  2.0083200  2
   2415   2413   2414   2426     1  0.0000000  1.2552000  3
   2415   2417   2421   2422     1  180.0000771  0.0000000  2
   2415   2417   2421   2423     1  180.0000771  0.0000000  2
   2432   2434   2436   2440     1  0.0000000  0.6508444  3
   2434   2436   2440   2441     1  180.0000771  2.0083200  2
   2434   2436   2440   2441     1  0.0000000  1.2552000  3
   2434   2436   2440   2442     1  180.0000771  2.0083200  2
   2434   2436   2440   2442     1  0.0000000  1.2552000  3
   2436   2440   2441   2453     1  180.0000771  2.0083200  2
   2436   2440   2441   2453     1  0.0000000  1.2552000  3
   2436   2440   2442   2444     1  180.0000771  2.0083200  2
   2436   2440   2442   2444     1  0.0000000  1.2552000  3
   2440   2441   2453   2456     1  0.0000000  0.6508444  3
   2440   2442   2444   2448     1  0.0000000  0.6508444  3
   2441   2453   2456   2457     1  180.0000771  0.0000000  2
   2441   2453   2456   2458     1  180.0000771  0.0000000  2
   2441   2440   2442   2444     1  180.0000771  2.0083200  2
   2441   2440   2442   2444     1  0.0000000  1.2552000  3
   2442   2444   2448   2449     1  180.0000771  0.0000000  2
   2442   2444   2448   2450     1  180.0000771  0.0000000  2
   2442   2440   2441   2453     1  180.0000771  2.0083200  2
   2442   2440   2441   2453     1  0.0000000  1.2552000  3
   2459   2461   2463   2467     1  0.0000000  0.6508444  3
   2461   2463   2467   2468     1  180.0000771  2.0083200  2
   2461   2463   2467   2468     1  0.0000000  1.2552000  3
   2461   2463   2467   2469     1  180.0000771  2.0083200  2
   2461   2463   2467   2469     1  0.0000000  1.2552000  3
   2463   2467   2468   2480     1  180.0000771  2.0083200  2
   2463   2467   2468   2480     1  0.0000000  1.2552000  3
   2463   2467   2469   2471     1  180.0000771  2.0083200  2
   2463   2467   2469   2471     1  0.0000000  1.2552000  3
   2467   2468   2480   2483     1  0.0000000  0.6508444  3
   2467   2469   2471   2475     1  0.0000000  0.6508444  3
   2468   2467   2469   2471     1  180.0000771  2.0083200  2
   2468   2467   2469   2471     1  0.0000000  1.2552000  3
   2468   2480   2483   2484     1  180.0000771  0.0000000  2
   2468   2480   2483   2485     1  180.0000771  0.0000000  2
   2469   2467   2468   2480     1  180.0000771  2.0083200  2
   2469   2467   2468   2480     1  0.0000000  1.2552000  3
   2469   2471   2475   2476     1  180.0000771  0.0000000  2
   2469   2471   2475   2477     1  180.0000771  0.0000000  2
   2486   2488   2490   2494     1  0.0000000  0.6508444  3
   2488   2490   2494   2495     1  180.0000771  2.0083200  2
   2488   2490   2494   2495     1  0.0000000  1.2552000  3
   2488   2490   2494   2496     1  180.0000771  2.0083200  2
   2488   2490   2494   2496     1  0.0000000  1.2552000  3
   2490   2494   2495   2507     1  180.0000771  2.0083200  2
   2490   2494   2495   2507     1  0.0000000  1.2552000  3
   2490   2494   2496   2498     1  180.0000771  2.0083200  2
   2490   2494   2496   2498     1  0.0000000  1.2552000  3
   2494   2495   2507   2510     1  0.0000000  0.6508444  3
   2494   2496   2498   2502     1  0.0000000  0.6508444  3
   2495   2507   2510   2511     1  180.0000771  0.0000000  2
   2495   2507   2510   2512     1  180.0000771  0.0000000  2
   2495   2494   2496   2498     1  180.0000771  2.0083200  2
   2495   2494   2496   2498     1  0.0000000  1.2552000  3
   2496   2498   2502   2503     1  180.0000771  0.0000000  2
   2496   2498   2502   2504     1  180.0000771  0.0000000  2
   2496   2494   2495   2507     1  180.0000771  2.0083200  2
   2496   2494   2495   2507     1  0.0000000  1.2552000  3
   2513   2515   2517   2521     1  0.0000000  0.6508444  3
   2515   2517   2521   2522     1  180.0000771  2.0083200  2
   2515   2517   2521   2522     1  0.0000000  1.2552000  3
   2515   2517   2521   2523     1  180.0000771  2.0083200  2
   2515   2517   2521   2523     1  0.0000000  1.2552000  3
   2517   2521   2522   2534     1  180.0000771  2.0083200  2
   2517   2521   2522   2534     1  0.0000000  1.2552000  3
   2517   2521   2523   2525     1  180.0000771  2.0083200  2
   2517   2521   2523   2525     1  0.0000000  1.2552000  3
   2521   2522   2534   2537     1  0.0000000  0.6508444  3
   2521   2523   2525   2529     1  0.0000000  0.6508444  3
   2522   2521   2523   2525     1  180.0000771  2.0083200  2
   2522   2521   2523   2525     1  0.0000000  1.2552000  3
   2522   2534   2537   2538     1  180.0000771  0.0000000  2
   2522   2534   2537   2539     1  180.0000771  0.0000000  2
   2523   2521   2522   2534     1  180.0000771  2.0083200  2
   2523   2521   2522   2534     1  0.0000000  1.2552000  3
   2523   2525   2529   2530     1  180.0000771  0.0000000  2
   2523   2525   2529   2531     1  180.0000771  0.0000000  2
   2540   2542   2544   2548     1  0.0000000  0.6508444  3
   2542   2544   2548   2549     1  180.0000771  2.0083200  2
   2542   2544   2548   2549     1  0.0000000  1.2552000  3
   2542   2544   2548   2550     1  180.0000771  2.0083200  2
   2542   2544   2548   2550     1  0.0000000  1.2552000  3
   2544   2548   2549   2561     1  180.0000771  2.0083200  2
   2544   2548   2549   2561     1  0.0000000  1.2552000  3
   2544   2548   2550   2552     1  180.0000771  2.0083200  2
   2544   2548   2550   2552     1  0.0000000  1.2552000  3
   2548   2549   2561   2564     1  0.0000000  0.6508444  3
   2548   2550   2552   2556     1  0.0000000  0.6508444  3
   2549   2561   2564   2565     1  180.0000771  0.0000000  2
   2549   2561   2564   2566     1  180.0000771  0.0000000  2
   2549   2548   2550   2552     1  180.0000771  2.0083200  2
   2549   2548   2550   2552     1  0.0000000  1.2552000  3
   2550   2552   2556   2557     1  180.0000771  0.0000000  2
   2550   2552   2556   2558     1  180.0000771  0.0000000  2
   2550   2548   2549   2561     1  180.0000771  2.0083200  2
   2550   2548   2549   2561     1  0.0000000  1.2552000  3
   2567   2569   2571   2575     1  0.0000000  0.6508444  3
   2569   2571   2575   2576     1  180.0000771  2.0083200  2
   2569   2571   2575   2576     1  0.0000000  1.2552000  3
   2569   2571   2575   2577     1  180.0000771  2.0083200  2
   2569   2571   2575   2577     1  0.0000000  1.2552000  3
   2571   2575   2576   2588     1  180.0000771  2.0083200  2
   2571   2575   2576   2588     1  0.0000000  1.2552000  3
   2571   2575   2577   2579     1  180.0000771  2.0083200  2
   2571   2575   2577   2579     1  0.0000000  1.2552000  3
   2575   2576   2588   2591     1  0.0000000  0.6508444  3
   2575   2577   2579   2583     1  0.0000000  0.6508444  3
   2576   2575   2577   2579     1  180.0000771  2.0083200  2
   2576   2575   2577   2579     1  0.0000000  1.2552000  3
   2576   2588   2591   2592     1  180.0000771  0.0000000  2
   2576   2588   2591   2593     1  180.0000771  0.0000000  2
   2577   2575   2576   2588     1  180.0000771  2.0083200  2
   2577   2575   2576   2588     1  0.0000000  1.2552000  3
   2577   2579   2583   2584     1  180.0000771  0.0000000  2
   2577   2579   2583   2585     1  180.0000771  0.0000000  2
   2594   2596   2598   2602     1  0.0000000  0.6508444  3
   2596   2598   2602   2603     1  180.0000771  2.0083200  2
   2596   2598   2602   2603     1  0.0000000  1.2552000  3
   2596   2598   2602   2604     1  180.0000771  2.0083200  2
   2596   2598   2602   2604     1  0.0000000  1.2552000  3
   2598   2602   2603   2615     1  180.0000771  2.0083200  2
   2598   2602   2603   2615     1  0.0000000  1.2552000  3
   2598   2602   2604   2606     1  180.0000771  2.0083200  2
   2598   2602   2604   2606     1  0.0000000  1.2552000  3
   2602   2603   2615   2618     1  0.0000000  0.6508444  3
   2602   2604   2606   2610     1  0.0000000  0.6508444  3
   2603   2615   2618   2619     1  180.0000771  0.0000000  2
   2603   2615   2618   2620     1  180.0000771  0.0000000  2
   2603   2602   2604   2606     1  180.0000771  2.0083200  2
   2603   2602   2604   2606     1  0.0000000  1.2552000  3
   2604   2606   2610   2611     1  180.0000771  0.0000000  2
   2604   2606   2610   2612     1  180.0000771  0.0000000  2
   2604   2602   2603   2615     1  180.0000771  2.0083200  2
   2604   2602   2603   2615     1  0.0000000  1.2552000  3
   2621   2623   2625   2629     1  0.0000000  0.6508444  3
   2623   2625   2629   2630     1  180.0000771  2.0083200  2
   2623   2625   2629   2630     1  0.0000000  1.2552000  3
   2623   2625   2629   2631     1  180.0000771  2.0083200  2
   2623   2625   2629   2631     1  0.0000000  1.2552000  3
   2625   2629   2630   2642     1  180.0000771  2.0083200  2
   2625   2629   2630   2642     1  0.0000000  1.2552000  3
   2625   2629   2631   2633     1  180.0000771  2.0083200  2
   2625   2629   2631   2633     1  0.0000000  1.2552000  3
   2629   2630   2642   2645     1  0.0000000  0.6508444  3
   2629   2631   2633   2637     1  0.0000000  0.6508444  3
   2630   2629   2631   2633     1  180.0000771  2.0083200  2
   2630   2629   2631   2633     1  0.0000000  1.2552000  3
   2630   2642   2645   2646     1  180.0000771  0.0000000  2
   2630   2642   2645   2647     1  180.0000771  0.0000000  2
   2631   2629   2630   2642     1  180.0000771  2.0083200  2
   2631   2629   2630   2642     1  0.0000000  1.2552000  3
   2631   2633   2637   2638     1  180.0000771  0.0000000  2
   2631   2633   2637   2639     1  180.0000771  0.0000000  2
   2648   2650   2652   2656     1  0.0000000  0.6508444  3
   2650   2652   2656   2657     1  180.0000771  2.0083200  2
   2650   2652   2656   2657     1  0.0000000  1.2552000  3
   2650   2652   2656   2658     1  180.0000771  2.0083200  2
   2650   2652   2656   2658     1  0.0000000  1.2552000  3
   2652   2656   2657   2669     1  180.0000771  2.0083200  2
   2652   2656   2657   2669     1  0.0000000  1.2552000  3
   2652   2656   2658   2660     1  180.0000771  2.0083200  2
   2652   2656   2658   2660     1  0.0000000  1.2552000  3
   2656   2657   2669   2672     1  0.0000000  0.6508444  3
   2656   2658   2660   2664     1  0.0000000  0.6508444  3
   2657   2669   2672   2673     1  180.0000771  0.0000000  2
   2657   2669   2672   2674     1  180.0000771  0.0000000  2
   2657   2656   2658   2660     1  180.0000771  2.0083200  2
   2657   2656   2658   2660     1  0.0000000  1.2552000  3
   2658   2660   2664   2665     1  180.0000771  0.0000000  2
   2658   2660   2664   2666     1  180.0000771  0.0000000  2
   2658   2656   2657   2669     1  180.0000771  2.0083200  2
   2658   2656   2657   2669     1  0.0000000  1.2552000  3
   2675   2677   2679   2683     1  0.0000000  0.6508444  3
   2677   2679   2683   2684     1  180.0000771  2.0083200  2
   2677   2679   2683   2684     1  0.0000000  1.2552000  3
   2677   2679   2683   2685     1  180.0000771  2.0083200  2
   2677   2679   2683   2685     1  0.0000000  1.2552000  3
   2679   2683   2684   2696     1  180.0000771  2.0083200  2
   2679   2683   2684   2696     1  0.0000000  1.2552000  3
   2679   2683   2685   2687     1  180.0000771  2.0083200  2
   2679   2683   2685   2687     1  0.0000000  1.2552000  3
   2683   2684   2696   2699     1  0.0000000  0.6508444  3
   2683   2685   2687   2691     1  0.0000000  0.6508444  3
   2684   2683   2685   2687     1  180.0000771  2.0083200  2
   2684   2683   2685   2687     1  0.0000000  1.2552000  3
   2684   2696   2699   2700     1  180.0000771  0.0000000  2
   2684   2696   2699   2701     1  180.0000771  0.0000000  2
   2685   2683   2684   2696     1  180.0000771  2.0083200  2
   2685   2683   2684   2696     1  0.0000000  1.2552000  3
   2685   2687   2691   2692     1  180.0000771  0.0000000  2
   2685   2687   2691   2693     1  180.0000771  0.0000000  2
   2702   2704   2706   2710     1  0.0000000  0.6508444  3
   2704   2706   2710   2711     1  180.0000771  2.0083200  2
   2704   2706   2710   2711     1  0.0000000  1.2552000  3
   2704   2706   2710   2712     1  180.0000771  2.0083200  2
   2704   2706   2710   2712     1  0.0000000  1.2552000  3
   2706   2710   2711   2723     1  180.0000771  2.0083200  2
   2706   2710   2711   2723     1  0.0000000  1.2552000  3
   2706   2710   2712   2714     1  180.0000771  2.0083200  2
   2706   2710   2712   2714     1  0.0000000  1.2552000  3
   2710   2711   2723   2726     1  0.0000000  0.6508444  3
   2710   2712   2714   2718     1  0.0000000  0.6508444  3
   2711   2723   2726   2727     1  180.0000771  0.0000000  2
   2711   2723   2726   2728     1  180.0000771  0.0000000  2
   2711   2710   2712   2714     1  180.0000771  2.0083200  2
   2711   2710   2712   2714     1  0.0000000  1.2552000  3
   2712   2714   2718   2719     1  180.0000771  0.0000000  2
   2712   2714   2718   2720     1  180.0000771  0.0000000  2
   2712   2710   2711   2723     1  180.0000771  2.0083200  2
   2712   2710   2711   2723     1  0.0000000  1.2552000  3
   2729   2731   2733   2737     1  0.0000000  0.6508444  3
   2731   2733   2737   2738     1  180.0000771  2.0083200  2
   2731   2733   2737   2738     1  0.0000000  1.2552000  3
   2731   2733   2737   2739     1  180.0000771  2.0083200  2
   2731   2733   2737   2739     1  0.0000000  1.2552000  3
   2733   2737   2738   2750     1  180.0000771  2.0083200  2
   2733   2737   2738   2750     1  0.0000000  1.2552000  3
   2733   2737   2739   2741     1  180.0000771  2.0083200  2
   2733   2737   2739   2741     1  0.0000000  1.2552000  3
   2737   2738   2750   2753     1  0.0000000  0.6508444  3
   2737   2739   2741   2745     1  0.0000000  0.6508444  3
   2738   2737   2739   2741     1  180.0000771  2.0083200  2
   2738   2737   2739   2741     1  0.0000000  1.2552000  3
   2738   2750   2753   2754     1  180.0000771  0.0000000  2
   2738   2750   2753   2755     1  180.0000771  0.0000000  2
   2739   2737   2738   2750     1  180.0000771  2.0083200  2
   2739   2737   2738   2750     1  0.0000000  1.2552000  3
   2739   2741   2745   2746     1  180.0000771  0.0000000  2
   2739   2741   2745   2747     1  180.0000771  0.0000000  2
   2756   2758   2760   2764     1  0.0000000  0.6508444  3
   2758   2760   2764   2765     1  180.0000771  2.0083200  2
   2758   2760   2764   2765     1  0.0000000  1.2552000  3
   2758   2760   2764   2766     1  180.0000771  2.0083200  2
   2758   2760   2764   2766     1  0.0000000  1.2552000  3
   2760   2764   2765   2777     1  180.0000771  2.0083200  2
   2760   2764   2765   2777     1  0.0000000  1.2552000  3
   2760   2764   2766   2768     1  180.0000771  2.0083200  2
   2760   2764   2766   2768     1  0.0000000  1.2552000  3
   2764   2765   2777   2780     1  0.0000000  0.6508444  3
   2764   2766   2768   2772     1  0.0000000  0.6508444  3
   2765   2777   2780   2781     1  180.0000771  0.0000000  2
   2765   2777   2780   2782     1  180.0000771  0.0000000  2
   2765   2764   2766   2768     1  180.0000771  2.0083200  2
   2765   2764   2766   2768     1  0.0000000  1.2552000  3
   2766   2768   2772   2773     1  180.0000771  0.0000000  2
   2766   2768   2772   2774     1  180.0000771  0.0000000  2
   2766   2764   2765   2777     1  180.0000771  2.0083200  2
   2766   2764   2765   2777     1  0.0000000  1.2552000  3
   2783   2785   2787   2791     1  0.0000000  0.6508444  3
   2785   2787   2791   2792     1  180.0000771  2.0083200  2
   2785   2787   2791   2792     1  0.0000000  1.2552000  3
   2785   2787   2791   2793     1  180.0000771  2.0083200  2
   2785   2787   2791   2793     1  0.0000000  1.2552000  3
   2787   2791   2792   2804     1  180.0000771  2.0083200  2
   2787   2791   2792   2804     1  0.0000000  1.2552000  3
   2787   2791   2793   2795     1  180.0000771  2.0083200  2
   2787   2791   2793   2795     1  0.0000000  1.2552000  3
   2791   2792   2804   2807     1  0.0000000  0.6508444  3
   2791   2793   2795   2799     1  0.0000000  0.6508444  3
   2792   2791   2793   2795     1  180.0000771  2.0083200  2
   2792   2791   2793   2795     1  0.0000000  1.2552000  3
   2792   2804   2807   2808     1  180.0000771  0.0000000  2
   2792   2804   2807   2809     1  180.0000771  0.0000000  2
   2793   2791   2792   2804     1  180.0000771  2.0083200  2
   2793   2791   2792   2804     1  0.0000000  1.2552000  3
   2793   2795   2799   2800     1  180.0000771  0.0000000  2
   2793   2795   2799   2801     1  180.0000771  0.0000000  2
   2810   2812   2814   2818     1  0.0000000  0.6508444  3
   2812   2814   2818   2819     1  180.0000771  2.0083200  2
   2812   2814   2818   2819     1  0.0000000  1.2552000  3
   2812   2814   2818   2820     1  180.0000771  2.0083200  2
   2812   2814   2818   2820     1  0.0000000  1.2552000  3
   2814   2818   2819   2831     1  180.0000771  2.0083200  2
   2814   2818   2819   2831     1  0.0000000  1.2552000  3
   2814   2818   2820   2822     1  180.0000771  2.0083200  2
   2814   2818   2820   2822     1  0.0000000  1.2552000  3
   2818   2819   2831   2834     1  0.0000000  0.6508444  3
   2818   2820   2822   2826     1  0.0000000  0.6508444  3
   2819   2831   2834   2835     1  180.0000771  0.0000000  2
   2819   2831   2834   2836     1  180.0000771  0.0000000  2
   2819   2818   2820   2822     1  180.0000771  2.0083200  2
   2819   2818   2820   2822     1  0.0000000  1.2552000  3
   2820   2822   2826   2827     1  180.0000771  0.0000000  2
   2820   2822   2826   2828     1  180.0000771  0.0000000  2
   2820   2818   2819   2831     1  180.0000771  2.0083200  2
   2820   2818   2819   2831     1  0.0000000  1.2552000  3
   2837   2839   2841   2845     1  0.0000000  0.6508444  3
   2839   2841   2845   2846     1  180.0000771  2.0083200  2
   2839   2841   2845   2846     1  0.0000000  1.2552000  3
   2839   2841   2845   2847     1  180.0000771  2.0083200  2
   2839   2841   2845   2847     1  0.0000000  1.2552000  3
   2841   2845   2846   2858     1  180.0000771  2.0083200  2
   2841   2845   2846   2858     1  0.0000000  1.2552000  3
   2841   2845   2847   2849     1  180.0000771  2.0083200  2
   2841   2845   2847   2849     1  0.0000000  1.2552000  3
   2845   2846   2858   2861     1  0.0000000  0.6508444  3
   2845   2847   2849   2853     1  0.0000000  0.6508444  3
   2846   2845   2847   2849     1  180.0000771  2.0083200  2
   2846   2845   2847   2849     1  0.0000000  1.2552000  3
   2846   2858   2861   2862     1  180.0000771  0.0000000  2
   2846   2858   2861   2863     1  180.0000771  0.0000000  2
   2847   2845   2846   2858     1  180.0000771  2.0083200  2
   2847   2845   2846   2858     1  0.0000000  1.2552000  3
   2847   2849   2853   2854     1  180.0000771  0.0000000  2
   2847   2849   2853   2855     1  180.0000771  0.0000000  2
   2864   2866   2868   2872     1  0.0000000  0.6508444  3
   2866   2868   2872   2873     1  180.0000771  2.0083200  2
   2866   2868   2872   2873     1  0.0000000  1.2552000  3
   2866   2868   2872   2874     1  180.0000771  2.0083200  2
   2866   2868   2872   2874     1  0.0000000  1.2552000  3
   2868   2872   2873   2885     1  180.0000771  2.0083200  2
   2868   2872   2873   2885     1  0.0000000  1.2552000  3
   2868   2872   2874   2876     1  180.0000771  2.0083200  2
   2868   2872   2874   2876     1  0.0000000  1.2552000  3
   2872   2873   2885   2888     1  0.0000000  0.6508444  3
   2872   2874   2876   2880     1  0.0000000  0.6508444  3
   2873   2885   2888   2889     1  180.0000771  0.0000000  2
   2873   2885   2888   2890     1  180.0000771  0.0000000  2
   2873   2872   2874   2876     1  180.0000771  2.0083200  2
   2873   2872   2874   2876     1  0.0000000  1.2552000  3
   2874   2876   2880   2881     1  180.0000771  0.0000000  2
   2874   2876   2880   2882     1  180.0000771  0.0000000  2
   2874   2872   2873   2885     1  180.0000771  2.0083200  2
   2874   2872   2873   2885     1  0.0000000  1.2552000  3
   2891   2893   2895   2899     1  0.0000000  0.6508444  3
   2893   2895   2899   2900     1  180.0000771  2.0083200  2
   2893   2895   2899   2900     1  0.0000000  1.2552000  3
   2893   2895   2899   2901     1  180.0000771  2.0083200  2
   2893   2895   2899   2901     1  0.0000000  1.2552000  3
   2895   2899   2900   2912     1  180.0000771  2.0083200  2
   2895   2899   2900   2912     1  0.0000000  1.2552000  3
   2895   2899   2901   2903     1  180.0000771  2.0083200  2
   2895   2899   2901   2903     1  0.0000000  1.2552000  3
   2899   2900   2912   2915     1  0.0000000  0.6508444  3
   2899   2901   2903   2907     1  0.0000000  0.6508444  3
   2900   2899   2901   2903     1  180.0000771  2.0083200  2
   2900   2899   2901   2903     1  0.0000000  1.2552000  3
   2900   2912   2915   2916     1  180.0000771  0.0000000  2
   2900   2912   2915   2917     1  180.0000771  0.0000000  2
   2901   2899   2900   2912     1  180.0000771  2.0083200  2
   2901   2899   2900   2912     1  0.0000000  1.2552000  3
   2901   2903   2907   2908     1  180.0000771  0.0000000  2
   2901   2903   2907   2909     1  180.0000771  0.0000000  2
   2918   2920   2922   2926     1  0.0000000  0.6508444  3
   2920   2922   2926   2927     1  180.0000771  2.0083200  2
   2920   2922   2926   2927     1  0.0000000  1.2552000  3
   2920   2922   2926   2928     1  180.0000771  2.0083200  2
   2920   2922   2926   2928     1  0.0000000  1.2552000  3
   2922   2926   2927   2939     1  180.0000771  2.0083200  2
   2922   2926   2927   2939     1  0.0000000  1.2552000  3
   2922   2926   2928   2930     1  180.0000771  2.0083200  2
   2922   2926   2928   2930     1  0.0000000  1.2552000  3
   2926   2927   2939   2942     1  0.0000000  0.6508444  3
   2926   2928   2930   2934     1  0.0000000  0.6508444  3
   2927   2939   2942   2943     1  180.0000771  0.0000000  2
   2927   2939   2942   2944     1  180.0000771  0.0000000  2
   2927   2926   2928   2930     1  180.0000771  2.0083200  2
   2927   2926   2928   2930     1  0.0000000  1.2552000  3
   2928   2930   2934   2935     1  180.0000771  0.0000000  2
   2928   2930   2934   2936     1  180.0000771  0.0000000  2
   2928   2926   2927   2939     1  180.0000771  2.0083200  2
   2928   2926   2927   2939     1  0.0000000  1.2552000  3
   2945   2947   2949   2953     1  0.0000000  0.6508444  3
   2947   2949   2953   2954     1  180.0000771  2.0083200  2
   2947   2949   2953   2954     1  0.0000000  1.2552000  3
   2947   2949   2953   2955     1  180.0000771  2.0083200  2
   2947   2949   2953   2955     1  0.0000000  1.2552000  3
   2949   2953   2954   2966     1  180.0000771  2.0083200  2
   2949   2953   2954   2966     1  0.0000000  1.2552000  3
   2949   2953   2955   2957     1  180.0000771  2.0083200  2
   2949   2953   2955   2957     1  0.0000000  1.2552000  3
   2953   2954   2966   2969     1  0.0000000  0.6508444  3
   2953   2955   2957   2961     1  0.0000000  0.6508444  3
   2954   2953   2955   2957     1  180.0000771  2.0083200  2
   2954   2953   2955   2957     1  0.0000000  1.2552000  3
   2954   2966   2969   2970     1  180.0000771  0.0000000  2
   2954   2966   2969   2971     1  180.0000771  0.0000000  2
   2955   2953   2954   2966     1  180.0000771  2.0083200  2
   2955   2953   2954   2966     1  0.0000000  1.2552000  3
   2955   2957   2961   2962     1  180.0000771  0.0000000  2
   2955   2957   2961   2963     1  180.0000771  0.0000000  2
   2972   2974   2976   2980     1  0.0000000  0.6508444  3
   2974   2976   2980   2981     1  180.0000771  2.0083200  2
   2974   2976   2980   2981     1  0.0000000  1.2552000  3
   2974   2976   2980   2982     1  180.0000771  2.0083200  2
   2974   2976   2980   2982     1  0.0000000  1.2552000  3
   2976   2980   2981   2993     1  180.0000771  2.0083200  2
   2976   2980   2981   2993     1  0.0000000  1.2552000  3
   2976   2980   2982   2984     1  180.0000771  2.0083200  2
   2976   2980   2982   2984     1  0.0000000  1.2552000  3
   2980   2981   2993   2996     1  0.0000000  0.6508444  3
   2980   2982   2984   2988     1  0.0000000  0.6508444  3
   2981   2993   2996   2997     1  180.0000771  0.0000000  2
   2981   2993   2996   2998     1  180.0000771  0.0000000  2
   2981   2980   2982   2984     1  180.0000771  2.0083200  2
   2981   2980   2982   2984     1  0.0000000  1.2552000  3
   2982   2984   2988   2989     1  180.0000771  0.0000000  2
   2982   2984   2988   2990     1  180.0000771  0.0000000  2
   2982   2980   2981   2993     1  180.0000771  2.0083200  2
   2982   2980   2981   2993     1  0.0000000  1.2552000  3
   2999   3001   3003   3007     1  0.0000000  0.6508444  3
   3001   3003   3007   3008     1  180.0000771  2.0083200  2
   3001   3003   3007   3008     1  0.0000000  1.2552000  3
   3001   3003   3007   3009     1  180.0000771  2.0083200  2
   3001   3003   3007   3009     1  0.0000000  1.2552000  3
   3003   3007   3008   3020     1  180.0000771  2.0083200  2
   3003   3007   3008   3020     1  0.0000000  1.2552000  3
   3003   3007   3009   3011     1  180.0000771  2.0083200  2
   3003   3007   3009   3011     1  0.0000000  1.2552000  3
   3007   3008   3020   3023     1  0.0000000  0.6508444  3
   3007   3009   3011   3015     1  0.0000000  0.6508444  3
   3008   3007   3009   3011     1  180.0000771  2.0083200  2
   3008   3007   3009   3011     1  0.0000000  1.2552000  3
   3008   3020   3023   3024     1  180.0000771  0.0000000  2
   3008   3020   3023   3025     1  180.0000771  0.0000000  2
   3009   3007   3008   3020     1  180.0000771  2.0083200  2
   3009   3007   3008   3020     1  0.0000000  1.2552000  3
   3009   3011   3015   3016     1  180.0000771  0.0000000  2
   3009   3011   3015   3017     1  180.0000771  0.0000000  2
   3026   3028   3030   3034     1  0.0000000  0.6508444  3
   3028   3030   3034   3035     1  180.0000771  2.0083200  2
   3028   3030   3034   3035     1  0.0000000  1.2552000  3
   3028   3030   3034   3036     1  180.0000771  2.0083200  2
   3028   3030   3034   3036     1  0.0000000  1.2552000  3
   3030   3034   3035   3047     1  180.0000771  2.0083200  2
   3030   3034   3035   3047     1  0.0000000  1.2552000  3
   3030   3034   3036   3038     1  180.0000771  2.0083200  2
   3030   3034   3036   3038     1  0.0000000  1.2552000  3
   3034   3035   3047   3050     1  0.0000000  0.6508444  3
   3034   3036   3038   3042     1  0.0000000  0.6508444  3
   3035   3047   3050   3051     1  180.0000771  0.0000000  2
   3035   3047   3050   3052     1  180.0000771  0.0000000  2
   3035   3034   3036   3038     1  180.0000771  2.0083200  2
   3035   3034   3036   3038     1  0.0000000  1.2552000  3
   3036   3038   3042   3043     1  180.0000771  0.0000000  2
   3036   3038   3042   3044     1  180.0000771  0.0000000  2
   3036   3034   3035   3047     1  180.0000771  2.0083200  2
   3036   3034   3035   3047     1  0.0000000  1.2552000  3
   3053   3055   3057   3061     1  0.0000000  0.6508444  3
   3055   3057   3061   3062     1  180.0000771  2.0083200  2
   3055   3057   3061   3062     1  0.0000000  1.2552000  3
   3055   3057   3061   3063     1  180.0000771  2.0083200  2
   3055   3057   3061   3063     1  0.0000000  1.2552000  3
   3057   3061   3062   3074     1  180.0000771  2.0083200  2
   3057   3061   3062   3074     1  0.0000000  1.2552000  3
   3057   3061   3063   3065     1  180.0000771  2.0083200  2
   3057   3061   3063   3065     1  0.0000000  1.2552000  3
   3061   3062   3074   3077     1  0.0000000  0.6508444  3
   3061   3063   3065   3069     1  0.0000000  0.6508444  3
   3062   3061   3063   3065     1  180.0000771  2.0083200  2
   3062   3061   3063   3065     1  0.0000000  1.2552000  3
   3062   3074   3077   3078     1  180.0000771  0.0000000  2
   3062   3074   3077   3079     1  180.0000771  0.0000000  2
   3063   3061   3062   3074     1  180.0000771  2.0083200  2
   3063   3061   3062   3074     1  0.0000000  1.2552000  3
   3063   3065   3069   3070     1  180.0000771  0.0000000  2
   3063   3065   3069   3071     1  180.0000771  0.0000000  2
   3080   3082   3084   3088     1  0.0000000  0.6508444  3
   3082   3084   3088   3089     1  180.0000771  2.0083200  2
   3082   3084   3088   3089     1  0.0000000  1.2552000  3
   3082   3084   3088   3090     1  180.0000771  2.0083200  2
   3082   3084   3088   3090     1  0.0000000  1.2552000  3
   3084   3088   3089   3101     1  180.0000771  2.0083200  2
   3084   3088   3089   3101     1  0.0000000  1.2552000  3
   3084   3088   3090   3092     1  180.0000771  2.0083200  2
   3084   3088   3090   3092     1  0.0000000  1.2552000  3
   3088   3089   3101   3104     1  0.0000000  0.6508444  3
   3088   3090   3092   3096     1  0.0000000  0.6508444  3
   3089   3101   3104   3105     1  180.0000771  0.0000000  2
   3089   3101   3104   3106     1  180.0000771  0.0000000  2
   3089   3088   3090   3092     1  180.0000771  2.0083200  2
   3089   3088   3090   3092     1  0.0000000  1.2552000  3
   3090   3092   3096   3097     1  180.0000771  0.0000000  2
   3090   3092   3096   3098     1  180.0000771  0.0000000  2
   3090   3088   3089   3101     1  180.0000771  2.0083200  2
   3090   3088   3089   3101     1  0.0000000  1.2552000  3
   3107   3109   3111   3115     1  0.0000000  0.6508444  3
   3109   3111   3115   3116     1  180.0000771  2.0083200  2
   3109   3111   3115   3116     1  0.0000000  1.2552000  3
   3109   3111   3115   3117     1  180.0000771  2.0083200  2
   3109   3111   3115   3117     1  0.0000000  1.2552000  3
   3111   3115   3116   3128     1  180.0000771  2.0083200  2
   3111   3115   3116   3128     1  0.0000000  1.2552000  3
   3111   3115   3117   3119     1  180.0000771  2.0083200  2
   3111   3115   3117   3119     1  0.0000000  1.2552000  3
   3115   3116   3128   3131     1  0.0000000  0.6508444  3
   3115   3117   3119   3123     1  0.0000000  0.6508444  3
   3116   3115   3117   3119     1  180.0000771  2.0083200  2
   3116   3115   3117   3119     1  0.0000000  1.2552000  3
   3116   3128   3131   3132     1  180.0000771  0.0000000  2
   3116   3128   3131   3133     1  180.0000771  0.0000000  2
   3117   3115   3116   3128     1  180.0000771  2.0083200  2
   3117   3115   3116   3128     1  0.0000000  1.2552000  3
   3117   3119   3123   3124     1  180.0000771  0.0000000  2
   3117   3119   3123   3125     1  180.0000771  0.0000000  2
   3134   3136   3138   3142     1  0.0000000  0.6508444  3
   3136   3138   3142   3143     1  180.0000771  2.0083200  2
   3136   3138   3142   3143     1  0.0000000  1.2552000  3
   3136   3138   3142   3144     1  180.0000771  2.0083200  2
   3136   3138   3142   3144     1  0.0000000  1.2552000  3
   3138   3142   3143   3155     1  180.0000771  2.0083200  2
   3138   3142   3143   3155     1  0.0000000  1.2552000  3
   3138   3142   3144   3146     1  180.0000771  2.0083200  2
   3138   3142   3144   3146     1  0.0000000  1.2552000  3
   3142   3143   3155   3158     1  0.0000000  0.6508444  3
   3142   3144   3146   3150     1  0.0000000  0.6508444  3
   3143   3155   3158   3159     1  180.0000771  0.0000000  2
   3143   3155   3158   3160     1  180.0000771  0.0000000  2
   3143   3142   3144   3146     1  180.0000771  2.0083200  2
   3143   3142   3144   3146     1  0.0000000  1.2552000  3
   3144   3146   3150   3151     1  180.0000771  0.0000000  2
   3144   3146   3150   3152     1  180.0000771  0.0000000  2
   3144   3142   3143   3155     1  180.0000771  2.0083200  2
   3144   3142   3143   3155     1  0.0000000  1.2552000  3
   3161   3163   3165   3169     1  0.0000000  0.6508444  3
   3163   3165   3169   3170     1  180.0000771  2.0083200  2
   3163   3165   3169   3170     1  0.0000000  1.2552000  3
   3163   3165   3169   3171     1  180.0000771  2.0083200  2
   3163   3165   3169   3171     1  0.0000000  1.2552000  3
   3165   3169   3170   3182     1  180.0000771  2.0083200  2
   3165   3169   3170   3182     1  0.0000000  1.2552000  3
   3165   3169   3171   3173     1  180.0000771  2.0083200  2
   3165   3169   3171   3173     1  0.0000000  1.2552000  3
   3169   3170   3182   3185     1  0.0000000  0.6508444  3
   3169   3171   3173   3177     1  0.0000000  0.6508444  3
   3170   3169   3171   3173     1  180.0000771  2.0083200  2
   3170   3169   3171   3173     1  0.0000000  1.2552000  3
   3170   3182   3185   3186     1  180.0000771  0.0000000  2
   3170   3182   3185   3187     1  180.0000771  0.0000000  2
   3171   3169   3170   3182     1  180.0000771  2.0083200  2
   3171   3169   3170   3182     1  0.0000000  1.2552000  3
   3171   3173   3177   3178     1  180.0000771  0.0000000  2
   3171   3173   3177   3179     1  180.0000771  0.0000000  2
   3188   3190   3192   3196     1  0.0000000  0.6508444  3
   3190   3192   3196   3197     1  180.0000771  2.0083200  2
   3190   3192   3196   3197     1  0.0000000  1.2552000  3
   3190   3192   3196   3198     1  180.0000771  2.0083200  2
   3190   3192   3196   3198     1  0.0000000  1.2552000  3
   3192   3196   3197   3209     1  180.0000771  2.0083200  2
   3192   3196   3197   3209     1  0.0000000  1.2552000  3
   3192   3196   3198   3200     1  180.0000771  2.0083200  2
   3192   3196   3198   3200     1  0.0000000  1.2552000  3
   3196   3197   3209   3212     1  0.0000000  0.6508444  3
   3196   3198   3200   3204     1  0.0000000  0.6508444  3
   3197   3209   3212   3213     1  180.0000771  0.0000000  2
   3197   3209   3212   3214     1  180.0000771  0.0000000  2
   3197   3196   3198   3200     1  180.0000771  2.0083200  2
   3197   3196   3198   3200     1  0.0000000  1.2552000  3
   3198   3200   3204   3205     1  180.0000771  0.0000000  2
   3198   3200   3204   3206     1  180.0000771  0.0000000  2
   3198   3196   3197   3209     1  180.0000771  2.0083200  2
   3198   3196   3197   3209     1  0.0000000  1.2552000  3
   3215   3217   3219   3223     1  0.0000000  0.6508444  3
   3217   3219   3223   3224     1  180.0000771  2.0083200  2
   3217   3219   3223   3224     1  0.0000000  1.2552000  3
   3217   3219   3223   3225     1  180.0000771  2.0083200  2
   3217   3219   3223   3225     1  0.0000000  1.2552000  3
   3219   3223   3224   3236     1  180.0000771  2.0083200  2
   3219   3223   3224   3236     1  0.0000000  1.2552000  3
   3219   3223   3225   3227     1  180.0000771  2.0083200  2
   3219   3223   3225   3227     1  0.0000000  1.2552000  3
   3223   3224   3236   3239     1  0.0000000  0.6508444  3
   3223   3225   3227   3231     1  0.0000000  0.6508444  3
   3224   3223   3225   3227     1  180.0000771  2.0083200  2
   3224   3223   3225   3227     1  0.0000000  1.2552000  3
   3224   3236   3239   3240     1  180.0000771  0.0000000  2
   3224   3236   3239   3241     1  180.0000771  0.0000000  2
   3225   3223   3224   3236     1  180.0000771  2.0083200  2
   3225   3223   3224   3236     1  0.0000000  1.2552000  3
   3225   3227   3231   3232     1  180.0000771  0.0000000  2
   3225   3227   3231   3233     1  180.0000771  0.0000000  2
   3242   3244   3246   3250     1  0.0000000  0.6508444  3
   3244   3246   3250   3251     1  180.0000771  2.0083200  2
   3244   3246   3250   3251     1  0.0000000  1.2552000  3
   3244   3246   3250   3252     1  180.0000771  2.0083200  2
   3244   3246   3250   3252     1  0.0000000  1.2552000  3
   3246   3250   3251   3263     1  180.0000771  2.0083200  2
   3246   3250   3251   3263     1  0.0000000  1.2552000  3
   3246   3250   3252   3254     1  180.0000771  2.0083200  2
   3246   3250   3252   3254     1  0.0000000  1.2552000  3
   3250   3251   3263   3266     1  0.0000000  0.6508444  3
   3250   3252   3254   3258     1  0.0000000  0.6508444  3
   3251   3263   3266   3267     1  180.0000771  0.0000000  2
   3251   3263   3266   3268     1  180.0000771  0.0000000  2
   3251   3250   3252   3254     1  180.0000771  2.0083200  2
   3251   3250   3252   3254     1  0.0000000  1.2552000  3
   3252   3254   3258   3259     1  180.0000771  0.0000000  2
   3252   3254   3258   3260     1  180.0000771  0.0000000  2
   3252   3250   3251   3263     1  180.0000771  2.0083200  2
   3252   3250   3251   3263     1  0.0000000  1.2552000  3
     27     64     33     37     4  180.0000771  43.9320000  2
     30     89     34     40     4  180.0000771  43.9320000  2
     21    114     35     38     4  180.0000771  43.9320000  2
     24    139     36     39     4  180.0000771  43.9320000  2
     54    164     60     62     4  180.0000771  43.9320000  2
     57    189     61     63     4  180.0000771  43.9320000  2
     79    214     85     87     4  180.0000771  43.9320000  2
     82    239     86     88     4  180.0000771  43.9320000  2
    104    264    110    112     4  180.0000771  43.9320000  2
    107    289    111    113     4  180.0000771  43.9320000  2
    129    314    135    137     4  180.0000771  43.9320000  2
    132    339    136    138     4  180.0000771  43.9320000  2
    154    364    160    162     4  180.0000771  43.9320000  2
    157    389    161    163     4  180.0000771  43.9320000  2
    179    414    185    187     4  180.0000771  43.9320000  2
    182    439    186    188     4  180.0000771  43.9320000  2
    204    464    210    212     4  180.0000771  43.9320000  2
    207    489    211    213     4  180.0000771  43.9320000  2
    229    514    235    237     4  180.0000771  43.9320000  2
    232    539    236    238     4  180.0000771  43.9320000  2
    254    564    260    262     4  180.0000771  43.9320000  2
    257    589    261    263     4  180.0000771  43.9320000  2
    279    614    285    287     4  180.0000771  43.9320000  2
    282    639    286    288     4  180.0000771  43.9320000  2
    304    664    310    312     4  180.0000771  43.9320000  2
    307    689    311    313     4  180.0000771  43.9320000  2
    329    714    335    337     4  180.0000771  43.9320000  2
    332    739    336    338     4  180.0000771  43.9320000  2
    354    764    360    362     4  180.0000771  43.9320000  2
    357    789    361    363     4  180.0000771  43.9320000  2
    379    814    385    387     4  180.0000771  43.9320000  2
    382    839    386    388     4  180.0000771  43.9320000  2
    404    864    410    412     4  180.0000771  43.9320000  2
    407    889    411    413     4  180.0000771  43.9320000  2
    429    914    435    437     4  180.0000771  43.9320000  2
    432    939    436    438     4  180.0000771  43.9320000  2
    454    964    460    462     4  180.0000771  43.9320000  2
    457    989    461    463     4  180.0000771  43.9320000  2
    479   1014    485    487     4  180.0000771  43.9320000  2
    482   1039    486    488     4  180.0000771  43.9320000  2
    504   1064    510    512     4  180.0000771  43.9320000  2
    507   1089    511    513     4  180.0000771  43.9320000  2
    529   1114    535    537     4  180.0000771  43.9320000  2
    532   1139    536    538     4  180.0000771  43.9320000  2
    554   1164    560    562     4  180.0000771  43.9320000  2
    557   1189    561    563     4  180.0000771  43.9320000  2
    579   1214    585    587     4  180.0000771  43.9320000  2
    582   1239    586    588     4  180.0000771  43.9320000  2
    604   1264    610    612     4  180.0000771  43.9320000  2
    607   1289    611    613     4  180.0000771  43.9320000  2
    629   1314    635    637     4  180.0000771  43.9320000  2
    632   1339    636    638     4  180.0000771  43.9320000  2
    654   1364    660    662     4  180.0000771  43.9320000  2
    657   1389    661    663     4  180.0000771  43.9320000  2
    679   1414    685    687     4  180.0000771  43.9320000  2
    682   1439    686    688     4  180.0000771  43.9320000  2
    704   1464    710    712     4  180.0000771  43.9320000  2
    707   1489    711    713     4  180.0000771  43.9320000  2
    729   1514    735    737     4  180.0000771  43.9320000  2
    732   1539    736    738     4  180.0000771  43.9320000  2
    754   1541    760    762     4  180.0000771  43.9320000  2
    757   1568    761    763     4  180.0000771  43.9320000  2
    779   1595    785    787     4  180.0000771  43.9320000  2
    782   1622    786    788     4  180.0000771  43.9320000  2
    804   1649    810    812     4  180.0000771  43.9320000  2
    807   1676    811    813     4  180.0000771  43.9320000  2
    829   1703    835    837     4  180.0000771  43.9320000  2
    832   1730    836    838     4  180.0000771  43.9320000  2
    854   1757    860    862     4  180.0000771  43.9320000  2
    857   1784    861    863     4  180.0000771  43.9320000  2
    879   1811    885    887     4  180.0000771  43.9320000  2
    882   1838    886    888     4  180.0000771  43.9320000  2
    904   1865    910    912     4  180.0000771  43.9320000  2
    907   1892    911    913     4  180.0000771  43.9320000  2
    929   1919    935    937     4  180.0000771  43.9320000  2
    932   1946    936    938     4  180.0000771  43.9320000  2
    954   1973    960    962     4  180.0000771  43.9320000  2
    957   2000    961    963     4  180.0000771  43.9320000  2
    979   2027    985    987     4  180.0000771  43.9320000  2
    982   2054    986    988     4  180.0000771  43.9320000  2
   1004   2081   1010   1012     4  180.0000771  43.9320000  2
   1007   2108   1011   1013     4  180.0000771  43.9320000  2
   1029   2135   1035   1037     4  180.0000771  43.9320000  2
   1032   2162   1036   1038     4  180.0000771  43.9320000  2
   1054   2189   1060   1062     4  180.0000771  43.9320000  2
   1057   2216   1061   1063     4  180.0000771  43.9320000  2
   1079   2243   1085   1087     4  180.0000771  43.9320000  2
   1082   2270   1086   1088     4  180.0000771  43.9320000  2
   1104   2297   1110   1112     4  180.0000771  43.9320000  2
   1107   2324   1111   1113     4  180.0000771  43.9320000  2
   1129   2351   1135   1137     4  180.0000771  43.9320000  2
   1132   2378   1136   1138     4  180.0000771  43.9320000  2
   1154   2405   1160   1162     4  180.0000771  43.9320000  2
   1157   2432   1161   1163     4  180.0000771  43.9320000  2
   1179   2459   1185   1187     4  180.0000771  43.9320000  2
   1182   2486   1186   1188     4  180.0000771  43.9320000  2
   1204   2513   1210   1212     4  180.0000771  43.9320000  2
   1207   2540   1211   1213     4  180.0000771  43.9320000  2
   1229   2567   1235   1237     4  180.0000771  43.9320000  2
   1232   2594   1236   1238     4  180.0000771  43.9320000  2
   1254   2621   1260   1262     4  180.0000771  43.9320000  2
   1257   2648   1261   1263     4  180.0000771  43.9320000  2
   1279   2675   1285   1287     4  180.0000771  43.9320000  2
   1282   2702   1286   1288     4  180.0000771  43.9320000  2
   1304   2729   1310   1312     4  180.0000771  43.9320000  2
   1307   2756   1311   1313     4  180.0000771  43.9320000  2
   1329   2783   1335   1337     4  180.0000771  43.9320000  2
   1332   2810   1336   1338     4  180.0000771  43.9320000  2
   1354   2837   1360   1362     4  180.0000771  43.9320000  2
   1357   2864   1361   1363     4  180.0000771  43.9320000  2
   1379   2891   1385   1387     4  180.0000771  43.9320000  2
   1382   2918   1386   1388     4  180.0000771  43.9320000  2
   1404   2945   1410   1412     4  180.0000771  43.9320000  2
   1407   2972   1411   1413     4  180.0000771  43.9320000  2
   1429   2999   1435   1437     4  180.0000771  43.9320000  2
   1432   3026   1436   1438     4  180.0000771  43.9320000  2
   1454   3053   1460   1462     4  180.0000771  43.9320000  2
   1457   3080   1461   1463     4  180.0000771  43.9320000  2
   1479   3107   1485   1487     4  180.0000771  43.9320000  2
   1482   3134   1486   1488     4  180.0000771  43.9320000  2
   1504   3161   1510   1512     4  180.0000771  43.9320000  2
   1507   3188   1511   1513     4  180.0000771  43.9320000  2
   1529   3215   1535   1537     4  180.0000771  43.9320000  2
   1532   3242   1536   1538     4  180.0000771  43.9320000  2
   1553   1558   1557   1559     4  180.0000771  4.6024000  2
   1562   1566   1565   1567     4  180.0000771  4.6024000  2
   1580   1585   1584   1586     4  180.0000771  4.6024000  2
   1589   1593   1592   1594     4  180.0000771  4.6024000  2
   1607   1612   1611   1613     4  180.0000771  4.6024000  2
   1616   1620   1619   1621     4  180.0000771  4.6024000  2
   1634   1639   1638   1640     4  180.0000771  4.6024000  2
   1643   1647   1646   1648     4  180.0000771  4.6024000  2
   1661   1666   1665   1667     4  180.0000771  4.6024000  2
   1670   1674   1673   1675     4  180.0000771  4.6024000  2
   1688   1693   1692   1694     4  180.0000771  4.6024000  2
   1697   1701   1700   1702     4  180.0000771  4.6024000  2
   1715   1720   1719   1721     4  180.0000771  4.6024000  2
   1724   1728   1727   1729     4  180.0000771  4.6024000  2
   1742   1747   1746   1748     4  180.0000771  4.6024000  2
   1751   1755   1754   1756     4  180.0000771  4.6024000  2
   1769   1774   1773   1775     4  180.0000771  4.6024000  2
   1778   1782   1781   1783     4  180.0000771  4.6024000  2
   1796   1801   1800   1802     4  180.0000771  4.6024000  2
   1805   1809   1808   1810     4  180.0000771  4.6024000  2
   1823   1828   1827   1829     4  180.0000771  4.6024000  2
   1832   1836   1835   1837     4  180.0000771  4.6024000  2
   1850   1855   1854   1856     4  180.0000771  4.6024000  2
   1859   1863   1862   1864     4  180.0000771  4.6024000  2
   1877   1882   1881   1883     4  180.0000771  4.6024000  2
   1886   1890   1889   1891     4  180.0000771  4.6024000  2
   1904   1909   1908   1910     4  180.0000771  4.6024000  2
   1913   1917   1916   1918     4  180.0000771  4.6024000  2
   1931   1936   1935   1937     4  180.0000771  4.6024000  2
   1940   1944   1943   1945     4  180.0000771  4.6024000  2
   1958   1963   1962   1964     4  180.0000771  4.6024000  2
   1967   1971   1970   1972     4  180.0000771  4.6024000  2
   1985   1990   1989   1991     4  180.0000771  4.6024000  2
   1994   1998   1997   1999     4  180.0000771  4.6024000  2
   2012   2017   2016   2018     4  180.0000771  4.6024000  2
   2021   2025   2024   2026     4  180.0000771  4.6024000  2
   2039   2044   2043   2045     4  180.0000771  4.6024000  2
   2048   2052   2051   2053     4  180.0000771  4.6024000  2
   2066   2071   2070   2072     4  180.0000771  4.6024000  2
   2075   2079   2078   2080     4  180.0000771  4.6024000  2
   2093   2098   2097   2099     4  180.0000771  4.6024000  2
   2102   2106   2105   2107     4  180.0000771  4.6024000  2
   2120   2125   2124   2126     4  180.0000771  4.6024000  2
   2129   2133   2132   2134     4  180.0000771  4.6024000  2
   2147   2152   2151   2153     4  180.0000771  4.6024000  2
   2156   2160   2159   2161     4  180.0000771  4.6024000  2
   2174   2179   2178   2180     4  180.0000771  4.6024000  2
   2183   2187   2186   2188     4  180.0000771  4.6024000  2
   2201   2206   2205   2207     4  180.0000771  4.6024000  2
   2210   2214   2213   2215     4  180.0000771  4.6024000  2
   2228   2233   2232   2234     4  180.0000771  4.6024000  2
   2237   2241   2240   2242     4  180.0000771  4.6024000  2
   2255   2260   2259   2261     4  180.0000771  4.6024000  2
   2264   2268   2267   2269     4  180.0000771  4.6024000  2
   2282   2287   2286   2288     4  180.0000771  4.6024000  2
   2291   2295   2294   2296     4  180.0000771  4.6024000  2
   2309   2314   2313   2315     4  180.0000771  4.6024000  2
   2318   2322   2321   2323     4  180.0000771  4.6024000  2
   2336   2341   2340   2342     4  180.0000771  4.6024000  2
   2345   2349   2348   2350     4  180.0000771  4.6024000  2
   2363   2368   2367   2369     4  180.0000771  4.6024000  2
   2372   2376   2375   2377     4  180.0000771  4.6024000  2
   2390   2395   2394   2396     4  180.0000771  4.6024000  2
   2399   2403   2402   2404     4  180.0000771  4.6024000  2
   2417   2422   2421   2423     4  180.0000771  4.6024000  2
   2426   2430   2429   2431     4  180.0000771  4.6024000  2
   2444   2449   2448   2450     4  180.0000771  4.6024000  2
   2453   2457   2456   2458     4  180.0000771  4.6024000  2
   2471   2476   2475   2477     4  180.0000771  4.6024000  2
   2480   2484   2483   2485     4  180.0000771  4.6024000  2
   2498   2503   2502   2504     4  180.0000771  4.6024000  2
   2507   2511   2510   2512     4  180.0000771  4.6024000  2
   2525   2530   2529   2531     4  180.0000771  4.6024000  2
   2534   2538   2537   2539     4  180.0000771  4.6024000  2
   2552   2557   2556   2558     4  180.0000771  4.6024000  2
   2561   2565   2564   2566     4  180.0000771  4.6024000  2
   2579   2584   2583   2585     4  180.0000771  4.6024000  2
   2588   2592   2591   2593     4  180.0000771  4.6024000  2
   2606   2611   2610   2612     4  180.0000771  4.6024000  2
   2615   2619   2618   2620     4  180.0000771  4.6024000  2
   2633   2638   2637   2639     4  180.0000771  4.6024000  2
   2642   2646   2645   2647     4  180.0000771  4.6024000  2
   2660   2665   2664   2666     4  180.0000771  4.6024000  2
   2669   2673   2672   2674     4  180.0000771  4.6024000  2
   2687   2692   2691   2693     4  180.0000771  4.6024000  2
   2696   2700   2699   2701     4  180.0000771  4.6024000  2
   2714   2719   2718   2720     4  180.0000771  4.6024000  2
   2723   2727   2726   2728     4  180.0000771  4.6024000  2
   2741   2746   2745   2747     4  180.0000771  4.6024000  2
   2750   2754   2753   2755     4  180.0000771  4.6024000  2
   2768   2773   2772   2774     4  180.0000771  4.6024000  2
   2777   2781   2780   2782     4  180.0000771  4.6024000  2
   2795   2800   2799   2801     4  180.0000771  4.6024000  2
   2804   2808   2807   2809     4  180.0000771  4.6024000  2
   2822   2827   2826   2828     4  180.0000771  4.6024000  2
   2831   2835   2834   2836     4  180.0000771  4.6024000  2
   2849   2854   2853   2855     4  180.0000771  4.6024000  2
   2858   2862   2861   2863     4  180.0000771  4.6024000  2
   2876   2881   2880   2882     4  180.0000771  4.6024000  2
   2885   2889   2888   2890     4  180.0000771  4.6024000  2
   2903   2908   2907   2909     4  180.0000771  4.6024000  2
   2912   2916   2915   2917     4  180.0000771  4.6024000  2
   2930   2935   2934   2936     4  180.0000771  4.6024000  2
   2939   2943   2942   2944     4  180.0000771  4.6024000  2
   2957   2962   2961   2963     4  180.0000771  4.6024000  2
   2966   2970   2969   2971     4  180.0000771  4.6024000  2
   2984   2989   2988   2990     4  180.0000771  4.6024000  2
   2993   2997   2996   2998     4  180.0000771  4.6024000  2
   3011   3016   3015   3017     4  180.0000771  4.6024000  2
   3020   3024   3023   3025     4  180.0000771  4.6024000  2
   3038   3043   3042   3044     4  180.0000771  4.6024000  2
   3047   3051   3050   3052     4  180.0000771  4.6024000  2
   3065   3070   3069   3071     4  180.0000771  4.6024000  2
   3074   3078   3077   3079     4  180.0000771  4.6024000  2
   3092   3097   3096   3098     4  180.0000771  4.6024000  2
   3101   3105   3104   3106     4  180.0000771  4.6024000  2
   3119   3124   3123   3125     4  180.0000771  4.6024000  2
   3128   3132   3131   3133     4  180.0000771  4.6024000  2
   3146   3151   3150   3152     4  180.0000771  4.6024000  2
   3155   3159   3158   3160     4  180.0000771  4.6024000  2
   3173   3178   3177   3179     4  180.0000771  4.6024000  2
   3182   3186   3185   3187     4  180.0000771  4.6024000  2
   3200   3205   3204   3206     4  180.0000771  4.6024000  2
   3209   3213   3212   3214     4  180.0000771  4.6024000  2
   3227   3232   3231   3233     4  180.0000771  4.6024000  2
   3236   3240   3239   3241     4  180.0000771  4.6024000  2
   3254   3259   3258   3260     4  180.0000771  4.6024000  2
   3263   3267   3266   3268     4  180.0000771  4.6024000  2
      1      8      9     10     1  0.0000000  1.2552000  3
      1      8      9     11     1  0.0000000  1.2552000  3
      1      8     12     13     1  0.0000000  1.2552000  3
      1      8     12     14     1  0.0000000  1.2552000  3
      2      1      4      7     1  0.0000000  0.6508444  3
      2      1      4      5     1  0.0000000  0.6508444  3
      2      1      4      6     1  0.0000000  0.6508444  3
      2      1      8      9     1  0.0000000  1.2552000  3
      2      1      8     12     1  0.0000000  1.2552000  3
      3      1      4      7     1  0.0000000  0.6508444  3
      3      1      4      5     1  0.0000000  0.6508444  3
      3      1      4      6     1  0.0000000  0.6508444  3
      3      1      8      9     1  0.0000000  1.2552000  3
      3      1      8     12     1  0.0000000  1.2552000  3
      4      7     15     16     1  0.0000000  1.2552000  3
      4      7     15     17     1  0.0000000  1.2552000  3
      4      7     18     19     1  0.0000000  1.2552000  3
      4      7     18     20     1  0.0000000  1.2552000  3
      8      1      4      5     1  0.0000000  0.6508444  3
      5      4      7     15     1  0.0000000  1.2552000  3
      5      4      7     18     1  0.0000000  1.2552000  3
      8      1      4      6     1  0.0000000  0.6508444  3
      6      4      7     15     1  0.0000000  1.2552000  3
      6      4      7     18     1  0.0000000  1.2552000  3
      7     15     21     22     1  0.0000000  0.6508444  3
      7     15     21     23     1  0.0000000  0.6508444  3
      7     18     24     25     1  0.0000000  0.6508444  3
      7     18     24     26     1  0.0000000  0.6508444  3
      8      9     30     31     1  0.0000000  0.6508444  3
      8      9     30     32     1  0.0000000  0.6508444  3
      8     12     27     28     1  0.0000000  0.6508444  3
      8     12     27     29     1  0.0000000  0.6508444  3
      9      8     12     13     1  0.0000000  1.2552000  3
      9      8     12     14     1  0.0000000  1.2552000  3
     10      9      8     12     1  0.0000000  1.2552000  3
     10      9     30     34     1  0.0000000  0.6508444  3
     10      9     30     31     1  0.0000000  0.6508444  3
     10      9     30     32     1  0.0000000  0.6508444  3
     11      9      8     12     1  0.0000000  1.2552000  3
     11      9     30     34     1  0.0000000  0.6508444  3
     11      9     30     31     1  0.0000000  0.6508444  3
     11      9     30     32     1  0.0000000  0.6508444  3
     13     12     27     33     1  0.0000000  0.6508444  3
     13     12     27     28     1  0.0000000  0.6508444  3
     13     12     27     29     1  0.0000000  0.6508444  3
     14     12     27     33     1  0.0000000  0.6508444  3
     14     12     27     28     1  0.0000000  0.6508444  3
     14     12     27     29     1  0.0000000  0.6508444  3
     15      7     18     19     1  0.0000000  1.2552000  3
     15      7     18     20     1  0.0000000  1.2552000  3
     16     15      7     18     1  0.0000000  1.2552000  3
     16     15     21     35     1  0.0000000  0.6508444  3
     16     15     21     22     1  0.0000000  0.6508444  3
     16     15     21     23     1  0.0000000  0.6508444  3
     17     15      7     18     1  0.0000000  1.2552000  3
     17     15     21     35     1  0.0000000  0.6508444  3
     17     15     21     22     1  0.0000000  0.6508444  3
     17     15     21     23     1  0.0000000  0.6508444  3
     19     18     24     36     1  0.0000000  0.6508444  3
     19     18     24     25     1  0.0000000  0.6508444  3
     19     18     24     26     1  0.0000000  0.6508444  3
     20     18     24     36     1  0.0000000  0.6508444  3
     20     18     24     25     1  0.0000000  0.6508444  3
     20     18     24     26     1  0.0000000  0.6508444  3
     21     35    114    115     1  180.0000771  10.4600000  2
     22     21     35     38     1  0.0000000  3.3472000  1
     22     21     35     38     1  0.0000000  0.0000000  2
     22     21     35     38     1  180.0000771  0.3347200  3
     22     21     35    114     1  180.0000771  0.0000000  2
     23     21     35     38     1  0.0000000  3.3472000  1
     23     21     35     38     1  0.0000000  0.0000000  2
     23     21     35     38     1  180.0000771  0.3347200  3
     23     21     35    114     1  180.0000771  0.0000000  2
     24     36    139    140     1  180.0000771  10.4600000  2
     25     24     36     39     1  0.0000000  3.3472000  1
     25     24     36     39     1  0.0000000  0.0000000  2
     25     24     36     39     1  180.0000771  0.3347200  3
     25     24     36    139     1  180.0000771  0.0000000  2
     26     24     36     39     1  0.0000000  3.3472000  1
     26     24     36     39     1  0.0000000  0.0000000  2
     26     24     36     39     1  180.0000771  0.3347200  3
     26     24     36    139     1  180.0000771  0.0000000  2
     27     33     64     65     1  180.0000771  10.4600000  2
     28     27     33     37     1  0.0000000  3.3472000  1
     28     27     33     37     1  0.0000000  0.0000000  2
     28     27     33     37     1  180.0000771  0.3347200  3
     28     27     33     64     1  180.0000771  0.0000000  2
     29     27     33     37     1  0.0000000  3.3472000  1
     29     27     33     37     1  0.0000000  0.0000000  2
     29     27     33     37     1  180.0000771  0.3347200  3
     29     27     33     64     1  180.0000771  0.0000000  2
     30     34     89     90     1  180.0000771  10.4600000  2
     31     30     34     40     1  0.0000000  3.3472000  1
     31     30     34     40     1  0.0000000  0.0000000  2
     31     30     34     40     1  180.0000771  0.3347200  3
     31     30     34     89     1  180.0000771  0.0000000  2
     32     30     34     40     1  0.0000000  3.3472000  1
     32     30     34     40     1  0.0000000  0.0000000  2
     32     30     34     40     1  180.0000771  0.3347200  3
     32     30     34     89     1  180.0000771  0.0000000  2
     33     64     44     45     1  0.0000000  0.0000000  2
     33     64     44     46     1  0.0000000  0.0000000  2
     34     89     69     70     1  0.0000000  0.0000000  2
     34     89     69     71     1  0.0000000  0.0000000  2
     35    114     94     95     1  0.0000000  0.0000000  2
     35    114     94     96     1  0.0000000  0.0000000  2
     36    139    119    120     1  0.0000000  0.0000000  2
     36    139    119    121     1  0.0000000  0.0000000  2
     37     33     64     65     1  0.0000000  8.3680000  1
     37     33     64     65     1  180.0000771  10.4600000  2
     38     35    114    115     1  0.0000000  8.3680000  1
     38     35    114    115     1  180.0000771  10.4600000  2
     39     36    139    140     1  0.0000000  8.3680000  1
     39     36    139    140     1  180.0000771  10.4600000  2
     40     34     89     90     1  0.0000000  8.3680000  1
     40     34     89     90     1  180.0000771  10.4600000  2
     41     44     64     65     1  0.0000000  0.0000000  2
     41     47     48     49     1  0.0000000  1.2552000  3
     41     47     48     50     1  0.0000000  1.2552000  3
     41     47     51     52     1  0.0000000  1.2552000  3
     41     47     51     53     1  0.0000000  1.2552000  3
     42     41     44     64     1  0.0000000  0.6508444  3
     42     41     44     45     1  0.0000000  0.6508444  3
     42     41     44     46     1  0.0000000  0.6508444  3
     42     41     47     48     1  0.0000000  1.2552000  3
     42     41     47     51     1  0.0000000  1.2552000  3
     43     41     44     64     1  0.0000000  0.6508444  3
     43     41     44     45     1  0.0000000  0.6508444  3
     43     41     44     46     1  0.0000000  0.6508444  3
     43     41     47     48     1  0.0000000  1.2552000  3
     43     41     47     51     1  0.0000000  1.2552000  3
     45     44     41     47     1  0.0000000  0.6508444  3
     45     44     64     65     1  0.0000000  0.0000000  2
     46     44     41     47     1  0.0000000  0.6508444  3
     46     44     64     65     1  0.0000000  0.0000000  2
     47     48     57     58     1  0.0000000  0.6508444  3
     47     48     57     59     1  0.0000000  0.6508444  3
     47     51     54     55     1  0.0000000  0.6508444  3
     47     51     54     56     1  0.0000000  0.6508444  3
     48     47     51     52     1  0.0000000  1.2552000  3
     48     47     51     53     1  0.0000000  1.2552000  3
     49     48     47     51     1  0.0000000  1.2552000  3
     49     48     57     61     1  0.0000000  0.6508444  3
     49     48     57     58     1  0.0000000  0.6508444  3
     49     48     57     59     1  0.0000000  0.6508444  3
     50     48     47     51     1  0.0000000  1.2552000  3
     50     48     57     61     1  0.0000000  0.6508444  3
     50     48     57     58     1  0.0000000  0.6508444  3
     50     48     57     59     1  0.0000000  0.6508444  3
     52     51     54     60     1  0.0000000  0.6508444  3
     52     51     54     55     1  0.0000000  0.6508444  3
     52     51     54     56     1  0.0000000  0.6508444  3
     53     51     54     60     1  0.0000000  0.6508444  3
     53     51     54     55     1  0.0000000  0.6508444  3
     53     51     54     56     1  0.0000000  0.6508444  3
     54     60    164    165     1  180.0000771  10.4600000  2
     55     54     60     62     1  0.0000000  3.3472000  1
     55     54     60     62     1  0.0000000  0.0000000  2
     55     54     60     62     1  180.0000771  0.3347200  3
     55     54     60    164     1  180.0000771  0.0000000  2
     56     54     60     62     1  0.0000000  3.3472000  1
     56     54     60     62     1  0.0000000  0.0000000  2
     56     54     60     62     1  180.0000771  0.3347200  3
     56     54     60    164     1  180.0000771  0.0000000  2
     57     61    189    190     1  180.0000771  10.4600000  2
     58     57     61     63     1  0.0000000  3.3472000  1
     58     57     61     63     1  0.0000000  0.0000000  2
     58     57     61     63     1  180.0000771  0.3347200  3
     58     57     61    189     1  180.0000771  0.0000000  2
     59     57     61     63     1  0.0000000  3.3472000  1
     59     57     61     63     1  0.0000000  0.0000000  2
     59     57     61     63     1  180.0000771  0.3347200  3
     59     57     61    189     1  180.0000771  0.0000000  2
     60    164    144    145     1  0.0000000  0.0000000  2
     60    164    144    146     1  0.0000000  0.0000000  2
     61    189    169    170     1  0.0000000  0.0000000  2
     61    189    169    171     1  0.0000000  0.0000000  2
     62     60    164    165     1  0.0000000  8.3680000  1
     62     60    164    165     1  180.0000771  10.4600000  2
     63     61    189    190     1  0.0000000  8.3680000  1
     63     61    189    190     1  180.0000771  10.4600000  2
     66     69     89     90     1  0.0000000  0.0000000  2
     66     72     73     74     1  0.0000000  1.2552000  3
     66     72     73     75     1  0.0000000  1.2552000  3
     66     72     76     77     1  0.0000000  1.2552000  3
     66     72     76     78     1  0.0000000  1.2552000  3
     67     66     69     89     1  0.0000000  0.6508444  3
     67     66     69     70     1  0.0000000  0.6508444  3
     67     66     69     71     1  0.0000000  0.6508444  3
     67     66     72     73     1  0.0000000  1.2552000  3
     67     66     72     76     1  0.0000000  1.2552000  3
     68     66     69     89     1  0.0000000  0.6508444  3
     68     66     69     70     1  0.0000000  0.6508444  3
     68     66     69     71     1  0.0000000  0.6508444  3
     68     66     72     73     1  0.0000000  1.2552000  3
     68     66     72     76     1  0.0000000  1.2552000  3
     70     69     66     72     1  0.0000000  0.6508444  3
     70     69     89     90     1  0.0000000  0.0000000  2
     71     69     66     72     1  0.0000000  0.6508444  3
     71     69     89     90     1  0.0000000  0.0000000  2
     72     73     82     83     1  0.0000000  0.6508444  3
     72     73     82     84     1  0.0000000  0.6508444  3
     72     76     79     80     1  0.0000000  0.6508444  3
     72     76     79     81     1  0.0000000  0.6508444  3
     73     72     76     77     1  0.0000000  1.2552000  3
     73     72     76     78     1  0.0000000  1.2552000  3
     74     73     72     76     1  0.0000000  1.2552000  3
     74     73     82     86     1  0.0000000  0.6508444  3
     74     73     82     83     1  0.0000000  0.6508444  3
     74     73     82     84     1  0.0000000  0.6508444  3
     75     73     72     76     1  0.0000000  1.2552000  3
     75     73     82     86     1  0.0000000  0.6508444  3
     75     73     82     83     1  0.0000000  0.6508444  3
     75     73     82     84     1  0.0000000  0.6508444  3
     77     76     79     85     1  0.0000000  0.6508444  3
     77     76     79     80     1  0.0000000  0.6508444  3
     77     76     79     81     1  0.0000000  0.6508444  3
     78     76     79     85     1  0.0000000  0.6508444  3
     78     76     79     80     1  0.0000000  0.6508444  3
     78     76     79     81     1  0.0000000  0.6508444  3
     79     85    214    215     1  180.0000771  10.4600000  2
     80     79     85     87     1  0.0000000  3.3472000  1
     80     79     85     87     1  0.0000000  0.0000000  2
     80     79     85     87     1  180.0000771  0.3347200  3
     80     79     85    214     1  180.0000771  0.0000000  2
     81     79     85     87     1  0.0000000  3.3472000  1
     81     79     85     87     1  0.0000000  0.0000000  2
     81     79     85     87     1  180.0000771  0.3347200  3
     81     79     85    214     1  180.0000771  0.0000000  2
     82     86    239    240     1  180.0000771  10.4600000  2
     83     82     86     88     1  0.0000000  3.3472000  1
     83     82     86     88     1  0.0000000  0.0000000  2
     83     82     86     88     1  180.0000771  0.3347200  3
     83     82     86    239     1  180.0000771  0.0000000  2
     84     82     86     88     1  0.0000000  3.3472000  1
     84     82     86     88     1  0.0000000  0.0000000  2
     84     82     86     88     1  180.0000771  0.3347200  3
     84     82     86    239     1  180.0000771  0.0000000  2
     85    214    194    195     1  0.0000000  0.0000000  2
     85    214    194    196     1  0.0000000  0.0000000  2
     86    239    219    220     1  0.0000000  0.0000000  2
     86    239    219    221     1  0.0000000  0.0000000  2
     87     85    214    215     1  0.0000000  8.3680000  1
     87     85    214    215     1  180.0000771  10.4600000  2
     88     86    239    240     1  0.0000000  8.3680000  1
     88     86    239    240     1  180.0000771  10.4600000  2
     91     94    114    115     1  0.0000000  0.0000000  2
     91     97     98     99     1  0.0000000  1.2552000  3
     91     97     98    100     1  0.0000000  1.2552000  3
     91     97    101    102     1  0.0000000  1.2552000  3
     91     97    101    103     1  0.0000000  1.2552000  3
     92     91     94    114     1  0.0000000  0.6508444  3
     92     91     94     95     1  0.0000000  0.6508444  3
     92     91     94     96     1  0.0000000  0.6508444  3
     92     91     97     98     1  0.0000000  1.2552000  3
     92     91     97    101     1  0.0000000  1.2552000  3
     93     91     94    114     1  0.0000000  0.6508444  3
     93     91     94     95     1  0.0000000  0.6508444  3
     93     91     94     96     1  0.0000000  0.6508444  3
     93     91     97     98     1  0.0000000  1.2552000  3
     93     91     97    101     1  0.0000000  1.2552000  3
     95     94     91     97     1  0.0000000  0.6508444  3
     95     94    114    115     1  0.0000000  0.0000000  2
     96     94     91     97     1  0.0000000  0.6508444  3
     96     94    114    115     1  0.0000000  0.0000000  2
     97     98    107    108     1  0.0000000  0.6508444  3
     97     98    107    109     1  0.0000000  0.6508444  3
     97    101    104    105     1  0.0000000  0.6508444  3
     97    101    104    106     1  0.0000000  0.6508444  3
     98     97    101    102     1  0.0000000  1.2552000  3
     98     97    101    103     1  0.0000000  1.2552000  3
     99     98     97    101     1  0.0000000  1.2552000  3
     99     98    107    111     1  0.0000000  0.6508444  3
     99     98    107    108     1  0.0000000  0.6508444  3
     99     98    107    109     1  0.0000000  0.6508444  3
    100     98     97    101     1  0.0000000  1.2552000  3
    100     98    107    111     1  0.0000000  0.6508444  3
    100     98    107    108     1  0.0000000  0.6508444  3
    100     98    107    109     1  0.0000000  0.6508444  3
    102    101    104    110     1  0.0000000  0.6508444  3
    102    101    104    105     1  0.0000000  0.6508444  3
    102    101    104    106     1  0.0000000  0.6508444  3
    103    101    104    110     1  0.0000000  0.6508444  3
    103    101    104    105     1  0.0000000  0.6508444  3
    103    101    104    106     1  0.0000000  0.6508444  3
    104    110    264    265     1  180.0000771  10.4600000  2
    105    104    110    112     1  0.0000000  3.3472000  1
    105    104    110    112     1  0.0000000  0.0000000  2
    105    104    110    112     1  180.0000771  0.3347200  3
    105    104    110    264     1  180.0000771  0.0000000  2
    106    104    110    112     1  0.0000000  3.3472000  1
    106    104    110    112     1  0.0000000  0.0000000  2
    106    104    110    112     1  180.0000771  0.3347200  3
    106    104    110    264     1  180.0000771  0.0000000  2
    107    111    289    290     1  180.0000771  10.4600000  2
    108    107    111    113     1  0.0000000  3.3472000  1
    108    107    111    113     1  0.0000000  0.0000000  2
    108    107    111    113     1  180.0000771  0.3347200  3
    108    107    111    289     1  180.0000771  0.0000000  2
    109    107    111    113     1  0.0000000  3.3472000  1
    109    107    111    113     1  0.0000000  0.0000000  2
    109    107    111    113     1  180.0000771  0.3347200  3
    109    107    111    289     1  180.0000771  0.0000000  2
    110    264    244    245     1  0.0000000  0.0000000  2
    110    264    244    246     1  0.0000000  0.0000000  2
    111    289    269    270     1  0.0000000  0.0000000  2
    111    289    269    271     1  0.0000000  0.0000000  2
    112    110    264    265     1  0.0000000  8.3680000  1
    112    110    264    265     1  180.0000771  10.4600000  2
    113    111    289    290     1  0.0000000  8.3680000  1
    113    111    289    290     1  180.0000771  10.4600000  2
    116    119    139    140     1  0.0000000  0.0000000  2
    116    122    123    124     1  0.0000000  1.2552000  3
    116    122    123    125     1  0.0000000  1.2552000  3
    116    122    126    127     1  0.0000000  1.2552000  3
    116    122    126    128     1  0.0000000  1.2552000  3
    117    116    119    139     1  0.0000000  0.6508444  3
    117    116    119    120     1  0.0000000  0.6508444  3
    117    116    119    121     1  0.0000000  0.6508444  3
    117    116    122    123     1  0.0000000  1.2552000  3
    117    116    122    126     1  0.0000000  1.2552000  3
    118    116    119    139     1  0.0000000  0.6508444  3
    118    116    119    120     1  0.0000000  0.6508444  3
    118    116    119    121     1  0.0000000  0.6508444  3
    118    116    122    123     1  0.0000000  1.2552000  3
    118    116    122    126     1  0.0000000  1.2552000  3
    120    119    116    122     1  0.0000000  0.6508444  3
    120    119    139    140     1  0.0000000  0.0000000  2
    121    119    116    122     1  0.0000000  0.6508444  3
    121    119    139    140     1  0.0000000  0.0000000  2
    122    123    132    133     1  0.0000000  0.6508444  3
    122    123    132    134     1  0.0000000  0.6508444  3
    122    126    129    130     1  0.0000000  0.6508444  3
    122    126    129    131     1  0.0000000  0.6508444  3
    123    122    126    127     1  0.0000000  1.2552000  3
    123    122    126    128     1  0.0000000  1.2552000  3
    124    123    122    126     1  0.0000000  1.2552000  3
    124    123    132    136     1  0.0000000  0.6508444  3
    124    123    132    133     1  0.0000000  0.6508444  3
    124    123    132    134     1  0.0000000  0.6508444  3
    125    123    122    126     1  0.0000000  1.2552000  3
    125    123    132    136     1  0.0000000  0.6508444  3
    125    123    132    133     1  0.0000000  0.6508444  3
    125    123    132    134     1  0.0000000  0.6508444  3
    127    126    129    135     1  0.0000000  0.6508444  3
    127    126    129    130     1  0.0000000  0.6508444  3
    127    126    129    131     1  0.0000000  0.6508444  3
    128    126    129    135     1  0.0000000  0.6508444  3
    128    126    129    130     1  0.0000000  0.6508444  3
    128    126    129    131     1  0.0000000  0.6508444  3
    129    135    314    315     1  180.0000771  10.4600000  2
    130    129    135    137     1  0.0000000  3.3472000  1
    130    129    135    137     1  0.0000000  0.0000000  2
    130    129    135    137     1  180.0000771  0.3347200  3
    130    129    135    314     1  180.0000771  0.0000000  2
    131    129    135    137     1  0.0000000  3.3472000  1
    131    129    135    137     1  0.0000000  0.0000000  2
    131    129    135    137     1  180.0000771  0.3347200  3
    131    129    135    314     1  180.0000771  0.0000000  2
    132    136    339    340     1  180.0000771  10.4600000  2
    133    132    136    138     1  0.0000000  3.3472000  1
    133    132    136    138     1  0.0000000  0.0000000  2
    133    132    136    138     1  180.0000771  0.3347200  3
    133    132    136    339     1  180.0000771  0.0000000  2
    134    132    136    138     1  0.0000000  3.3472000  1
    134    132    136    138     1  0.0000000  0.0000000  2
    134    132    136    138     1  180.0000771  0.3347200  3
    134    132    136    339     1  180.0000771  0.0000000  2
    135    314    294    295     1  0.0000000  0.0000000  2
    135    314    294    296     1  0.0000000  0.0000000  2
    136    339    319    320     1  0.0000000  0.0000000  2
    136    339    319    321     1  0.0000000  0.0000000  2
    137    135    314    315     1  0.0000000  8.3680000  1
    137    135    314    315     1  180.0000771  10.4600000  2
    138    136    339    340     1  0.0000000  8.3680000  1
    138    136    339    340     1  180.0000771  10.4600000  2
    141    144    164    165     1  0.0000000  0.0000000  2
    141    147    148    149     1  0.0000000  1.2552000  3
    141    147    148    150     1  0.0000000  1.2552000  3
    141    147    151    152     1  0.0000000  1.2552000  3
    141    147    151    153     1  0.0000000  1.2552000  3
    142    141    144    164     1  0.0000000  0.6508444  3
    142    141    144    145     1  0.0000000  0.6508444  3
    142    141    144    146     1  0.0000000  0.6508444  3
    142    141    147    148     1  0.0000000  1.2552000  3
    142    141    147    151     1  0.0000000  1.2552000  3
    143    141    144    164     1  0.0000000  0.6508444  3
    143    141    144    145     1  0.0000000  0.6508444  3
    143    141    144    146     1  0.0000000  0.6508444  3
    143    141    147    148     1  0.0000000  1.2552000  3
    143    141    147    151     1  0.0000000  1.2552000  3
    145    144    141    147     1  0.0000000  0.6508444  3
    145    144    164    165     1  0.0000000  0.0000000  2
    146    144    141    147     1  0.0000000  0.6508444  3
    146    144    164    165     1  0.0000000  0.0000000  2
    147    148    157    158     1  0.0000000  0.6508444  3
    147    148    157    159     1  0.0000000  0.6508444  3
    147    151    154    155     1  0.0000000  0.6508444  3
    147    151    154    156     1  0.0000000  0.6508444  3
    148    147    151    152     1  0.0000000  1.2552000  3
    148    147    151    153     1  0.0000000  1.2552000  3
    149    148    147    151     1  0.0000000  1.2552000  3
    149    148    157    161     1  0.0000000  0.6508444  3
    149    148    157    158     1  0.0000000  0.6508444  3
    149    148    157    159     1  0.0000000  0.6508444  3
    150    148    147    151     1  0.0000000  1.2552000  3
    150    148    157    161     1  0.0000000  0.6508444  3
    150    148    157    158     1  0.0000000  0.6508444  3
    150    148    157    159     1  0.0000000  0.6508444  3
    152    151    154    160     1  0.0000000  0.6508444  3
    152    151    154    155     1  0.0000000  0.6508444  3
    152    151    154    156     1  0.0000000  0.6508444  3
    153    151    154    160     1  0.0000000  0.6508444  3
    153    151    154    155     1  0.0000000  0.6508444  3
    153    151    154    156     1  0.0000000  0.6508444  3
    154    160    364    365     1  180.0000771  10.4600000  2
    155    154    160    162     1  0.0000000  3.3472000  1
    155    154    160    162     1  0.0000000  0.0000000  2
    155    154    160    162     1  180.0000771  0.3347200  3
    155    154    160    364     1  180.0000771  0.0000000  2
    156    154    160    162     1  0.0000000  3.3472000  1
    156    154    160    162     1  0.0000000  0.0000000  2
    156    154    160    162     1  180.0000771  0.3347200  3
    156    154    160    364     1  180.0000771  0.0000000  2
    157    161    389    390     1  180.0000771  10.4600000  2
    158    157    161    163     1  0.0000000  3.3472000  1
    158    157    161    163     1  0.0000000  0.0000000  2
    158    157    161    163     1  180.0000771  0.3347200  3
    158    157    161    389     1  180.0000771  0.0000000  2
    159    157    161    163     1  0.0000000  3.3472000  1
    159    157    161    163     1  0.0000000  0.0000000  2
    159    157    161    163     1  180.0000771  0.3347200  3
    159    157    161    389     1  180.0000771  0.0000000  2
    160    364    344    345     1  0.0000000  0.0000000  2
    160    364    344    346     1  0.0000000  0.0000000  2
    161    389    369    370     1  0.0000000  0.0000000  2
    161    389    369    371     1  0.0000000  0.0000000  2
    162    160    364    365     1  0.0000000  8.3680000  1
    162    160    364    365     1  180.0000771  10.4600000  2
    163    161    389    390     1  0.0000000  8.3680000  1
    163    161    389    390     1  180.0000771  10.4600000  2
    166    169    189    190     1  0.0000000  0.0000000  2
    166    172    173    174     1  0.0000000  1.2552000  3
    166    172    173    175     1  0.0000000  1.2552000  3
    166    172    176    177     1  0.0000000  1.2552000  3
    166    172    176    178     1  0.0000000  1.2552000  3
    167    166    169    189     1  0.0000000  0.6508444  3
    167    166    169    170     1  0.0000000  0.6508444  3
    167    166    169    171     1  0.0000000  0.6508444  3
    167    166    172    173     1  0.0000000  1.2552000  3
    167    166    172    176     1  0.0000000  1.2552000  3
    168    166    169    189     1  0.0000000  0.6508444  3
    168    166    169    170     1  0.0000000  0.6508444  3
    168    166    169    171     1  0.0000000  0.6508444  3
    168    166    172    173     1  0.0000000  1.2552000  3
    168    166    172    176     1  0.0000000  1.2552000  3
    170    169    166    172     1  0.0000000  0.6508444  3
    170    169    189    190     1  0.0000000  0.0000000  2
    171    169    166    172     1  0.0000000  0.6508444  3
    171    169    189    190     1  0.0000000  0.0000000  2
    172    173    182    183     1  0.0000000  0.6508444  3
    172    173    182    184     1  0.0000000  0.6508444  3
    172    176    179    180     1  0.0000000  0.6508444  3
    172    176    179    181     1  0.0000000  0.6508444  3
    173    172    176    177     1  0.0000000  1.2552000  3
    173    172    176    178     1  0.0000000  1.2552000  3
    174    173    172    176     1  0.0000000  1.2552000  3
    174    173    182    186     1  0.0000000  0.6508444  3
    174    173    182    183     1  0.0000000  0.6508444  3
    174    173    182    184     1  0.0000000  0.6508444  3
    175    173    172    176     1  0.0000000  1.2552000  3
    175    173    182    186     1  0.0000000  0.6508444  3
    175    173    182    183     1  0.0000000  0.6508444  3
    175    173    182    184     1  0.0000000  0.6508444  3
    177    176    179    185     1  0.0000000  0.6508444  3
    177    176    179    180     1  0.0000000  0.6508444  3
    177    176    179    181     1  0.0000000  0.6508444  3
    178    176    179    185     1  0.0000000  0.6508444  3
    178    176    179    180     1  0.0000000  0.6508444  3
    178    176    179    181     1  0.0000000  0.6508444  3
    179    185    414    415     1  180.0000771  10.4600000  2
    180    179    185    187     1  0.0000000  3.3472000  1
    180    179    185    187     1  0.0000000  0.0000000  2
    180    179    185    187     1  180.0000771  0.3347200  3
    180    179    185    414     1  180.0000771  0.0000000  2
    181    179    185    187     1  0.0000000  3.3472000  1
    181    179    185    187     1  0.0000000  0.0000000  2
    181    179    185    187     1  180.0000771  0.3347200  3
    181    179    185    414     1  180.0000771  0.0000000  2
    182    186    439    440     1  180.0000771  10.4600000  2
    183    182    186    188     1  0.0000000  3.3472000  1
    183    182    186    188     1  0.0000000  0.0000000  2
    183    182    186    188     1  180.0000771  0.3347200  3
    183    182    186    439     1  180.0000771  0.0000000  2
    184    182    186    188     1  0.0000000  3.3472000  1
    184    182    186    188     1  0.0000000  0.0000000  2
    184    182    186    188     1  180.0000771  0.3347200  3
    184    182    186    439     1  180.0000771  0.0000000  2
    185    414    394    395     1  0.0000000  0.0000000  2
    185    414    394    396     1  0.0000000  0.0000000  2
    186    439    419    420     1  0.0000000  0.0000000  2
    186    439    419    421     1  0.0000000  0.0000000  2
    187    185    414    415     1  0.0000000  8.3680000  1
    187    185    414    415     1  180.0000771  10.4600000  2
    188    186    439    440     1  0.0000000  8.3680000  1
    188    186    439    440     1  180.0000771  10.4600000  2
    191    194    214    215     1  0.0000000  0.0000000  2
    191    197    198    199     1  0.0000000  1.2552000  3
    191    197    198    200     1  0.0000000  1.2552000  3
    191    197    201    202     1  0.0000000  1.2552000  3
    191    197    201    203     1  0.0000000  1.2552000  3
    192    191    194    214     1  0.0000000  0.6508444  3
    192    191    194    195     1  0.0000000  0.6508444  3
    192    191    194    196     1  0.0000000  0.6508444  3
    192    191    197    198     1  0.0000000  1.2552000  3
    192    191    197    201     1  0.0000000  1.2552000  3
    193    191    194    214     1  0.0000000  0.6508444  3
    193    191    194    195     1  0.0000000  0.6508444  3
    193    191    194    196     1  0.0000000  0.6508444  3
    193    191    197    198     1  0.0000000  1.2552000  3
    193    191    197    201     1  0.0000000  1.2552000  3
    195    194    191    197     1  0.0000000  0.6508444  3
    195    194    214    215     1  0.0000000  0.0000000  2
    196    194    191    197     1  0.0000000  0.6508444  3
    196    194    214    215     1  0.0000000  0.0000000  2
    197    198    207    208     1  0.0000000  0.6508444  3
    197    198    207    209     1  0.0000000  0.6508444  3
    197    201    204    205     1  0.0000000  0.6508444  3
    197    201    204    206     1  0.0000000  0.6508444  3
    198    197    201    202     1  0.0000000  1.2552000  3
    198    197    201    203     1  0.0000000  1.2552000  3
    199    198    197    201     1  0.0000000  1.2552000  3
    199    198    207    211     1  0.0000000  0.6508444  3
    199    198    207    208     1  0.0000000  0.6508444  3
    199    198    207    209     1  0.0000000  0.6508444  3
    200    198    197    201     1  0.0000000  1.2552000  3
    200    198    207    211     1  0.0000000  0.6508444  3
    200    198    207    208     1  0.0000000  0.6508444  3
    200    198    207    209     1  0.0000000  0.6508444  3
    202    201    204    210     1  0.0000000  0.6508444  3
    202    201    204    205     1  0.0000000  0.6508444  3
    202    201    204    206     1  0.0000000  0.6508444  3
    203    201    204    210     1  0.0000000  0.6508444  3
    203    201    204    205     1  0.0000000  0.6508444  3
    203    201    204    206     1  0.0000000  0.6508444  3
    204    210    464    465     1  180.0000771  10.4600000  2
    205    204    210    212     1  0.0000000  3.3472000  1
    205    204    210    212     1  0.0000000  0.0000000  2
    205    204    210    212     1  180.0000771  0.3347200  3
    205    204    210    464     1  180.0000771  0.0000000  2
    206    204    210    212     1  0.0000000  3.3472000  1
    206    204    210    212     1  0.0000000  0.0000000  2
    206    204    210    212     1  180.0000771  0.3347200  3
    206    204    210    464     1  180.0000771  0.0000000  2
    207    211    489    490     1  180.0000771  10.4600000  2
    208    207    211    213     1  0.0000000  3.3472000  1
    208    207    211    213     1  0.0000000  0.0000000  2
    208    207    211    213     1  180.0000771  0.3347200  3
    208    207    211    489     1  180.0000771  0.0000000  2
    209    207    211    213     1  0.0000000  3.3472000  1
    209    207    211    213     1  0.0000000  0.0000000  2
    209    207    211    213     1  180.0000771  0.3347200  3
    209    207    211    489     1  180.0000771  0.0000000  2
    210    464    444    445     1  0.0000000  0.0000000  2
    210    464    444    446     1  0.0000000  0.0000000  2
    211    489    469    470     1  0.0000000  0.0000000  2
    211    489    469    471     1  0.0000000  0.0000000  2
    212    210    464    465     1  0.0000000  8.3680000  1
    212    210    464    465     1  180.0000771  10.4600000  2
    213    211    489    490     1  0.0000000  8.3680000  1
    213    211    489    490     1  180.0000771  10.4600000  2
    216    219    239    240     1  0.0000000  0.0000000  2
    216    222    223    224     1  0.0000000  1.2552000  3
    216    222    223    225     1  0.0000000  1.2552000  3
    216    222    226    227     1  0.0000000  1.2552000  3
    216    222    226    228     1  0.0000000  1.2552000  3
    217    216    219    239     1  0.0000000  0.6508444  3
    217    216    219    220     1  0.0000000  0.6508444  3
    217    216    219    221     1  0.0000000  0.6508444  3
    217    216    222    223     1  0.0000000  1.2552000  3
    217    216    222    226     1  0.0000000  1.2552000  3
    218    216    219    239     1  0.0000000  0.6508444  3
    218    216    219    220     1  0.0000000  0.6508444  3
    218    216    219    221     1  0.0000000  0.6508444  3
    218    216    222    223     1  0.0000000  1.2552000  3
    218    216    222    226     1  0.0000000  1.2552000  3
    220    219    216    222     1  0.0000000  0.6508444  3
    220    219    239    240     1  0.0000000  0.0000000  2
    221    219    216    222     1  0.0000000  0.6508444  3
    221    219    239    240     1  0.0000000  0.0000000  2
    222    223    232    233     1  0.0000000  0.6508444  3
    222    223    232    234     1  0.0000000  0.6508444  3
    222    226    229    230     1  0.0000000  0.6508444  3
    222    226    229    231     1  0.0000000  0.6508444  3
    223    222    226    227     1  0.0000000  1.2552000  3
    223    222    226    228     1  0.0000000  1.2552000  3
    224    223    222    226     1  0.0000000  1.2552000  3
    224    223    232    236     1  0.0000000  0.6508444  3
    224    223    232    233     1  0.0000000  0.6508444  3
    224    223    232    234     1  0.0000000  0.6508444  3
    225    223    222    226     1  0.0000000  1.2552000  3
    225    223    232    236     1  0.0000000  0.6508444  3
    225    223    232    233     1  0.0000000  0.6508444  3
    225    223    232    234     1  0.0000000  0.6508444  3
    227    226    229    235     1  0.0000000  0.6508444  3
    227    226    229    230     1  0.0000000  0.6508444  3
    227    226    229    231     1  0.0000000  0.6508444  3
    228    226    229    235     1  0.0000000  0.6508444  3
    228    226    229    230     1  0.0000000  0.6508444  3
    228    226    229    231     1  0.0000000  0.6508444  3
    229    235    514    515     1  180.0000771  10.4600000  2
    230    229    235    237     1  0.0000000  3.3472000  1
    230    229    235    237     1  0.0000000  0.0000000  2
    230    229    235    237     1  180.0000771  0.3347200  3
    230    229    235    514     1  180.0000771  0.0000000  2
    231    229    235    237     1  0.0000000  3.3472000  1
    231    229    235    237     1  0.0000000  0.0000000  2
    231    229    235    237     1  180.0000771  0.3347200  3
    231    229    235    514     1  180.0000771  0.0000000  2
    232    236    539    540     1  180.0000771  10.4600000  2
    233    232    236    238     1  0.0000000  3.3472000  1
    233    232    236    238     1  0.0000000  0.0000000  2
    233    232    236    238     1  180.0000771  0.3347200  3
    233    232    236    539     1  180.0000771  0.0000000  2
    234    232    236    238     1  0.0000000  3.3472000  1
    234    232    236    238     1  0.0000000  0.0000000  2
    234    232    236    238     1  180.0000771  0.3347200  3
    234    232    236    539     1  180.0000771  0.0000000  2
    235    514    494    495     1  0.0000000  0.0000000  2
    235    514    494    496     1  0.0000000  0.0000000  2
    236    539    519    520     1  0.0000000  0.0000000  2
    236    539    519    521     1  0.0000000  0.0000000  2
    237    235    514    515     1  0.0000000  8.3680000  1
    237    235    514    515     1  180.0000771  10.4600000  2
    238    236    539    540     1  0.0000000  8.3680000  1
    238    236    539    540     1  180.0000771  10.4600000  2
    241    244    264    265     1  0.0000000  0.0000000  2
    241    247    248    249     1  0.0000000  1.2552000  3
    241    247    248    250     1  0.0000000  1.2552000  3
    241    247    251    252     1  0.0000000  1.2552000  3
    241    247    251    253     1  0.0000000  1.2552000  3
    242    241    244    264     1  0.0000000  0.6508444  3
    242    241    244    245     1  0.0000000  0.6508444  3
    242    241    244    246     1  0.0000000  0.6508444  3
    242    241    247    248     1  0.0000000  1.2552000  3
    242    241    247    251     1  0.0000000  1.2552000  3
    243    241    244    264     1  0.0000000  0.6508444  3
    243    241    244    245     1  0.0000000  0.6508444  3
    243    241    244    246     1  0.0000000  0.6508444  3
    243    241    247    248     1  0.0000000  1.2552000  3
    243    241    247    251     1  0.0000000  1.2552000  3
    245    244    241    247     1  0.0000000  0.6508444  3
    245    244    264    265     1  0.0000000  0.0000000  2
    246    244    241    247     1  0.0000000  0.6508444  3
    246    244    264    265     1  0.0000000  0.0000000  2
    247    248    257    258     1  0.0000000  0.6508444  3
    247    248    257    259     1  0.0000000  0.6508444  3
    247    251    254    255     1  0.0000000  0.6508444  3
    247    251    254    256     1  0.0000000  0.6508444  3
    248    247    251    252     1  0.0000000  1.2552000  3
    248    247    251    253     1  0.0000000  1.2552000  3
    249    248    247    251     1  0.0000000  1.2552000  3
    249    248    257    261     1  0.0000000  0.6508444  3
    249    248    257    258     1  0.0000000  0.6508444  3
    249    248    257    259     1  0.0000000  0.6508444  3
    250    248    247    251     1  0.0000000  1.2552000  3
    250    248    257    261     1  0.0000000  0.6508444  3
    250    248    257    258     1  0.0000000  0.6508444  3
    250    248    257    259     1  0.0000000  0.6508444  3
    252    251    254    260     1  0.0000000  0.6508444  3
    252    251    254    255     1  0.0000000  0.6508444  3
    252    251    254    256     1  0.0000000  0.6508444  3
    253    251    254    260     1  0.0000000  0.6508444  3
    253    251    254    255     1  0.0000000  0.6508444  3
    253    251    254    256     1  0.0000000  0.6508444  3
    254    260    564    565     1  180.0000771  10.4600000  2
    255    254    260    262     1  0.0000000  3.3472000  1
    255    254    260    262     1  0.0000000  0.0000000  2
    255    254    260    262     1  180.0000771  0.3347200  3
    255    254    260    564     1  180.0000771  0.0000000  2
    256    254    260    262     1  0.0000000  3.3472000  1
    256    254    260    262     1  0.0000000  0.0000000  2
    256    254    260    262     1  180.0000771  0.3347200  3
    256    254    260    564     1  180.0000771  0.0000000  2
    257    261    589    590     1  180.0000771  10.4600000  2
    258    257    261    263     1  0.0000000  3.3472000  1
    258    257    261    263     1  0.0000000  0.0000000  2
    258    257    261    263     1  180.0000771  0.3347200  3
    258    257    261    589     1  180.0000771  0.0000000  2
    259    257    261    263     1  0.0000000  3.3472000  1
    259    257    261    263     1  0.0000000  0.0000000  2
    259    257    261    263     1  180.0000771  0.3347200  3
    259    257    261    589     1  180.0000771  0.0000000  2
    260    564    544    545     1  0.0000000  0.0000000  2
    260    564    544    546     1  0.0000000  0.0000000  2
    261    589    569    570     1  0.0000000  0.0000000  2
    261    589    569    571     1  0.0000000  0.0000000  2
    262    260    564    565     1  0.0000000  8.3680000  1
    262    260    564    565     1  180.0000771  10.4600000  2
    263    261    589    590     1  0.0000000  8.3680000  1
    263    261    589    590     1  180.0000771  10.4600000  2
    266    269    289    290     1  0.0000000  0.0000000  2
    266    272    273    274     1  0.0000000  1.2552000  3
    266    272    273    275     1  0.0000000  1.2552000  3
    266    272    276    277     1  0.0000000  1.2552000  3
    266    272    276    278     1  0.0000000  1.2552000  3
    267    266    269    289     1  0.0000000  0.6508444  3
    267    266    269    270     1  0.0000000  0.6508444  3
    267    266    269    271     1  0.0000000  0.6508444  3
    267    266    272    273     1  0.0000000  1.2552000  3
    267    266    272    276     1  0.0000000  1.2552000  3
    268    266    269    289     1  0.0000000  0.6508444  3
    268    266    269    270     1  0.0000000  0.6508444  3
    268    266    269    271     1  0.0000000  0.6508444  3
    268    266    272    273     1  0.0000000  1.2552000  3
    268    266    272    276     1  0.0000000  1.2552000  3
    270    269    266    272     1  0.0000000  0.6508444  3
    270    269    289    290     1  0.0000000  0.0000000  2
    271    269    266    272     1  0.0000000  0.6508444  3
    271    269    289    290     1  0.0000000  0.0000000  2
    272    273    282    283     1  0.0000000  0.6508444  3
    272    273    282    284     1  0.0000000  0.6508444  3
    272    276    279    280     1  0.0000000  0.6508444  3
    272    276    279    281     1  0.0000000  0.6508444  3
    273    272    276    277     1  0.0000000  1.2552000  3
    273    272    276    278     1  0.0000000  1.2552000  3
    274    273    272    276     1  0.0000000  1.2552000  3
    274    273    282    286     1  0.0000000  0.6508444  3
    274    273    282    283     1  0.0000000  0.6508444  3
    274    273    282    284     1  0.0000000  0.6508444  3
    275    273    272    276     1  0.0000000  1.2552000  3
    275    273    282    286     1  0.0000000  0.6508444  3
    275    273    282    283     1  0.0000000  0.6508444  3
    275    273    282    284     1  0.0000000  0.6508444  3
    277    276    279    285     1  0.0000000  0.6508444  3
    277    276    279    280     1  0.0000000  0.6508444  3
    277    276    279    281     1  0.0000000  0.6508444  3
    278    276    279    285     1  0.0000000  0.6508444  3
    278    276    279    280     1  0.0000000  0.6508444  3
    278    276    279    281     1  0.0000000  0.6508444  3
    279    285    614    615     1  180.0000771  10.4600000  2
    280    279    285    287     1  0.0000000  3.3472000  1
    280    279    285    287     1  0.0000000  0.0000000  2
    280    279    285    287     1  180.0000771  0.3347200  3
    280    279    285    614     1  180.0000771  0.0000000  2
    281    279    285    287     1  0.0000000  3.3472000  1
    281    279    285    287     1  0.0000000  0.0000000  2
    281    279    285    287     1  180.0000771  0.3347200  3
    281    279    285    614     1  180.0000771  0.0000000  2
    282    286    639    640     1  180.0000771  10.4600000  2
    283    282    286    288     1  0.0000000  3.3472000  1
    283    282    286    288     1  0.0000000  0.0000000  2
    283    282    286    288     1  180.0000771  0.3347200  3
    283    282    286    639     1  180.0000771  0.0000000  2
    284    282    286    288     1  0.0000000  3.3472000  1
    284    282    286    288     1  0.0000000  0.0000000  2
    284    282    286    288     1  180.0000771  0.3347200  3
    284    282    286    639     1  180.0000771  0.0000000  2
    285    614    594    595     1  0.0000000  0.0000000  2
    285    614    594    596     1  0.0000000  0.0000000  2
    286    639    619    620     1  0.0000000  0.0000000  2
    286    639    619    621     1  0.0000000  0.0000000  2
    287    285    614    615     1  0.0000000  8.3680000  1
    287    285    614    615     1  180.0000771  10.4600000  2
    288    286    639    640     1  0.0000000  8.3680000  1
    288    286    639    640     1  180.0000771  10.4600000  2
    291    294    314    315     1  0.0000000  0.0000000  2
    291    297    298    299     1  0.0000000  1.2552000  3
    291    297    298    300     1  0.0000000  1.2552000  3
    291    297    301    302     1  0.0000000  1.2552000  3
    291    297    301    303     1  0.0000000  1.2552000  3
    292    291    294    314     1  0.0000000  0.6508444  3
    292    291    294    295     1  0.0000000  0.6508444  3
    292    291    294    296     1  0.0000000  0.6508444  3
    292    291    297    298     1  0.0000000  1.2552000  3
    292    291    297    301     1  0.0000000  1.2552000  3
    293    291    294    314     1  0.0000000  0.6508444  3
    293    291    294    295     1  0.0000000  0.6508444  3
    293    291    294    296     1  0.0000000  0.6508444  3
    293    291    297    298     1  0.0000000  1.2552000  3
    293    291    297    301     1  0.0000000  1.2552000  3
    295    294    291    297     1  0.0000000  0.6508444  3
    295    294    314    315     1  0.0000000  0.0000000  2
    296    294    291    297     1  0.0000000  0.6508444  3
    296    294    314    315     1  0.0000000  0.0000000  2
    297    298    307    308     1  0.0000000  0.6508444  3
    297    298    307    309     1  0.0000000  0.6508444  3
    297    301    304    305     1  0.0000000  0.6508444  3
    297    301    304    306     1  0.0000000  0.6508444  3
    298    297    301    302     1  0.0000000  1.2552000  3
    298    297    301    303     1  0.0000000  1.2552000  3
    299    298    297    301     1  0.0000000  1.2552000  3
    299    298    307    311     1  0.0000000  0.6508444  3
    299    298    307    308     1  0.0000000  0.6508444  3
    299    298    307    309     1  0.0000000  0.6508444  3
    300    298    297    301     1  0.0000000  1.2552000  3
    300    298    307    311     1  0.0000000  0.6508444  3
    300    298    307    308     1  0.0000000  0.6508444  3
    300    298    307    309     1  0.0000000  0.6508444  3
    302    301    304    310     1  0.0000000  0.6508444  3
    302    301    304    305     1  0.0000000  0.6508444  3
    302    301    304    306     1  0.0000000  0.6508444  3
    303    301    304    310     1  0.0000000  0.6508444  3
    303    301    304    305     1  0.0000000  0.6508444  3
    303    301    304    306     1  0.0000000  0.6508444  3
    304    310    664    665     1  180.0000771  10.4600000  2
    305    304    310    312     1  0.0000000  3.3472000  1
    305    304    310    312     1  0.0000000  0.0000000  2
    305    304    310    312     1  180.0000771  0.3347200  3
    305    304    310    664     1  180.0000771  0.0000000  2
    306    304    310    312     1  0.0000000  3.3472000  1
    306    304    310    312     1  0.0000000  0.0000000  2
    306    304    310    312     1  180.0000771  0.3347200  3
    306    304    310    664     1  180.0000771  0.0000000  2
    307    311    689    690     1  180.0000771  10.4600000  2
    308    307    311    313     1  0.0000000  3.3472000  1
    308    307    311    313     1  0.0000000  0.0000000  2
    308    307    311    313     1  180.0000771  0.3347200  3
    308    307    311    689     1  180.0000771  0.0000000  2
    309    307    311    313     1  0.0000000  3.3472000  1
    309    307    311    313     1  0.0000000  0.0000000  2
    309    307    311    313     1  180.0000771  0.3347200  3
    309    307    311    689     1  180.0000771  0.0000000  2
    310    664    644    645     1  0.0000000  0.0000000  2
    310    664    644    646     1  0.0000000  0.0000000  2
    311    689    669    670     1  0.0000000  0.0000000  2
    311    689    669    671     1  0.0000000  0.0000000  2
    312    310    664    665     1  0.0000000  8.3680000  1
    312    310    664    665     1  180.0000771  10.4600000  2
    313    311    689    690     1  0.0000000  8.3680000  1
    313    311    689    690     1  180.0000771  10.4600000  2
    316    319    339    340     1  0.0000000  0.0000000  2
    316    322    323    324     1  0.0000000  1.2552000  3
    316    322    323    325     1  0.0000000  1.2552000  3
    316    322    326    327     1  0.0000000  1.2552000  3
    316    322    326    328     1  0.0000000  1.2552000  3
    317    316    319    339     1  0.0000000  0.6508444  3
    317    316    319    320     1  0.0000000  0.6508444  3
    317    316    319    321     1  0.0000000  0.6508444  3
    317    316    322    323     1  0.0000000  1.2552000  3
    317    316    322    326     1  0.0000000  1.2552000  3
    318    316    319    339     1  0.0000000  0.6508444  3
    318    316    319    320     1  0.0000000  0.6508444  3
    318    316    319    321     1  0.0000000  0.6508444  3
    318    316    322    323     1  0.0000000  1.2552000  3
    318    316    322    326     1  0.0000000  1.2552000  3
    320    319    316    322     1  0.0000000  0.6508444  3
    320    319    339    340     1  0.0000000  0.0000000  2
    321    319    316    322     1  0.0000000  0.6508444  3
    321    319    339    340     1  0.0000000  0.0000000  2
    322    323    332    333     1  0.0000000  0.6508444  3
    322    323    332    334     1  0.0000000  0.6508444  3
    322    326    329    330     1  0.0000000  0.6508444  3
    322    326    329    331     1  0.0000000  0.6508444  3
    323    322    326    327     1  0.0000000  1.2552000  3
    323    322    326    328     1  0.0000000  1.2552000  3
    324    323    322    326     1  0.0000000  1.2552000  3
    324    323    332    336     1  0.0000000  0.6508444  3
    324    323    332    333     1  0.0000000  0.6508444  3
    324    323    332    334     1  0.0000000  0.6508444  3
    325    323    322    326     1  0.0000000  1.2552000  3
    325    323    332    336     1  0.0000000  0.6508444  3
    325    323    332    333     1  0.0000000  0.6508444  3
    325    323    332    334     1  0.0000000  0.6508444  3
    327    326    329    335     1  0.0000000  0.6508444  3
    327    326    329    330     1  0.0000000  0.6508444  3
    327    326    329    331     1  0.0000000  0.6508444  3
    328    326    329    335     1  0.0000000  0.6508444  3
    328    326    329    330     1  0.0000000  0.6508444  3
    328    326    329    331     1  0.0000000  0.6508444  3
    329    335    714    715     1  180.0000771  10.4600000  2
    330    329    335    337     1  0.0000000  3.3472000  1
    330    329    335    337     1  0.0000000  0.0000000  2
    330    329    335    337     1  180.0000771  0.3347200  3
    330    329    335    714     1  180.0000771  0.0000000  2
    331    329    335    337     1  0.0000000  3.3472000  1
    331    329    335    337     1  0.0000000  0.0000000  2
    331    329    335    337     1  180.0000771  0.3347200  3
    331    329    335    714     1  180.0000771  0.0000000  2
    332    336    739    740     1  180.0000771  10.4600000  2
    333    332    336    338     1  0.0000000  3.3472000  1
    333    332    336    338     1  0.0000000  0.0000000  2
    333    332    336    338     1  180.0000771  0.3347200  3
    333    332    336    739     1  180.0000771  0.0000000  2
    334    332    336    338     1  0.0000000  3.3472000  1
    334    332    336    338     1  0.0000000  0.0000000  2
    334    332    336    338     1  180.0000771  0.3347200  3
    334    332    336    739     1  180.0000771  0.0000000  2
    335    714    694    695     1  0.0000000  0.0000000  2
    335    714    694    696     1  0.0000000  0.0000000  2
    336    739    719    720     1  0.0000000  0.0000000  2
    336    739    719    721     1  0.0000000  0.0000000  2
    337    335    714    715     1  0.0000000  8.3680000  1
    337    335    714    715     1  180.0000771  10.4600000  2
    338    336    739    740     1  0.0000000  8.3680000  1
    338    336    739    740     1  180.0000771  10.4600000  2
    341    344    364    365     1  0.0000000  0.0000000  2
    341    347    348    349     1  0.0000000  1.2552000  3
    341    347    348    350     1  0.0000000  1.2552000  3
    341    347    351    352     1  0.0000000  1.2552000  3
    341    347    351    353     1  0.0000000  1.2552000  3
    342    341    344    364     1  0.0000000  0.6508444  3
    342    341    344    345     1  0.0000000  0.6508444  3
    342    341    344    346     1  0.0000000  0.6508444  3
    342    341    347    348     1  0.0000000  1.2552000  3
    342    341    347    351     1  0.0000000  1.2552000  3
    343    341    344    364     1  0.0000000  0.6508444  3
    343    341    344    345     1  0.0000000  0.6508444  3
    343    341    344    346     1  0.0000000  0.6508444  3
    343    341    347    348     1  0.0000000  1.2552000  3
    343    341    347    351     1  0.0000000  1.2552000  3
    345    344    341    347     1  0.0000000  0.6508444  3
    345    344    364    365     1  0.0000000  0.0000000  2
    346    344    341    347     1  0.0000000  0.6508444  3
    346    344    364    365     1  0.0000000  0.0000000  2
    347    348    357    358     1  0.0000000  0.6508444  3
    347    348    357    359     1  0.0000000  0.6508444  3
    347    351    354    355     1  0.0000000  0.6508444  3
    347    351    354    356     1  0.0000000  0.6508444  3
    348    347    351    352     1  0.0000000  1.2552000  3
    348    347    351    353     1  0.0000000  1.2552000  3
    349    348    347    351     1  0.0000000  1.2552000  3
    349    348    357    361     1  0.0000000  0.6508444  3
    349    348    357    358     1  0.0000000  0.6508444  3
    349    348    357    359     1  0.0000000  0.6508444  3
    350    348    347    351     1  0.0000000  1.2552000  3
    350    348    357    361     1  0.0000000  0.6508444  3
    350    348    357    358     1  0.0000000  0.6508444  3
    350    348    357    359     1  0.0000000  0.6508444  3
    352    351    354    360     1  0.0000000  0.6508444  3
    352    351    354    355     1  0.0000000  0.6508444  3
    352    351    354    356     1  0.0000000  0.6508444  3
    353    351    354    360     1  0.0000000  0.6508444  3
    353    351    354    355     1  0.0000000  0.6508444  3
    353    351    354    356     1  0.0000000  0.6508444  3
    354    360    764    765     1  180.0000771  10.4600000  2
    355    354    360    362     1  0.0000000  3.3472000  1
    355    354    360    362     1  0.0000000  0.0000000  2
    355    354    360    362     1  180.0000771  0.3347200  3
    355    354    360    764     1  180.0000771  0.0000000  2
    356    354    360    362     1  0.0000000  3.3472000  1
    356    354    360    362     1  0.0000000  0.0000000  2
    356    354    360    362     1  180.0000771  0.3347200  3
    356    354    360    764     1  180.0000771  0.0000000  2
    357    361    789    790     1  180.0000771  10.4600000  2
    358    357    361    363     1  0.0000000  3.3472000  1
    358    357    361    363     1  0.0000000  0.0000000  2
    358    357    361    363     1  180.0000771  0.3347200  3
    358    357    361    789     1  180.0000771  0.0000000  2
    359    357    361    363     1  0.0000000  3.3472000  1
    359    357    361    363     1  0.0000000  0.0000000  2
    359    357    361    363     1  180.0000771  0.3347200  3
    359    357    361    789     1  180.0000771  0.0000000  2
    360    764    744    745     1  0.0000000  0.0000000  2
    360    764    744    746     1  0.0000000  0.0000000  2
    361    789    769    770     1  0.0000000  0.0000000  2
    361    789    769    771     1  0.0000000  0.0000000  2
    362    360    764    765     1  0.0000000  8.3680000  1
    362    360    764    765     1  180.0000771  10.4600000  2
    363    361    789    790     1  0.0000000  8.3680000  1
    363    361    789    790     1  180.0000771  10.4600000  2
    366    369    389    390     1  0.0000000  0.0000000  2
    366    372    373    374     1  0.0000000  1.2552000  3
    366    372    373    375     1  0.0000000  1.2552000  3
    366    372    376    377     1  0.0000000  1.2552000  3
    366    372    376    378     1  0.0000000  1.2552000  3
    367    366    369    389     1  0.0000000  0.6508444  3
    367    366    369    370     1  0.0000000  0.6508444  3
    367    366    369    371     1  0.0000000  0.6508444  3
    367    366    372    373     1  0.0000000  1.2552000  3
    367    366    372    376     1  0.0000000  1.2552000  3
    368    366    369    389     1  0.0000000  0.6508444  3
    368    366    369    370     1  0.0000000  0.6508444  3
    368    366    369    371     1  0.0000000  0.6508444  3
    368    366    372    373     1  0.0000000  1.2552000  3
    368    366    372    376     1  0.0000000  1.2552000  3
    370    369    366    372     1  0.0000000  0.6508444  3
    370    369    389    390     1  0.0000000  0.0000000  2
    371    369    366    372     1  0.0000000  0.6508444  3
    371    369    389    390     1  0.0000000  0.0000000  2
    372    373    382    383     1  0.0000000  0.6508444  3
    372    373    382    384     1  0.0000000  0.6508444  3
    372    376    379    380     1  0.0000000  0.6508444  3
    372    376    379    381     1  0.0000000  0.6508444  3
    373    372    376    377     1  0.0000000  1.2552000  3
    373    372    376    378     1  0.0000000  1.2552000  3
    374    373    372    376     1  0.0000000  1.2552000  3
    374    373    382    386     1  0.0000000  0.6508444  3
    374    373    382    383     1  0.0000000  0.6508444  3
    374    373    382    384     1  0.0000000  0.6508444  3
    375    373    372    376     1  0.0000000  1.2552000  3
    375    373    382    386     1  0.0000000  0.6508444  3
    375    373    382    383     1  0.0000000  0.6508444  3
    375    373    382    384     1  0.0000000  0.6508444  3
    377    376    379    385     1  0.0000000  0.6508444  3
    377    376    379    380     1  0.0000000  0.6508444  3
    377    376    379    381     1  0.0000000  0.6508444  3
    378    376    379    385     1  0.0000000  0.6508444  3
    378    376    379    380     1  0.0000000  0.6508444  3
    378    376    379    381     1  0.0000000  0.6508444  3
    379    385    814    815     1  180.0000771  10.4600000  2
    380    379    385    387     1  0.0000000  3.3472000  1
    380    379    385    387     1  0.0000000  0.0000000  2
    380    379    385    387     1  180.0000771  0.3347200  3
    380    379    385    814     1  180.0000771  0.0000000  2
    381    379    385    387     1  0.0000000  3.3472000  1
    381    379    385    387     1  0.0000000  0.0000000  2
    381    379    385    387     1  180.0000771  0.3347200  3
    381    379    385    814     1  180.0000771  0.0000000  2
    382    386    839    840     1  180.0000771  10.4600000  2
    383    382    386    388     1  0.0000000  3.3472000  1
    383    382    386    388     1  0.0000000  0.0000000  2
    383    382    386    388     1  180.0000771  0.3347200  3
    383    382    386    839     1  180.0000771  0.0000000  2
    384    382    386    388     1  0.0000000  3.3472000  1
    384    382    386    388     1  0.0000000  0.0000000  2
    384    382    386    388     1  180.0000771  0.3347200  3
    384    382    386    839     1  180.0000771  0.0000000  2
    385    814    794    795     1  0.0000000  0.0000000  2
    385    814    794    796     1  0.0000000  0.0000000  2
    386    839    819    820     1  0.0000000  0.0000000  2
    386    839    819    821     1  0.0000000  0.0000000  2
    387    385    814    815     1  0.0000000  8.3680000  1
    387    385    814    815     1  180.0000771  10.4600000  2
    388    386    839    840     1  0.0000000  8.3680000  1
    388    386    839    840     1  180.0000771  10.4600000  2
    391    394    414    415     1  0.0000000  0.0000000  2
    391    397    398    399     1  0.0000000  1.2552000  3
    391    397    398    400     1  0.0000000  1.2552000  3
    391    397    401    402     1  0.0000000  1.2552000  3
    391    397    401    403     1  0.0000000  1.2552000  3
    392    391    394    414     1  0.0000000  0.6508444  3
    392    391    394    395     1  0.0000000  0.6508444  3
    392    391    394    396     1  0.0000000  0.6508444  3
    392    391    397    398     1  0.0000000  1.2552000  3
    392    391    397    401     1  0.0000000  1.2552000  3
    393    391    394    414     1  0.0000000  0.6508444  3
    393    391    394    395     1  0.0000000  0.6508444  3
    393    391    394    396     1  0.0000000  0.6508444  3
    393    391    397    398     1  0.0000000  1.2552000  3
    393    391    397    401     1  0.0000000  1.2552000  3
    395    394    391    397     1  0.0000000  0.6508444  3
    395    394    414    415     1  0.0000000  0.0000000  2
    396    394    391    397     1  0.0000000  0.6508444  3
    396    394    414    415     1  0.0000000  0.0000000  2
    397    398    407    408     1  0.0000000  0.6508444  3
    397    398    407    409     1  0.0000000  0.6508444  3
    397    401    404    405     1  0.0000000  0.6508444  3
    397    401    404    406     1  0.0000000  0.6508444  3
    398    397    401    402     1  0.0000000  1.2552000  3
    398    397    401    403     1  0.0000000  1.2552000  3
    399    398    397    401     1  0.0000000  1.2552000  3
    399    398    407    411     1  0.0000000  0.6508444  3
    399    398    407    408     1  0.0000000  0.6508444  3
    399    398    407    409     1  0.0000000  0.6508444  3
    400    398    397    401     1  0.0000000  1.2552000  3
    400    398    407    411     1  0.0000000  0.6508444  3
    400    398    407    408     1  0.0000000  0.6508444  3
    400    398    407    409     1  0.0000000  0.6508444  3
    402    401    404    410     1  0.0000000  0.6508444  3
    402    401    404    405     1  0.0000000  0.6508444  3
    402    401    404    406     1  0.0000000  0.6508444  3
    403    401    404    410     1  0.0000000  0.6508444  3
    403    401    404    405     1  0.0000000  0.6508444  3
    403    401    404    406     1  0.0000000  0.6508444  3
    404    410    864    865     1  180.0000771  10.4600000  2
    405    404    410    412     1  0.0000000  3.3472000  1
    405    404    410    412     1  0.0000000  0.0000000  2
    405    404    410    412     1  180.0000771  0.3347200  3
    405    404    410    864     1  180.0000771  0.0000000  2
    406    404    410    412     1  0.0000000  3.3472000  1
    406    404    410    412     1  0.0000000  0.0000000  2
    406    404    410    412     1  180.0000771  0.3347200  3
    406    404    410    864     1  180.0000771  0.0000000  2
    407    411    889    890     1  180.0000771  10.4600000  2
    408    407    411    413     1  0.0000000  3.3472000  1
    408    407    411    413     1  0.0000000  0.0000000  2
    408    407    411    413     1  180.0000771  0.3347200  3
    408    407    411    889     1  180.0000771  0.0000000  2
    409    407    411    413     1  0.0000000  3.3472000  1
    409    407    411    413     1  0.0000000  0.0000000  2
    409    407    411    413     1  180.0000771  0.3347200  3
    409    407    411    889     1  180.0000771  0.0000000  2
    410    864    844    845     1  0.0000000  0.0000000  2
    410    864    844    846     1  0.0000000  0.0000000  2
    411    889    869    870     1  0.0000000  0.0000000  2
    411    889    869    871     1  0.0000000  0.0000000  2
    412    410    864    865     1  0.0000000  8.3680000  1
    412    410    864    865     1  180.0000771  10.4600000  2
    413    411    889    890     1  0.0000000  8.3680000  1
    413    411    889    890     1  180.0000771  10.4600000  2
    416    419    439    440     1  0.0000000  0.0000000  2
    416    422    423    424     1  0.0000000  1.2552000  3
    416    422    423    425     1  0.0000000  1.2552000  3
    416    422    426    427     1  0.0000000  1.2552000  3
    416    422    426    428     1  0.0000000  1.2552000  3
    417    416    419    439     1  0.0000000  0.6508444  3
    417    416    419    420     1  0.0000000  0.6508444  3
    417    416    419    421     1  0.0000000  0.6508444  3
    417    416    422    423     1  0.0000000  1.2552000  3
    417    416    422    426     1  0.0000000  1.2552000  3
    418    416    419    439     1  0.0000000  0.6508444  3
    418    416    419    420     1  0.0000000  0.6508444  3
    418    416    419    421     1  0.0000000  0.6508444  3
    418    416    422    423     1  0.0000000  1.2552000  3
    418    416    422    426     1  0.0000000  1.2552000  3
    420    419    416    422     1  0.0000000  0.6508444  3
    420    419    439    440     1  0.0000000  0.0000000  2
    421    419    416    422     1  0.0000000  0.6508444  3
    421    419    439    440     1  0.0000000  0.0000000  2
    422    423    432    433     1  0.0000000  0.6508444  3
    422    423    432    434     1  0.0000000  0.6508444  3
    422    426    429    430     1  0.0000000  0.6508444  3
    422    426    429    431     1  0.0000000  0.6508444  3
    423    422    426    427     1  0.0000000  1.2552000  3
    423    422    426    428     1  0.0000000  1.2552000  3
    424    423    422    426     1  0.0000000  1.2552000  3
    424    423    432    436     1  0.0000000  0.6508444  3
    424    423    432    433     1  0.0000000  0.6508444  3
    424    423    432    434     1  0.0000000  0.6508444  3
    425    423    422    426     1  0.0000000  1.2552000  3
    425    423    432    436     1  0.0000000  0.6508444  3
    425    423    432    433     1  0.0000000  0.6508444  3
    425    423    432    434     1  0.0000000  0.6508444  3
    427    426    429    435     1  0.0000000  0.6508444  3
    427    426    429    430     1  0.0000000  0.6508444  3
    427    426    429    431     1  0.0000000  0.6508444  3
    428    426    429    435     1  0.0000000  0.6508444  3
    428    426    429    430     1  0.0000000  0.6508444  3
    428    426    429    431     1  0.0000000  0.6508444  3
    429    435    914    915     1  180.0000771  10.4600000  2
    430    429    435    437     1  0.0000000  3.3472000  1
    430    429    435    437     1  0.0000000  0.0000000  2
    430    429    435    437     1  180.0000771  0.3347200  3
    430    429    435    914     1  180.0000771  0.0000000  2
    431    429    435    437     1  0.0000000  3.3472000  1
    431    429    435    437     1  0.0000000  0.0000000  2
    431    429    435    437     1  180.0000771  0.3347200  3
    431    429    435    914     1  180.0000771  0.0000000  2
    432    436    939    940     1  180.0000771  10.4600000  2
    433    432    436    438     1  0.0000000  3.3472000  1
    433    432    436    438     1  0.0000000  0.0000000  2
    433    432    436    438     1  180.0000771  0.3347200  3
    433    432    436    939     1  180.0000771  0.0000000  2
    434    432    436    438     1  0.0000000  3.3472000  1
    434    432    436    438     1  0.0000000  0.0000000  2
    434    432    436    438     1  180.0000771  0.3347200  3
    434    432    436    939     1  180.0000771  0.0000000  2
    435    914    894    895     1  0.0000000  0.0000000  2
    435    914    894    896     1  0.0000000  0.0000000  2
    436    939    919    920     1  0.0000000  0.0000000  2
    436    939    919    921     1  0.0000000  0.0000000  2
    437    435    914    915     1  0.0000000  8.3680000  1
    437    435    914    915     1  180.0000771  10.4600000  2
    438    436    939    940     1  0.0000000  8.3680000  1
    438    436    939    940     1  180.0000771  10.4600000  2
    441    444    464    465     1  0.0000000  0.0000000  2
    441    447    448    449     1  0.0000000  1.2552000  3
    441    447    448    450     1  0.0000000  1.2552000  3
    441    447    451    452     1  0.0000000  1.2552000  3
    441    447    451    453     1  0.0000000  1.2552000  3
    442    441    444    464     1  0.0000000  0.6508444  3
    442    441    444    445     1  0.0000000  0.6508444  3
    442    441    444    446     1  0.0000000  0.6508444  3
    442    441    447    448     1  0.0000000  1.2552000  3
    442    441    447    451     1  0.0000000  1.2552000  3
    443    441    444    464     1  0.0000000  0.6508444  3
    443    441    444    445     1  0.0000000  0.6508444  3
    443    441    444    446     1  0.0000000  0.6508444  3
    443    441    447    448     1  0.0000000  1.2552000  3
    443    441    447    451     1  0.0000000  1.2552000  3
    445    444    441    447     1  0.0000000  0.6508444  3
    445    444    464    465     1  0.0000000  0.0000000  2
    446    444    441    447     1  0.0000000  0.6508444  3
    446    444    464    465     1  0.0000000  0.0000000  2
    447    448    457    458     1  0.0000000  0.6508444  3
    447    448    457    459     1  0.0000000  0.6508444  3
    447    451    454    455     1  0.0000000  0.6508444  3
    447    451    454    456     1  0.0000000  0.6508444  3
    448    447    451    452     1  0.0000000  1.2552000  3
    448    447    451    453     1  0.0000000  1.2552000  3
    449    448    447    451     1  0.0000000  1.2552000  3
    449    448    457    461     1  0.0000000  0.6508444  3
    449    448    457    458     1  0.0000000  0.6508444  3
    449    448    457    459     1  0.0000000  0.6508444  3
    450    448    447    451     1  0.0000000  1.2552000  3
    450    448    457    461     1  0.0000000  0.6508444  3
    450    448    457    458     1  0.0000000  0.6508444  3
    450    448    457    459     1  0.0000000  0.6508444  3
    452    451    454    460     1  0.0000000  0.6508444  3
    452    451    454    455     1  0.0000000  0.6508444  3
    452    451    454    456     1  0.0000000  0.6508444  3
    453    451    454    460     1  0.0000000  0.6508444  3
    453    451    454    455     1  0.0000000  0.6508444  3
    453    451    454    456     1  0.0000000  0.6508444  3
    454    460    964    965     1  180.0000771  10.4600000  2
    455    454    460    462     1  0.0000000  3.3472000  1
    455    454    460    462     1  0.0000000  0.0000000  2
    455    454    460    462     1  180.0000771  0.3347200  3
    455    454    460    964     1  180.0000771  0.0000000  2
    456    454    460    462     1  0.0000000  3.3472000  1
    456    454    460    462     1  0.0000000  0.0000000  2
    456    454    460    462     1  180.0000771  0.3347200  3
    456    454    460    964     1  180.0000771  0.0000000  2
    457    461    989    990     1  180.0000771  10.4600000  2
    458    457    461    463     1  0.0000000  3.3472000  1
    458    457    461    463     1  0.0000000  0.0000000  2
    458    457    461    463     1  180.0000771  0.3347200  3
    458    457    461    989     1  180.0000771  0.0000000  2
    459    457    461    463     1  0.0000000  3.3472000  1
    459    457    461    463     1  0.0000000  0.0000000  2
    459    457    461    463     1  180.0000771  0.3347200  3
    459    457    461    989     1  180.0000771  0.0000000  2
    460    964    944    945     1  0.0000000  0.0000000  2
    460    964    944    946     1  0.0000000  0.0000000  2
    461    989    969    970     1  0.0000000  0.0000000  2
    461    989    969    971     1  0.0000000  0.0000000  2
    462    460    964    965     1  0.0000000  8.3680000  1
    462    460    964    965     1  180.0000771  10.4600000  2
    463    461    989    990     1  0.0000000  8.3680000  1
    463    461    989    990     1  180.0000771  10.4600000  2
    466    469    489    490     1  0.0000000  0.0000000  2
    466    472    473    474     1  0.0000000  1.2552000  3
    466    472    473    475     1  0.0000000  1.2552000  3
    466    472    476    477     1  0.0000000  1.2552000  3
    466    472    476    478     1  0.0000000  1.2552000  3
    467    466    469    489     1  0.0000000  0.6508444  3
    467    466    469    470     1  0.0000000  0.6508444  3
    467    466    469    471     1  0.0000000  0.6508444  3
    467    466    472    473     1  0.0000000  1.2552000  3
    467    466    472    476     1  0.0000000  1.2552000  3
    468    466    469    489     1  0.0000000  0.6508444  3
    468    466    469    470     1  0.0000000  0.6508444  3
    468    466    469    471     1  0.0000000  0.6508444  3
    468    466    472    473     1  0.0000000  1.2552000  3
    468    466    472    476     1  0.0000000  1.2552000  3
    470    469    466    472     1  0.0000000  0.6508444  3
    470    469    489    490     1  0.0000000  0.0000000  2
    471    469    466    472     1  0.0000000  0.6508444  3
    471    469    489    490     1  0.0000000  0.0000000  2
    472    473    482    483     1  0.0000000  0.6508444  3
    472    473    482    484     1  0.0000000  0.6508444  3
    472    476    479    480     1  0.0000000  0.6508444  3
    472    476    479    481     1  0.0000000  0.6508444  3
    473    472    476    477     1  0.0000000  1.2552000  3
    473    472    476    478     1  0.0000000  1.2552000  3
    474    473    472    476     1  0.0000000  1.2552000  3
    474    473    482    486     1  0.0000000  0.6508444  3
    474    473    482    483     1  0.0000000  0.6508444  3
    474    473    482    484     1  0.0000000  0.6508444  3
    475    473    472    476     1  0.0000000  1.2552000  3
    475    473    482    486     1  0.0000000  0.6508444  3
    475    473    482    483     1  0.0000000  0.6508444  3
    475    473    482    484     1  0.0000000  0.6508444  3
    477    476    479    485     1  0.0000000  0.6508444  3
    477    476    479    480     1  0.0000000  0.6508444  3
    477    476    479    481     1  0.0000000  0.6508444  3
    478    476    479    485     1  0.0000000  0.6508444  3
    478    476    479    480     1  0.0000000  0.6508444  3
    478    476    479    481     1  0.0000000  0.6508444  3
    479    485   1014   1015     1  180.0000771  10.4600000  2
    480    479    485    487     1  0.0000000  3.3472000  1
    480    479    485    487     1  0.0000000  0.0000000  2
    480    479    485    487     1  180.0000771  0.3347200  3
    480    479    485   1014     1  180.0000771  0.0000000  2
    481    479    485    487     1  0.0000000  3.3472000  1
    481    479    485    487     1  0.0000000  0.0000000  2
    481    479    485    487     1  180.0000771  0.3347200  3
    481    479    485   1014     1  180.0000771  0.0000000  2
    482    486   1039   1040     1  180.0000771  10.4600000  2
    483    482    486    488     1  0.0000000  3.3472000  1
    483    482    486    488     1  0.0000000  0.0000000  2
    483    482    486    488     1  180.0000771  0.3347200  3
    483    482    486   1039     1  180.0000771  0.0000000  2
    484    482    486    488     1  0.0000000  3.3472000  1
    484    482    486    488     1  0.0000000  0.0000000  2
    484    482    486    488     1  180.0000771  0.3347200  3
    484    482    486   1039     1  180.0000771  0.0000000  2
    485   1014    994    995     1  0.0000000  0.0000000  2
    485   1014    994    996     1  0.0000000  0.0000000  2
    486   1039   1019   1020     1  0.0000000  0.0000000  2
    486   1039   1019   1021     1  0.0000000  0.0000000  2
    487    485   1014   1015     1  0.0000000  8.3680000  1
    487    485   1014   1015     1  180.0000771  10.4600000  2
    488    486   1039   1040     1  0.0000000  8.3680000  1
    488    486   1039   1040     1  180.0000771  10.4600000  2
    491    494    514    515     1  0.0000000  0.0000000  2
    491    497    498    499     1  0.0000000  1.2552000  3
    491    497    498    500     1  0.0000000  1.2552000  3
    491    497    501    502     1  0.0000000  1.2552000  3
    491    497    501    503     1  0.0000000  1.2552000  3
    492    491    494    514     1  0.0000000  0.6508444  3
    492    491    494    495     1  0.0000000  0.6508444  3
    492    491    494    496     1  0.0000000  0.6508444  3
    492    491    497    498     1  0.0000000  1.2552000  3
    492    491    497    501     1  0.0000000  1.2552000  3
    493    491    494    514     1  0.0000000  0.6508444  3
    493    491    494    495     1  0.0000000  0.6508444  3
    493    491    494    496     1  0.0000000  0.6508444  3
    493    491    497    498     1  0.0000000  1.2552000  3
    493    491    497    501     1  0.0000000  1.2552000  3
    495    494    491    497     1  0.0000000  0.6508444  3
    495    494    514    515     1  0.0000000  0.0000000  2
    496    494    491    497     1  0.0000000  0.6508444  3
    496    494    514    515     1  0.0000000  0.0000000  2
    497    498    507    508     1  0.0000000  0.6508444  3
    497    498    507    509     1  0.0000000  0.6508444  3
    497    501    504    505     1  0.0000000  0.6508444  3
    497    501    504    506     1  0.0000000  0.6508444  3
    498    497    501    502     1  0.0000000  1.2552000  3
    498    497    501    503     1  0.0000000  1.2552000  3
    499    498    497    501     1  0.0000000  1.2552000  3
    499    498    507    511     1  0.0000000  0.6508444  3
    499    498    507    508     1  0.0000000  0.6508444  3
    499    498    507    509     1  0.0000000  0.6508444  3
    500    498    497    501     1  0.0000000  1.2552000  3
    500    498    507    511     1  0.0000000  0.6508444  3
    500    498    507    508     1  0.0000000  0.6508444  3
    500    498    507    509     1  0.0000000  0.6508444  3
    502    501    504    510     1  0.0000000  0.6508444  3
    502    501    504    505     1  0.0000000  0.6508444  3
    502    501    504    506     1  0.0000000  0.6508444  3
    503    501    504    510     1  0.0000000  0.6508444  3
    503    501    504    505     1  0.0000000  0.6508444  3
    503    501    504    506     1  0.0000000  0.6508444  3
    504    510   1064   1065     1  180.0000771  10.4600000  2
    505    504    510    512     1  0.0000000  3.3472000  1
    505    504    510    512     1  0.0000000  0.0000000  2
    505    504    510    512     1  180.0000771  0.3347200  3
    505    504    510   1064     1  180.0000771  0.0000000  2
    506    504    510    512     1  0.0000000  3.3472000  1
    506    504    510    512     1  0.0000000  0.0000000  2
    506    504    510    512     1  180.0000771  0.3347200  3
    506    504    510   1064     1  180.0000771  0.0000000  2
    507    511   1089   1090     1  180.0000771  10.4600000  2
    508    507    511    513     1  0.0000000  3.3472000  1
    508    507    511    513     1  0.0000000  0.0000000  2
    508    507    511    513     1  180.0000771  0.3347200  3
    508    507    511   1089     1  180.0000771  0.0000000  2
    509    507    511    513     1  0.0000000  3.3472000  1
    509    507    511    513     1  0.0000000  0.0000000  2
    509    507    511    513     1  180.0000771  0.3347200  3
    509    507    511   1089     1  180.0000771  0.0000000  2
    510   1064   1044   1045     1  0.0000000  0.0000000  2
    510   1064   1044   1046     1  0.0000000  0.0000000  2
    511   1089   1069   1070     1  0.0000000  0.0000000  2
    511   1089   1069   1071     1  0.0000000  0.0000000  2
    512    510   1064   1065     1  0.0000000  8.3680000  1
    512    510   1064   1065     1  180.0000771  10.4600000  2
    513    511   1089   1090     1  0.0000000  8.3680000  1
    513    511   1089   1090     1  180.0000771  10.4600000  2
    516    519    539    540     1  0.0000000  0.0000000  2
    516    522    523    524     1  0.0000000  1.2552000  3
    516    522    523    525     1  0.0000000  1.2552000  3
    516    522    526    527     1  0.0000000  1.2552000  3
    516    522    526    528     1  0.0000000  1.2552000  3
    517    516    519    539     1  0.0000000  0.6508444  3
    517    516    519    520     1  0.0000000  0.6508444  3
    517    516    519    521     1  0.0000000  0.6508444  3
    517    516    522    523     1  0.0000000  1.2552000  3
    517    516    522    526     1  0.0000000  1.2552000  3
    518    516    519    539     1  0.0000000  0.6508444  3
    518    516    519    520     1  0.0000000  0.6508444  3
    518    516    519    521     1  0.0000000  0.6508444  3
    518    516    522    523     1  0.0000000  1.2552000  3
    518    516    522    526     1  0.0000000  1.2552000  3
    520    519    516    522     1  0.0000000  0.6508444  3
    520    519    539    540     1  0.0000000  0.0000000  2
    521    519    516    522     1  0.0000000  0.6508444  3
    521    519    539    540     1  0.0000000  0.0000000  2
    522    523    532    533     1  0.0000000  0.6508444  3
    522    523    532    534     1  0.0000000  0.6508444  3
    522    526    529    530     1  0.0000000  0.6508444  3
    522    526    529    531     1  0.0000000  0.6508444  3
    523    522    526    527     1  0.0000000  1.2552000  3
    523    522    526    528     1  0.0000000  1.2552000  3
    524    523    522    526     1  0.0000000  1.2552000  3
    524    523    532    536     1  0.0000000  0.6508444  3
    524    523    532    533     1  0.0000000  0.6508444  3
    524    523    532    534     1  0.0000000  0.6508444  3
    525    523    522    526     1  0.0000000  1.2552000  3
    525    523    532    536     1  0.0000000  0.6508444  3
    525    523    532    533     1  0.0000000  0.6508444  3
    525    523    532    534     1  0.0000000  0.6508444  3
    527    526    529    535     1  0.0000000  0.6508444  3
    527    526    529    530     1  0.0000000  0.6508444  3
    527    526    529    531     1  0.0000000  0.6508444  3
    528    526    529    535     1  0.0000000  0.6508444  3
    528    526    529    530     1  0.0000000  0.6508444  3
    528    526    529    531     1  0.0000000  0.6508444  3
    529    535   1114   1115     1  180.0000771  10.4600000  2
    530    529    535    537     1  0.0000000  3.3472000  1
    530    529    535    537     1  0.0000000  0.0000000  2
    530    529    535    537     1  180.0000771  0.3347200  3
    530    529    535   1114     1  180.0000771  0.0000000  2
    531    529    535    537     1  0.0000000  3.3472000  1
    531    529    535    537     1  0.0000000  0.0000000  2
    531    529    535    537     1  180.0000771  0.3347200  3
    531    529    535   1114     1  180.0000771  0.0000000  2
    532    536   1139   1140     1  180.0000771  10.4600000  2
    533    532    536    538     1  0.0000000  3.3472000  1
    533    532    536    538     1  0.0000000  0.0000000  2
    533    532    536    538     1  180.0000771  0.3347200  3
    533    532    536   1139     1  180.0000771  0.0000000  2
    534    532    536    538     1  0.0000000  3.3472000  1
    534    532    536    538     1  0.0000000  0.0000000  2
    534    532    536    538     1  180.0000771  0.3347200  3
    534    532    536   1139     1  180.0000771  0.0000000  2
    535   1114   1094   1095     1  0.0000000  0.0000000  2
    535   1114   1094   1096     1  0.0000000  0.0000000  2
    536   1139   1119   1120     1  0.0000000  0.0000000  2
    536   1139   1119   1121     1  0.0000000  0.0000000  2
    537    535   1114   1115     1  0.0000000  8.3680000  1
    537    535   1114   1115     1  180.0000771  10.4600000  2
    538    536   1139   1140     1  0.0000000  8.3680000  1
    538    536   1139   1140     1  180.0000771  10.4600000  2
    541    544    564    565     1  0.0000000  0.0000000  2
    541    547    548    549     1  0.0000000  1.2552000  3
    541    547    548    550     1  0.0000000  1.2552000  3
    541    547    551    552     1  0.0000000  1.2552000  3
    541    547    551    553     1  0.0000000  1.2552000  3
    542    541    544    564     1  0.0000000  0.6508444  3
    542    541    544    545     1  0.0000000  0.6508444  3
    542    541    544    546     1  0.0000000  0.6508444  3
    542    541    547    548     1  0.0000000  1.2552000  3
    542    541    547    551     1  0.0000000  1.2552000  3
    543    541    544    564     1  0.0000000  0.6508444  3
    543    541    544    545     1  0.0000000  0.6508444  3
    543    541    544    546     1  0.0000000  0.6508444  3
    543    541    547    548     1  0.0000000  1.2552000  3
    543    541    547    551     1  0.0000000  1.2552000  3
    545    544    541    547     1  0.0000000  0.6508444  3
    545    544    564    565     1  0.0000000  0.0000000  2
    546    544    541    547     1  0.0000000  0.6508444  3
    546    544    564    565     1  0.0000000  0.0000000  2
    547    548    557    558     1  0.0000000  0.6508444  3
    547    548    557    559     1  0.0000000  0.6508444  3
    547    551    554    555     1  0.0000000  0.6508444  3
    547    551    554    556     1  0.0000000  0.6508444  3
    548    547    551    552     1  0.0000000  1.2552000  3
    548    547    551    553     1  0.0000000  1.2552000  3
    549    548    547    551     1  0.0000000  1.2552000  3
    549    548    557    561     1  0.0000000  0.6508444  3
    549    548    557    558     1  0.0000000  0.6508444  3
    549    548    557    559     1  0.0000000  0.6508444  3
    550    548    547    551     1  0.0000000  1.2552000  3
    550    548    557    561     1  0.0000000  0.6508444  3
    550    548    557    558     1  0.0000000  0.6508444  3
    550    548    557    559     1  0.0000000  0.6508444  3
    552    551    554    560     1  0.0000000  0.6508444  3
    552    551    554    555     1  0.0000000  0.6508444  3
    552    551    554    556     1  0.0000000  0.6508444  3
    553    551    554    560     1  0.0000000  0.6508444  3
    553    551    554    555     1  0.0000000  0.6508444  3
    553    551    554    556     1  0.0000000  0.6508444  3
    554    560   1164   1165     1  180.0000771  10.4600000  2
    555    554    560    562     1  0.0000000  3.3472000  1
    555    554    560    562     1  0.0000000  0.0000000  2
    555    554    560    562     1  180.0000771  0.3347200  3
    555    554    560   1164     1  180.0000771  0.0000000  2
    556    554    560    562     1  0.0000000  3.3472000  1
    556    554    560    562     1  0.0000000  0.0000000  2
    556    554    560    562     1  180.0000771  0.3347200  3
    556    554    560   1164     1  180.0000771  0.0000000  2
    557    561   1189   1190     1  180.0000771  10.4600000  2
    558    557    561    563     1  0.0000000  3.3472000  1
    558    557    561    563     1  0.0000000  0.0000000  2
    558    557    561    563     1  180.0000771  0.3347200  3
    558    557    561   1189     1  180.0000771  0.0000000  2
    559    557    561    563     1  0.0000000  3.3472000  1
    559    557    561    563     1  0.0000000  0.0000000  2
    559    557    561    563     1  180.0000771  0.3347200  3
    559    557    561   1189     1  180.0000771  0.0000000  2
    560   1164   1144   1145     1  0.0000000  0.0000000  2
    560   1164   1144   1146     1  0.0000000  0.0000000  2
    561   1189   1169   1170     1  0.0000000  0.0000000  2
    561   1189   1169   1171     1  0.0000000  0.0000000  2
    562    560   1164   1165     1  0.0000000  8.3680000  1
    562    560   1164   1165     1  180.0000771  10.4600000  2
    563    561   1189   1190     1  0.0000000  8.3680000  1
    563    561   1189   1190     1  180.0000771  10.4600000  2
    566    569    589    590     1  0.0000000  0.0000000  2
    566    572    573    574     1  0.0000000  1.2552000  3
    566    572    573    575     1  0.0000000  1.2552000  3
    566    572    576    577     1  0.0000000  1.2552000  3
    566    572    576    578     1  0.0000000  1.2552000  3
    567    566    569    589     1  0.0000000  0.6508444  3
    567    566    569    570     1  0.0000000  0.6508444  3
    567    566    569    571     1  0.0000000  0.6508444  3
    567    566    572    573     1  0.0000000  1.2552000  3
    567    566    572    576     1  0.0000000  1.2552000  3
    568    566    569    589     1  0.0000000  0.6508444  3
    568    566    569    570     1  0.0000000  0.6508444  3
    568    566    569    571     1  0.0000000  0.6508444  3
    568    566    572    573     1  0.0000000  1.2552000  3
    568    566    572    576     1  0.0000000  1.2552000  3
    570    569    566    572     1  0.0000000  0.6508444  3
    570    569    589    590     1  0.0000000  0.0000000  2
    571    569    566    572     1  0.0000000  0.6508444  3
    571    569    589    590     1  0.0000000  0.0000000  2
    572    573    582    583     1  0.0000000  0.6508444  3
    572    573    582    584     1  0.0000000  0.6508444  3
    572    576    579    580     1  0.0000000  0.6508444  3
    572    576    579    581     1  0.0000000  0.6508444  3
    573    572    576    577     1  0.0000000  1.2552000  3
    573    572    576    578     1  0.0000000  1.2552000  3
    574    573    572    576     1  0.0000000  1.2552000  3
    574    573    582    586     1  0.0000000  0.6508444  3
    574    573    582    583     1  0.0000000  0.6508444  3
    574    573    582    584     1  0.0000000  0.6508444  3
    575    573    572    576     1  0.0000000  1.2552000  3
    575    573    582    586     1  0.0000000  0.6508444  3
    575    573    582    583     1  0.0000000  0.6508444  3
    575    573    582    584     1  0.0000000  0.6508444  3
    577    576    579    585     1  0.0000000  0.6508444  3
    577    576    579    580     1  0.0000000  0.6508444  3
    577    576    579    581     1  0.0000000  0.6508444  3
    578    576    579    585     1  0.0000000  0.6508444  3
    578    576    579    580     1  0.0000000  0.6508444  3
    578    576    579    581     1  0.0000000  0.6508444  3
    579    585   1214   1215     1  180.0000771  10.4600000  2
    580    579    585    587     1  0.0000000  3.3472000  1
    580    579    585    587     1  0.0000000  0.0000000  2
    580    579    585    587     1  180.0000771  0.3347200  3
    580    579    585   1214     1  180.0000771  0.0000000  2
    581    579    585    587     1  0.0000000  3.3472000  1
    581    579    585    587     1  0.0000000  0.0000000  2
    581    579    585    587     1  180.0000771  0.3347200  3
    581    579    585   1214     1  180.0000771  0.0000000  2
    582    586   1239   1240     1  180.0000771  10.4600000  2
    583    582    586    588     1  0.0000000  3.3472000  1
    583    582    586    588     1  0.0000000  0.0000000  2
    583    582    586    588     1  180.0000771  0.3347200  3
    583    582    586   1239     1  180.0000771  0.0000000  2
    584    582    586    588     1  0.0000000  3.3472000  1
    584    582    586    588     1  0.0000000  0.0000000  2
    584    582    586    588     1  180.0000771  0.3347200  3
    584    582    586   1239     1  180.0000771  0.0000000  2
    585   1214   1194   1195     1  0.0000000  0.0000000  2
    585   1214   1194   1196     1  0.0000000  0.0000000  2
    586   1239   1219   1220     1  0.0000000  0.0000000  2
    586   1239   1219   1221     1  0.0000000  0.0000000  2
    587    585   1214   1215     1  0.0000000  8.3680000  1
    587    585   1214   1215     1  180.0000771  10.4600000  2
    588    586   1239   1240     1  0.0000000  8.3680000  1
    588    586   1239   1240     1  180.0000771  10.4600000  2
    591    594    614    615     1  0.0000000  0.0000000  2
    591    597    598    599     1  0.0000000  1.2552000  3
    591    597    598    600     1  0.0000000  1.2552000  3
    591    597    601    602     1  0.0000000  1.2552000  3
    591    597    601    603     1  0.0000000  1.2552000  3
    592    591    594    614     1  0.0000000  0.6508444  3
    592    591    594    595     1  0.0000000  0.6508444  3
    592    591    594    596     1  0.0000000  0.6508444  3
    592    591    597    598     1  0.0000000  1.2552000  3
    592    591    597    601     1  0.0000000  1.2552000  3
    593    591    594    614     1  0.0000000  0.6508444  3
    593    591    594    595     1  0.0000000  0.6508444  3
    593    591    594    596     1  0.0000000  0.6508444  3
    593    591    597    598     1  0.0000000  1.2552000  3
    593    591    597    601     1  0.0000000  1.2552000  3
    595    594    591    597     1  0.0000000  0.6508444  3
    595    594    614    615     1  0.0000000  0.0000000  2
    596    594    591    597     1  0.0000000  0.6508444  3
    596    594    614    615     1  0.0000000  0.0000000  2
    597    598    607    608     1  0.0000000  0.6508444  3
    597    598    607    609     1  0.0000000  0.6508444  3
    597    601    604    605     1  0.0000000  0.6508444  3
    597    601    604    606     1  0.0000000  0.6508444  3
    598    597    601    602     1  0.0000000  1.2552000  3
    598    597    601    603     1  0.0000000  1.2552000  3
    599    598    597    601     1  0.0000000  1.2552000  3
    599    598    607    611     1  0.0000000  0.6508444  3
    599    598    607    608     1  0.0000000  0.6508444  3
    599    598    607    609     1  0.0000000  0.6508444  3
    600    598    597    601     1  0.0000000  1.2552000  3
    600    598    607    611     1  0.0000000  0.6508444  3
    600    598    607    608     1  0.0000000  0.6508444  3
    600    598    607    609     1  0.0000000  0.6508444  3
    602    601    604    610     1  0.0000000  0.6508444  3
    602    601    604    605     1  0.0000000  0.6508444  3
    602    601    604    606     1  0.0000000  0.6508444  3
    603    601    604    610     1  0.0000000  0.6508444  3
    603    601    604    605     1  0.0000000  0.6508444  3
    603    601    604    606     1  0.0000000  0.6508444  3
    604    610   1264   1265     1  180.0000771  10.4600000  2
    605    604    610    612     1  0.0000000  3.3472000  1
    605    604    610    612     1  0.0000000  0.0000000  2
    605    604    610    612     1  180.0000771  0.3347200  3
    605    604    610   1264     1  180.0000771  0.0000000  2
    606    604    610    612     1  0.0000000  3.3472000  1
    606    604    610    612     1  0.0000000  0.0000000  2
    606    604    610    612     1  180.0000771  0.3347200  3
    606    604    610   1264     1  180.0000771  0.0000000  2
    607    611   1289   1290     1  180.0000771  10.4600000  2
    608    607    611    613     1  0.0000000  3.3472000  1
    608    607    611    613     1  0.0000000  0.0000000  2
    608    607    611    613     1  180.0000771  0.3347200  3
    608    607    611   1289     1  180.0000771  0.0000000  2
    609    607    611    613     1  0.0000000  3.3472000  1
    609    607    611    613     1  0.0000000  0.0000000  2
    609    607    611    613     1  180.0000771  0.3347200  3
    609    607    611   1289     1  180.0000771  0.0000000  2
    610   1264   1244   1245     1  0.0000000  0.0000000  2
    610   1264   1244   1246     1  0.0000000  0.0000000  2
    611   1289   1269   1270     1  0.0000000  0.0000000  2
    611   1289   1269   1271     1  0.0000000  0.0000000  2
    612    610   1264   1265     1  0.0000000  8.3680000  1
    612    610   1264   1265     1  180.0000771  10.4600000  2
    613    611   1289   1290     1  0.0000000  8.3680000  1
    613    611   1289   1290     1  180.0000771  10.4600000  2
    616    619    639    640     1  0.0000000  0.0000000  2
    616    622    623    624     1  0.0000000  1.2552000  3
    616    622    623    625     1  0.0000000  1.2552000  3
    616    622    626    627     1  0.0000000  1.2552000  3
    616    622    626    628     1  0.0000000  1.2552000  3
    617    616    619    639     1  0.0000000  0.6508444  3
    617    616    619    620     1  0.0000000  0.6508444  3
    617    616    619    621     1  0.0000000  0.6508444  3
    617    616    622    623     1  0.0000000  1.2552000  3
    617    616    622    626     1  0.0000000  1.2552000  3
    618    616    619    639     1  0.0000000  0.6508444  3
    618    616    619    620     1  0.0000000  0.6508444  3
    618    616    619    621     1  0.0000000  0.6508444  3
    618    616    622    623     1  0.0000000  1.2552000  3
    618    616    622    626     1  0.0000000  1.2552000  3
    620    619    616    622     1  0.0000000  0.6508444  3
    620    619    639    640     1  0.0000000  0.0000000  2
    621    619    616    622     1  0.0000000  0.6508444  3
    621    619    639    640     1  0.0000000  0.0000000  2
    622    623    632    633     1  0.0000000  0.6508444  3
    622    623    632    634     1  0.0000000  0.6508444  3
    622    626    629    630     1  0.0000000  0.6508444  3
    622    626    629    631     1  0.0000000  0.6508444  3
    623    622    626    627     1  0.0000000  1.2552000  3
    623    622    626    628     1  0.0000000  1.2552000  3
    624    623    622    626     1  0.0000000  1.2552000  3
    624    623    632    636     1  0.0000000  0.6508444  3
    624    623    632    633     1  0.0000000  0.6508444  3
    624    623    632    634     1  0.0000000  0.6508444  3
    625    623    622    626     1  0.0000000  1.2552000  3
    625    623    632    636     1  0.0000000  0.6508444  3
    625    623    632    633     1  0.0000000  0.6508444  3
    625    623    632    634     1  0.0000000  0.6508444  3
    627    626    629    635     1  0.0000000  0.6508444  3
    627    626    629    630     1  0.0000000  0.6508444  3
    627    626    629    631     1  0.0000000  0.6508444  3
    628    626    629    635     1  0.0000000  0.6508444  3
    628    626    629    630     1  0.0000000  0.6508444  3
    628    626    629    631     1  0.0000000  0.6508444  3
    629    635   1314   1315     1  180.0000771  10.4600000  2
    630    629    635    637     1  0.0000000  3.3472000  1
    630    629    635    637     1  0.0000000  0.0000000  2
    630    629    635    637     1  180.0000771  0.3347200  3
    630    629    635   1314     1  180.0000771  0.0000000  2
    631    629    635    637     1  0.0000000  3.3472000  1
    631    629    635    637     1  0.0000000  0.0000000  2
    631    629    635    637     1  180.0000771  0.3347200  3
    631    629    635   1314     1  180.0000771  0.0000000  2
    632    636   1339   1340     1  180.0000771  10.4600000  2
    633    632    636    638     1  0.0000000  3.3472000  1
    633    632    636    638     1  0.0000000  0.0000000  2
    633    632    636    638     1  180.0000771  0.3347200  3
    633    632    636   1339     1  180.0000771  0.0000000  2
    634    632    636    638     1  0.0000000  3.3472000  1
    634    632    636    638     1  0.0000000  0.0000000  2
    634    632    636    638     1  180.0000771  0.3347200  3
    634    632    636   1339     1  180.0000771  0.0000000  2
    635   1314   1294   1295     1  0.0000000  0.0000000  2
    635   1314   1294   1296     1  0.0000000  0.0000000  2
    636   1339   1319   1320     1  0.0000000  0.0000000  2
    636   1339   1319   1321     1  0.0000000  0.0000000  2
    637    635   1314   1315     1  0.0000000  8.3680000  1
    637    635   1314   1315     1  180.0000771  10.4600000  2
    638    636   1339   1340     1  0.0000000  8.3680000  1
    638    636   1339   1340     1  180.0000771  10.4600000  2
    641    644    664    665     1  0.0000000  0.0000000  2
    641    647    648    649     1  0.0000000  1.2552000  3
    641    647    648    650     1  0.0000000  1.2552000  3
    641    647    651    652     1  0.0000000  1.2552000  3
    641    647    651    653     1  0.0000000  1.2552000  3
    642    641    644    664     1  0.0000000  0.6508444  3
    642    641    644    645     1  0.0000000  0.6508444  3
    642    641    644    646     1  0.0000000  0.6508444  3
    642    641    647    648     1  0.0000000  1.2552000  3
    642    641    647    651     1  0.0000000  1.2552000  3
    643    641    644    664     1  0.0000000  0.6508444  3
    643    641    644    645     1  0.0000000  0.6508444  3
    643    641    644    646     1  0.0000000  0.6508444  3
    643    641    647    648     1  0.0000000  1.2552000  3
    643    641    647    651     1  0.0000000  1.2552000  3
    645    644    641    647     1  0.0000000  0.6508444  3
    645    644    664    665     1  0.0000000  0.0000000  2
    646    644    641    647     1  0.0000000  0.6508444  3
    646    644    664    665     1  0.0000000  0.0000000  2
    647    648    657    658     1  0.0000000  0.6508444  3
    647    648    657    659     1  0.0000000  0.6508444  3
    647    651    654    655     1  0.0000000  0.6508444  3
    647    651    654    656     1  0.0000000  0.6508444  3
    648    647    651    652     1  0.0000000  1.2552000  3
    648    647    651    653     1  0.0000000  1.2552000  3
    649    648    647    651     1  0.0000000  1.2552000  3
    649    648    657    661     1  0.0000000  0.6508444  3
    649    648    657    658     1  0.0000000  0.6508444  3
    649    648    657    659     1  0.0000000  0.6508444  3
    650    648    647    651     1  0.0000000  1.2552000  3
    650    648    657    661     1  0.0000000  0.6508444  3
    650    648    657    658     1  0.0000000  0.6508444  3
    650    648    657    659     1  0.0000000  0.6508444  3
    652    651    654    660     1  0.0000000  0.6508444  3
    652    651    654    655     1  0.0000000  0.6508444  3
    652    651    654    656     1  0.0000000  0.6508444  3
    653    651    654    660     1  0.0000000  0.6508444  3
    653    651    654    655     1  0.0000000  0.6508444  3
    653    651    654    656     1  0.0000000  0.6508444  3
    654    660   1364   1365     1  180.0000771  10.4600000  2
    655    654    660    662     1  0.0000000  3.3472000  1
    655    654    660    662     1  0.0000000  0.0000000  2
    655    654    660    662     1  180.0000771  0.3347200  3
    655    654    660   1364     1  180.0000771  0.0000000  2
    656    654    660    662     1  0.0000000  3.3472000  1
    656    654    660    662     1  0.0000000  0.0000000  2
    656    654    660    662     1  180.0000771  0.3347200  3
    656    654    660   1364     1  180.0000771  0.0000000  2
    657    661   1389   1390     1  180.0000771  10.4600000  2
    658    657    661    663     1  0.0000000  3.3472000  1
    658    657    661    663     1  0.0000000  0.0000000  2
    658    657    661    663     1  180.0000771  0.3347200  3
    658    657    661   1389     1  180.0000771  0.0000000  2
    659    657    661    663     1  0.0000000  3.3472000  1
    659    657    661    663     1  0.0000000  0.0000000  2
    659    657    661    663     1  180.0000771  0.3347200  3
    659    657    661   1389     1  180.0000771  0.0000000  2
    660   1364   1344   1345     1  0.0000000  0.0000000  2
    660   1364   1344   1346     1  0.0000000  0.0000000  2
    661   1389   1369   1370     1  0.0000000  0.0000000  2
    661   1389   1369   1371     1  0.0000000  0.0000000  2
    662    660   1364   1365     1  0.0000000  8.3680000  1
    662    660   1364   1365     1  180.0000771  10.4600000  2
    663    661   1389   1390     1  0.0000000  8.3680000  1
    663    661   1389   1390     1  180.0000771  10.4600000  2
    666    669    689    690     1  0.0000000  0.0000000  2
    666    672    673    674     1  0.0000000  1.2552000  3
    666    672    673    675     1  0.0000000  1.2552000  3
    666    672    676    677     1  0.0000000  1.2552000  3
    666    672    676    678     1  0.0000000  1.2552000  3
    667    666    669    689     1  0.0000000  0.6508444  3
    667    666    669    670     1  0.0000000  0.6508444  3
    667    666    669    671     1  0.0000000  0.6508444  3
    667    666    672    673     1  0.0000000  1.2552000  3
    667    666    672    676     1  0.0000000  1.2552000  3
    668    666    669    689     1  0.0000000  0.6508444  3
    668    666    669    670     1  0.0000000  0.6508444  3
    668    666    669    671     1  0.0000000  0.6508444  3
    668    666    672    673     1  0.0000000  1.2552000  3
    668    666    672    676     1  0.0000000  1.2552000  3
    670    669    666    672     1  0.0000000  0.6508444  3
    670    669    689    690     1  0.0000000  0.0000000  2
    671    669    666    672     1  0.0000000  0.6508444  3
    671    669    689    690     1  0.0000000  0.0000000  2
    672    673    682    683     1  0.0000000  0.6508444  3
    672    673    682    684     1  0.0000000  0.6508444  3
    672    676    679    680     1  0.0000000  0.6508444  3
    672    676    679    681     1  0.0000000  0.6508444  3
    673    672    676    677     1  0.0000000  1.2552000  3
    673    672    676    678     1  0.0000000  1.2552000  3
    674    673    672    676     1  0.0000000  1.2552000  3
    674    673    682    686     1  0.0000000  0.6508444  3
    674    673    682    683     1  0.0000000  0.6508444  3
    674    673    682    684     1  0.0000000  0.6508444  3
    675    673    672    676     1  0.0000000  1.2552000  3
    675    673    682    686     1  0.0000000  0.6508444  3
    675    673    682    683     1  0.0000000  0.6508444  3
    675    673    682    684     1  0.0000000  0.6508444  3
    677    676    679    685     1  0.0000000  0.6508444  3
    677    676    679    680     1  0.0000000  0.6508444  3
    677    676    679    681     1  0.0000000  0.6508444  3
    678    676    679    685     1  0.0000000  0.6508444  3
    678    676    679    680     1  0.0000000  0.6508444  3
    678    676    679    681     1  0.0000000  0.6508444  3
    679    685   1414   1415     1  180.0000771  10.4600000  2
    680    679    685    687     1  0.0000000  3.3472000  1
    680    679    685    687     1  0.0000000  0.0000000  2
    680    679    685    687     1  180.0000771  0.3347200  3
    680    679    685   1414     1  180.0000771  0.0000000  2
    681    679    685    687     1  0.0000000  3.3472000  1
    681    679    685    687     1  0.0000000  0.0000000  2
    681    679    685    687     1  180.0000771  0.3347200  3
    681    679    685   1414     1  180.0000771  0.0000000  2
    682    686   1439   1440     1  180.0000771  10.4600000  2
    683    682    686    688     1  0.0000000  3.3472000  1
    683    682    686    688     1  0.0000000  0.0000000  2
    683    682    686    688     1  180.0000771  0.3347200  3
    683    682    686   1439     1  180.0000771  0.0000000  2
    684    682    686    688     1  0.0000000  3.3472000  1
    684    682    686    688     1  0.0000000  0.0000000  2
    684    682    686    688     1  180.0000771  0.3347200  3
    684    682    686   1439     1  180.0000771  0.0000000  2
    685   1414   1394   1395     1  0.0000000  0.0000000  2
    685   1414   1394   1396     1  0.0000000  0.0000000  2
    686   1439   1419   1420     1  0.0000000  0.0000000  2
    686   1439   1419   1421     1  0.0000000  0.0000000  2
    687    685   1414   1415     1  0.0000000  8.3680000  1
    687    685   1414   1415     1  180.0000771  10.4600000  2
    688    686   1439   1440     1  0.0000000  8.3680000  1
    688    686   1439   1440     1  180.0000771  10.4600000  2
    691    694    714    715     1  0.0000000  0.0000000  2
    691    697    698    699     1  0.0000000  1.2552000  3
    691    697    698    700     1  0.0000000  1.2552000  3
    691    697    701    702     1  0.0000000  1.2552000  3
    691    697    701    703     1  0.0000000  1.2552000  3
    692    691    694    714     1  0.0000000  0.6508444  3
    692    691    694    695     1  0.0000000  0.6508444  3
    692    691    694    696     1  0.0000000  0.6508444  3
    692    691    697    698     1  0.0000000  1.2552000  3
    692    691    697    701     1  0.0000000  1.2552000  3
    693    691    694    714     1  0.0000000  0.6508444  3
    693    691    694    695     1  0.0000000  0.6508444  3
    693    691    694    696     1  0.0000000  0.6508444  3
    693    691    697    698     1  0.0000000  1.2552000  3
    693    691    697    701     1  0.0000000  1.2552000  3
    695    694    691    697     1  0.0000000  0.6508444  3
    695    694    714    715     1  0.0000000  0.0000000  2
    696    694    691    697     1  0.0000000  0.6508444  3
    696    694    714    715     1  0.0000000  0.0000000  2
    697    698    707    708     1  0.0000000  0.6508444  3
    697    698    707    709     1  0.0000000  0.6508444  3
    697    701    704    705     1  0.0000000  0.6508444  3
    697    701    704    706     1  0.0000000  0.6508444  3
    698    697    701    702     1  0.0000000  1.2552000  3
    698    697    701    703     1  0.0000000  1.2552000  3
    699    698    697    701     1  0.0000000  1.2552000  3
    699    698    707    711     1  0.0000000  0.6508444  3
    699    698    707    708     1  0.0000000  0.6508444  3
    699    698    707    709     1  0.0000000  0.6508444  3
    700    698    697    701     1  0.0000000  1.2552000  3
    700    698    707    711     1  0.0000000  0.6508444  3
    700    698    707    708     1  0.0000000  0.6508444  3
    700    698    707    709     1  0.0000000  0.6508444  3
    702    701    704    710     1  0.0000000  0.6508444  3
    702    701    704    705     1  0.0000000  0.6508444  3
    702    701    704    706     1  0.0000000  0.6508444  3
    703    701    704    710     1  0.0000000  0.6508444  3
    703    701    704    705     1  0.0000000  0.6508444  3
    703    701    704    706     1  0.0000000  0.6508444  3
    704    710   1464   1465     1  180.0000771  10.4600000  2
    705    704    710    712     1  0.0000000  3.3472000  1
    705    704    710    712     1  0.0000000  0.0000000  2
    705    704    710    712     1  180.0000771  0.3347200  3
    705    704    710   1464     1  180.0000771  0.0000000  2
    706    704    710    712     1  0.0000000  3.3472000  1
    706    704    710    712     1  0.0000000  0.0000000  2
    706    704    710    712     1  180.0000771  0.3347200  3
    706    704    710   1464     1  180.0000771  0.0000000  2
    707    711   1489   1490     1  180.0000771  10.4600000  2
    708    707    711    713     1  0.0000000  3.3472000  1
    708    707    711    713     1  0.0000000  0.0000000  2
    708    707    711    713     1  180.0000771  0.3347200  3
    708    707    711   1489     1  180.0000771  0.0000000  2
    709    707    711    713     1  0.0000000  3.3472000  1
    709    707    711    713     1  0.0000000  0.0000000  2
    709    707    711    713     1  180.0000771  0.3347200  3
    709    707    711   1489     1  180.0000771  0.0000000  2
    710   1464   1444   1445     1  0.0000000  0.0000000  2
    710   1464   1444   1446     1  0.0000000  0.0000000  2
    711   1489   1469   1470     1  0.0000000  0.0000000  2
    711   1489   1469   1471     1  0.0000000  0.0000000  2
    712    710   1464   1465     1  0.0000000  8.3680000  1
    712    710   1464   1465     1  180.0000771  10.4600000  2
    713    711   1489   1490     1  0.0000000  8.3680000  1
    713    711   1489   1490     1  180.0000771  10.4600000  2
    716    719    739    740     1  0.0000000  0.0000000  2
    716    722    723    724     1  0.0000000  1.2552000  3
    716    722    723    725     1  0.0000000  1.2552000  3
    716    722    726    727     1  0.0000000  1.2552000  3
    716    722    726    728     1  0.0000000  1.2552000  3
    717    716    719    739     1  0.0000000  0.6508444  3
    717    716    719    720     1  0.0000000  0.6508444  3
    717    716    719    721     1  0.0000000  0.6508444  3
    717    716    722    723     1  0.0000000  1.2552000  3
    717    716    722    726     1  0.0000000  1.2552000  3
    718    716    719    739     1  0.0000000  0.6508444  3
    718    716    719    720     1  0.0000000  0.6508444  3
    718    716    719    721     1  0.0000000  0.6508444  3
    718    716    722    723     1  0.0000000  1.2552000  3
    718    716    722    726     1  0.0000000  1.2552000  3
    720    719    716    722     1  0.0000000  0.6508444  3
    720    719    739    740     1  0.0000000  0.0000000  2
    721    719    716    722     1  0.0000000  0.6508444  3
    721    719    739    740     1  0.0000000  0.0000000  2
    722    723    732    733     1  0.0000000  0.6508444  3
    722    723    732    734     1  0.0000000  0.6508444  3
    722    726    729    730     1  0.0000000  0.6508444  3
    722    726    729    731     1  0.0000000  0.6508444  3
    723    722    726    727     1  0.0000000  1.2552000  3
    723    722    726    728     1  0.0000000  1.2552000  3
    724    723    722    726     1  0.0000000  1.2552000  3
    724    723    732    736     1  0.0000000  0.6508444  3
    724    723    732    733     1  0.0000000  0.6508444  3
    724    723    732    734     1  0.0000000  0.6508444  3
    725    723    722    726     1  0.0000000  1.2552000  3
    725    723    732    736     1  0.0000000  0.6508444  3
    725    723    732    733     1  0.0000000  0.6508444  3
    725    723    732    734     1  0.0000000  0.6508444  3
    727    726    729    735     1  0.0000000  0.6508444  3
    727    726    729    730     1  0.0000000  0.6508444  3
    727    726    729    731     1  0.0000000  0.6508444  3
    728    726    729    735     1  0.0000000  0.6508444  3
    728    726    729    730     1  0.0000000  0.6508444  3
    728    726    729    731     1  0.0000000  0.6508444  3
    729    735   1514   1515     1  180.0000771  10.4600000  2
    730    729    735    737     1  0.0000000  3.3472000  1
    730    729    735    737     1  0.0000000  0.0000000  2
    730    729    735    737     1  180.0000771  0.3347200  3
    730    729    735   1514     1  180.0000771  0.0000000  2
    731    729    735    737     1  0.0000000  3.3472000  1
    731    729    735    737     1  0.0000000  0.0000000  2
    731    729    735    737     1  180.0000771  0.3347200  3
    731    729    735   1514     1  180.0000771  0.0000000  2
    732    736   1539   1540     1  180.0000771  10.4600000  2
    733    732    736    738     1  0.0000000  3.3472000  1
    733    732    736    738     1  0.0000000  0.0000000  2
    733    732    736    738     1  180.0000771  0.3347200  3
    733    732    736   1539     1  180.0000771  0.0000000  2
    734    732    736    738     1  0.0000000  3.3472000  1
    734    732    736    738     1  0.0000000  0.0000000  2
    734    732    736    738     1  180.0000771  0.3347200  3
    734    732    736   1539     1  180.0000771  0.0000000  2
    735   1514   1494   1495     1  0.0000000  0.0000000  2
    735   1514   1494   1496     1  0.0000000  0.0000000  2
    736   1539   1519   1520     1  0.0000000  0.0000000  2
    736   1539   1519   1521     1  0.0000000  0.0000000  2
    737    735   1514   1515     1  0.0000000  8.3680000  1
    737    735   1514   1515     1  180.0000771  10.4600000  2
    738    736   1539   1540     1  0.0000000  8.3680000  1
    738    736   1539   1540     1  180.0000771  10.4600000  2
    741    744    764    765     1  0.0000000  0.0000000  2
    741    747    748    749     1  0.0000000  1.2552000  3
    741    747    748    750     1  0.0000000  1.2552000  3
    741    747    751    752     1  0.0000000  1.2552000  3
    741    747    751    753     1  0.0000000  1.2552000  3
    742    741    744    764     1  0.0000000  0.6508444  3
    742    741    744    745     1  0.0000000  0.6508444  3
    742    741    744    746     1  0.0000000  0.6508444  3
    742    741    747    748     1  0.0000000  1.2552000  3
    742    741    747    751     1  0.0000000  1.2552000  3
    743    741    744    764     1  0.0000000  0.6508444  3
    743    741    744    745     1  0.0000000  0.6508444  3
    743    741    744    746     1  0.0000000  0.6508444  3
    743    741    747    748     1  0.0000000  1.2552000  3
    743    741    747    751     1  0.0000000  1.2552000  3
    745    744    741    747     1  0.0000000  0.6508444  3
    745    744    764    765     1  0.0000000  0.0000000  2
    746    744    741    747     1  0.0000000  0.6508444  3
    746    744    764    765     1  0.0000000  0.0000000  2
    747    748    757    758     1  0.0000000  0.6508444  3
    747    748    757    759     1  0.0000000  0.6508444  3
    747    751    754    755     1  0.0000000  0.6508444  3
    747    751    754    756     1  0.0000000  0.6508444  3
    748    747    751    752     1  0.0000000  1.2552000  3
    748    747    751    753     1  0.0000000  1.2552000  3
    749    748    747    751     1  0.0000000  1.2552000  3
    749    748    757    761     1  0.0000000  0.6508444  3
    749    748    757    758     1  0.0000000  0.6508444  3
    749    748    757    759     1  0.0000000  0.6508444  3
    750    748    747    751     1  0.0000000  1.2552000  3
    750    748    757    761     1  0.0000000  0.6508444  3
    750    748    757    758     1  0.0000000  0.6508444  3
    750    748    757    759     1  0.0000000  0.6508444  3
    752    751    754    760     1  0.0000000  0.6508444  3
    752    751    754    755     1  0.0000000  0.6508444  3
    752    751    754    756     1  0.0000000  0.6508444  3
    753    751    754    760     1  0.0000000  0.6508444  3
    753    751    754    755     1  0.0000000  0.6508444  3
    753    751    754    756     1  0.0000000  0.6508444  3
    754    760   1541   1542     1  180.0000771  10.4600000  2
    755    754    760   1541     1  180.0000771  0.0000000  2
    755    754    760    762     1  0.0000000  3.3472000  1
    755    754    760    762     1  0.0000000  0.0000000  2
    755    754    760    762     1  180.0000771  0.3347200  3
    756    754    760   1541     1  180.0000771  0.0000000  2
    756    754    760    762     1  0.0000000  3.3472000  1
    756    754    760    762     1  0.0000000  0.0000000  2
    756    754    760    762     1  180.0000771  0.3347200  3
    757    761   1568   1569     1  180.0000771  10.4600000  2
    758    757    761    763     1  0.0000000  3.3472000  1
    758    757    761    763     1  0.0000000  0.0000000  2
    758    757    761    763     1  180.0000771  0.3347200  3
    758    757    761   1568     1  180.0000771  0.0000000  2
    759    757    761    763     1  0.0000000  3.3472000  1
    759    757    761    763     1  0.0000000  0.0000000  2
    759    757    761    763     1  180.0000771  0.3347200  3
    759    757    761   1568     1  180.0000771  0.0000000  2
    760   1541   1543   1544     1  0.0000000  0.0000000  2
    760   1541   1543   1546     1  0.0000000  0.0000000  2
    761   1568   1570   1571     1  0.0000000  0.0000000  2
    761   1568   1570   1573     1  0.0000000  0.0000000  2
    762    760   1541   1542     1  0.0000000  8.3680000  1
    762    760   1541   1542     1  180.0000771  10.4600000  2
    763    761   1568   1569     1  0.0000000  8.3680000  1
    763    761   1568   1569     1  180.0000771  10.4600000  2
    766    769    789    790     1  0.0000000  0.0000000  2
    766    772    773    774     1  0.0000000  1.2552000  3
    766    772    773    775     1  0.0000000  1.2552000  3
    766    772    776    777     1  0.0000000  1.2552000  3
    766    772    776    778     1  0.0000000  1.2552000  3
    767    766    769    789     1  0.0000000  0.6508444  3
    767    766    769    770     1  0.0000000  0.6508444  3
    767    766    769    771     1  0.0000000  0.6508444  3
    767    766    772    773     1  0.0000000  1.2552000  3
    767    766    772    776     1  0.0000000  1.2552000  3
    768    766    769    789     1  0.0000000  0.6508444  3
    768    766    769    770     1  0.0000000  0.6508444  3
    768    766    769    771     1  0.0000000  0.6508444  3
    768    766    772    773     1  0.0000000  1.2552000  3
    768    766    772    776     1  0.0000000  1.2552000  3
    770    769    766    772     1  0.0000000  0.6508444  3
    770    769    789    790     1  0.0000000  0.0000000  2
    771    769    766    772     1  0.0000000  0.6508444  3
    771    769    789    790     1  0.0000000  0.0000000  2
    772    773    782    783     1  0.0000000  0.6508444  3
    772    773    782    784     1  0.0000000  0.6508444  3
    772    776    779    780     1  0.0000000  0.6508444  3
    772    776    779    781     1  0.0000000  0.6508444  3
    773    772    776    777     1  0.0000000  1.2552000  3
    773    772    776    778     1  0.0000000  1.2552000  3
    774    773    772    776     1  0.0000000  1.2552000  3
    774    773    782    786     1  0.0000000  0.6508444  3
    774    773    782    783     1  0.0000000  0.6508444  3
    774    773    782    784     1  0.0000000  0.6508444  3
    775    773    772    776     1  0.0000000  1.2552000  3
    775    773    782    786     1  0.0000000  0.6508444  3
    775    773    782    783     1  0.0000000  0.6508444  3
    775    773    782    784     1  0.0000000  0.6508444  3
    777    776    779    785     1  0.0000000  0.6508444  3
    777    776    779    780     1  0.0000000  0.6508444  3
    777    776    779    781     1  0.0000000  0.6508444  3
    778    776    779    785     1  0.0000000  0.6508444  3
    778    776    779    780     1  0.0000000  0.6508444  3
    778    776    779    781     1  0.0000000  0.6508444  3
    779    785   1595   1596     1  180.0000771  10.4600000  2
    780    779    785   1595     1  180.0000771  0.0000000  2
    780    779    785    787     1  0.0000000  3.3472000  1
    780    779    785    787     1  0.0000000  0.0000000  2
    780    779    785    787     1  180.0000771  0.3347200  3
    781    779    785   1595     1  180.0000771  0.0000000  2
    781    779    785    787     1  0.0000000  3.3472000  1
    781    779    785    787     1  0.0000000  0.0000000  2
    781    779    785    787     1  180.0000771  0.3347200  3
    782    786   1622   1623     1  180.0000771  10.4600000  2
    783    782    786    788     1  0.0000000  3.3472000  1
    783    782    786    788     1  0.0000000  0.0000000  2
    783    782    786    788     1  180.0000771  0.3347200  3
    783    782    786   1622     1  180.0000771  0.0000000  2
    784    782    786    788     1  0.0000000  3.3472000  1
    784    782    786    788     1  0.0000000  0.0000000  2
    784    782    786    788     1  180.0000771  0.3347200  3
    784    782    786   1622     1  180.0000771  0.0000000  2
    785   1595   1597   1598     1  0.0000000  0.0000000  2
    785   1595   1597   1600     1  0.0000000  0.0000000  2
    786   1622   1624   1625     1  0.0000000  0.0000000  2
    786   1622   1624   1627     1  0.0000000  0.0000000  2
    787    785   1595   1596     1  0.0000000  8.3680000  1
    787    785   1595   1596     1  180.0000771  10.4600000  2
    788    786   1622   1623     1  0.0000000  8.3680000  1
    788    786   1622   1623     1  180.0000771  10.4600000  2
    791    794    814    815     1  0.0000000  0.0000000  2
    791    797    798    799     1  0.0000000  1.2552000  3
    791    797    798    800     1  0.0000000  1.2552000  3
    791    797    801    802     1  0.0000000  1.2552000  3
    791    797    801    803     1  0.0000000  1.2552000  3
    792    791    794    814     1  0.0000000  0.6508444  3
    792    791    794    795     1  0.0000000  0.6508444  3
    792    791    794    796     1  0.0000000  0.6508444  3
    792    791    797    798     1  0.0000000  1.2552000  3
    792    791    797    801     1  0.0000000  1.2552000  3
    793    791    794    814     1  0.0000000  0.6508444  3
    793    791    794    795     1  0.0000000  0.6508444  3
    793    791    794    796     1  0.0000000  0.6508444  3
    793    791    797    798     1  0.0000000  1.2552000  3
    793    791    797    801     1  0.0000000  1.2552000  3
    795    794    791    797     1  0.0000000  0.6508444  3
    795    794    814    815     1  0.0000000  0.0000000  2
    796    794    791    797     1  0.0000000  0.6508444  3
    796    794    814    815     1  0.0000000  0.0000000  2
    797    798    807    808     1  0.0000000  0.6508444  3
    797    798    807    809     1  0.0000000  0.6508444  3
    797    801    804    805     1  0.0000000  0.6508444  3
    797    801    804    806     1  0.0000000  0.6508444  3
    798    797    801    802     1  0.0000000  1.2552000  3
    798    797    801    803     1  0.0000000  1.2552000  3
    799    798    797    801     1  0.0000000  1.2552000  3
    799    798    807    811     1  0.0000000  0.6508444  3
    799    798    807    808     1  0.0000000  0.6508444  3
    799    798    807    809     1  0.0000000  0.6508444  3
    800    798    797    801     1  0.0000000  1.2552000  3
    800    798    807    811     1  0.0000000  0.6508444  3
    800    798    807    808     1  0.0000000  0.6508444  3
    800    798    807    809     1  0.0000000  0.6508444  3
    802    801    804    810     1  0.0000000  0.6508444  3
    802    801    804    805     1  0.0000000  0.6508444  3
    802    801    804    806     1  0.0000000  0.6508444  3
    803    801    804    810     1  0.0000000  0.6508444  3
    803    801    804    805     1  0.0000000  0.6508444  3
    803    801    804    806     1  0.0000000  0.6508444  3
    804    810   1649   1650     1  180.0000771  10.4600000  2
    805    804    810   1649     1  180.0000771  0.0000000  2
    805    804    810    812     1  0.0000000  3.3472000  1
    805    804    810    812     1  0.0000000  0.0000000  2
    805    804    810    812     1  180.0000771  0.3347200  3
    806    804    810   1649     1  180.0000771  0.0000000  2
    806    804    810    812     1  0.0000000  3.3472000  1
    806    804    810    812     1  0.0000000  0.0000000  2
    806    804    810    812     1  180.0000771  0.3347200  3
    807    811   1676   1677     1  180.0000771  10.4600000  2
    808    807    811    813     1  0.0000000  3.3472000  1
    808    807    811    813     1  0.0000000  0.0000000  2
    808    807    811    813     1  180.0000771  0.3347200  3
    808    807    811   1676     1  180.0000771  0.0000000  2
    809    807    811    813     1  0.0000000  3.3472000  1
    809    807    811    813     1  0.0000000  0.0000000  2
    809    807    811    813     1  180.0000771  0.3347200  3
    809    807    811   1676     1  180.0000771  0.0000000  2
    810   1649   1651   1652     1  0.0000000  0.0000000  2
    810   1649   1651   1654     1  0.0000000  0.0000000  2
    811   1676   1678   1679     1  0.0000000  0.0000000  2
    811   1676   1678   1681     1  0.0000000  0.0000000  2
    812    810   1649   1650     1  0.0000000  8.3680000  1
    812    810   1649   1650     1  180.0000771  10.4600000  2
    813    811   1676   1677     1  0.0000000  8.3680000  1
    813    811   1676   1677     1  180.0000771  10.4600000  2
    816    819    839    840     1  0.0000000  0.0000000  2
    816    822    823    824     1  0.0000000  1.2552000  3
    816    822    823    825     1  0.0000000  1.2552000  3
    816    822    826    827     1  0.0000000  1.2552000  3
    816    822    826    828     1  0.0000000  1.2552000  3
    817    816    819    839     1  0.0000000  0.6508444  3
    817    816    819    820     1  0.0000000  0.6508444  3
    817    816    819    821     1  0.0000000  0.6508444  3
    817    816    822    823     1  0.0000000  1.2552000  3
    817    816    822    826     1  0.0000000  1.2552000  3
    818    816    819    839     1  0.0000000  0.6508444  3
    818    816    819    820     1  0.0000000  0.6508444  3
    818    816    819    821     1  0.0000000  0.6508444  3
    818    816    822    823     1  0.0000000  1.2552000  3
    818    816    822    826     1  0.0000000  1.2552000  3
    820    819    816    822     1  0.0000000  0.6508444  3
    820    819    839    840     1  0.0000000  0.0000000  2
    821    819    816    822     1  0.0000000  0.6508444  3
    821    819    839    840     1  0.0000000  0.0000000  2
    822    823    832    833     1  0.0000000  0.6508444  3
    822    823    832    834     1  0.0000000  0.6508444  3
    822    826    829    830     1  0.0000000  0.6508444  3
    822    826    829    831     1  0.0000000  0.6508444  3
    823    822    826    827     1  0.0000000  1.2552000  3
    823    822    826    828     1  0.0000000  1.2552000  3
    824    823    822    826     1  0.0000000  1.2552000  3
    824    823    832    836     1  0.0000000  0.6508444  3
    824    823    832    833     1  0.0000000  0.6508444  3
    824    823    832    834     1  0.0000000  0.6508444  3
    825    823    822    826     1  0.0000000  1.2552000  3
    825    823    832    836     1  0.0000000  0.6508444  3
    825    823    832    833     1  0.0000000  0.6508444  3
    825    823    832    834     1  0.0000000  0.6508444  3
    827    826    829    835     1  0.0000000  0.6508444  3
    827    826    829    830     1  0.0000000  0.6508444  3
    827    826    829    831     1  0.0000000  0.6508444  3
    828    826    829    835     1  0.0000000  0.6508444  3
    828    826    829    830     1  0.0000000  0.6508444  3
    828    826    829    831     1  0.0000000  0.6508444  3
    829    835   1703   1704     1  180.0000771  10.4600000  2
    830    829    835   1703     1  180.0000771  0.0000000  2
    830    829    835    837     1  0.0000000  3.3472000  1
    830    829    835    837     1  0.0000000  0.0000000  2
    830    829    835    837     1  180.0000771  0.3347200  3
    831    829    835   1703     1  180.0000771  0.0000000  2
    831    829    835    837     1  0.0000000  3.3472000  1
    831    829    835    837     1  0.0000000  0.0000000  2
    831    829    835    837     1  180.0000771  0.3347200  3
    832    836   1730   1731     1  180.0000771  10.4600000  2
    833    832    836    838     1  0.0000000  3.3472000  1
    833    832    836    838     1  0.0000000  0.0000000  2
    833    832    836    838     1  180.0000771  0.3347200  3
    833    832    836   1730     1  180.0000771  0.0000000  2
    834    832    836    838     1  0.0000000  3.3472000  1
    834    832    836    838     1  0.0000000  0.0000000  2
    834    832    836    838     1  180.0000771  0.3347200  3
    834    832    836   1730     1  180.0000771  0.0000000  2
    835   1703   1705   1706     1  0.0000000  0.0000000  2
    835   1703   1705   1708     1  0.0000000  0.0000000  2
    836   1730   1732   1733     1  0.0000000  0.0000000  2
    836   1730   1732   1735     1  0.0000000  0.0000000  2
    837    835   1703   1704     1  0.0000000  8.3680000  1
    837    835   1703   1704     1  180.0000771  10.4600000  2
    838    836   1730   1731     1  0.0000000  8.3680000  1
    838    836   1730   1731     1  180.0000771  10.4600000  2
    841    844    864    865     1  0.0000000  0.0000000  2
    841    847    848    849     1  0.0000000  1.2552000  3
    841    847    848    850     1  0.0000000  1.2552000  3
    841    847    851    852     1  0.0000000  1.2552000  3
    841    847    851    853     1  0.0000000  1.2552000  3
    842    841    844    864     1  0.0000000  0.6508444  3
    842    841    844    845     1  0.0000000  0.6508444  3
    842    841    844    846     1  0.0000000  0.6508444  3
    842    841    847    848     1  0.0000000  1.2552000  3
    842    841    847    851     1  0.0000000  1.2552000  3
    843    841    844    864     1  0.0000000  0.6508444  3
    843    841    844    845     1  0.0000000  0.6508444  3
    843    841    844    846     1  0.0000000  0.6508444  3
    843    841    847    848     1  0.0000000  1.2552000  3
    843    841    847    851     1  0.0000000  1.2552000  3
    845    844    841    847     1  0.0000000  0.6508444  3
    845    844    864    865     1  0.0000000  0.0000000  2
    846    844    841    847     1  0.0000000  0.6508444  3
    846    844    864    865     1  0.0000000  0.0000000  2
    847    848    857    858     1  0.0000000  0.6508444  3
    847    848    857    859     1  0.0000000  0.6508444  3
    847    851    854    855     1  0.0000000  0.6508444  3
    847    851    854    856     1  0.0000000  0.6508444  3
    848    847    851    852     1  0.0000000  1.2552000  3
    848    847    851    853     1  0.0000000  1.2552000  3
    849    848    847    851     1  0.0000000  1.2552000  3
    849    848    857    861     1  0.0000000  0.6508444  3
    849    848    857    858     1  0.0000000  0.6508444  3
    849    848    857    859     1  0.0000000  0.6508444  3
    850    848    847    851     1  0.0000000  1.2552000  3
    850    848    857    861     1  0.0000000  0.6508444  3
    850    848    857    858     1  0.0000000  0.6508444  3
    850    848    857    859     1  0.0000000  0.6508444  3
    852    851    854    860     1  0.0000000  0.6508444  3
    852    851    854    855     1  0.0000000  0.6508444  3
    852    851    854    856     1  0.0000000  0.6508444  3
    853    851    854    860     1  0.0000000  0.6508444  3
    853    851    854    855     1  0.0000000  0.6508444  3
    853    851    854    856     1  0.0000000  0.6508444  3
    854    860   1757   1758     1  180.0000771  10.4600000  2
    855    854    860   1757     1  180.0000771  0.0000000  2
    855    854    860    862     1  0.0000000  3.3472000  1
    855    854    860    862     1  0.0000000  0.0000000  2
    855    854    860    862     1  180.0000771  0.3347200  3
    856    854    860   1757     1  180.0000771  0.0000000  2
    856    854    860    862     1  0.0000000  3.3472000  1
    856    854    860    862     1  0.0000000  0.0000000  2
    856    854    860    862     1  180.0000771  0.3347200  3
    857    861   1784   1785     1  180.0000771  10.4600000  2
    858    857    861    863     1  0.0000000  3.3472000  1
    858    857    861    863     1  0.0000000  0.0000000  2
    858    857    861    863     1  180.0000771  0.3347200  3
    858    857    861   1784     1  180.0000771  0.0000000  2
    859    857    861    863     1  0.0000000  3.3472000  1
    859    857    861    863     1  0.0000000  0.0000000  2
    859    857    861    863     1  180.0000771  0.3347200  3
    859    857    861   1784     1  180.0000771  0.0000000  2
    860   1757   1759   1760     1  0.0000000  0.0000000  2
    860   1757   1759   1762     1  0.0000000  0.0000000  2
    861   1784   1786   1787     1  0.0000000  0.0000000  2
    861   1784   1786   1789     1  0.0000000  0.0000000  2
    862    860   1757   1758     1  0.0000000  8.3680000  1
    862    860   1757   1758     1  180.0000771  10.4600000  2
    863    861   1784   1785     1  0.0000000  8.3680000  1
    863    861   1784   1785     1  180.0000771  10.4600000  2
    866    869    889    890     1  0.0000000  0.0000000  2
    866    872    873    874     1  0.0000000  1.2552000  3
    866    872    873    875     1  0.0000000  1.2552000  3
    866    872    876    877     1  0.0000000  1.2552000  3
    866    872    876    878     1  0.0000000  1.2552000  3
    867    866    869    889     1  0.0000000  0.6508444  3
    867    866    869    870     1  0.0000000  0.6508444  3
    867    866    869    871     1  0.0000000  0.6508444  3
    867    866    872    873     1  0.0000000  1.2552000  3
    867    866    872    876     1  0.0000000  1.2552000  3
    868    866    869    889     1  0.0000000  0.6508444  3
    868    866    869    870     1  0.0000000  0.6508444  3
    868    866    869    871     1  0.0000000  0.6508444  3
    868    866    872    873     1  0.0000000  1.2552000  3
    868    866    872    876     1  0.0000000  1.2552000  3
    870    869    866    872     1  0.0000000  0.6508444  3
    870    869    889    890     1  0.0000000  0.0000000  2
    871    869    866    872     1  0.0000000  0.6508444  3
    871    869    889    890     1  0.0000000  0.0000000  2
    872    873    882    883     1  0.0000000  0.6508444  3
    872    873    882    884     1  0.0000000  0.6508444  3
    872    876    879    880     1  0.0000000  0.6508444  3
    872    876    879    881     1  0.0000000  0.6508444  3
    873    872    876    877     1  0.0000000  1.2552000  3
    873    872    876    878     1  0.0000000  1.2552000  3
    874    873    872    876     1  0.0000000  1.2552000  3
    874    873    882    886     1  0.0000000  0.6508444  3
    874    873    882    883     1  0.0000000  0.6508444  3
    874    873    882    884     1  0.0000000  0.6508444  3
    875    873    872    876     1  0.0000000  1.2552000  3
    875    873    882    886     1  0.0000000  0.6508444  3
    875    873    882    883     1  0.0000000  0.6508444  3
    875    873    882    884     1  0.0000000  0.6508444  3
    877    876    879    885     1  0.0000000  0.6508444  3
    877    876    879    880     1  0.0000000  0.6508444  3
    877    876    879    881     1  0.0000000  0.6508444  3
    878    876    879    885     1  0.0000000  0.6508444  3
    878    876    879    880     1  0.0000000  0.6508444  3
    878    876    879    881     1  0.0000000  0.6508444  3
    879    885   1811   1812     1  180.0000771  10.4600000  2
    880    879    885   1811     1  180.0000771  0.0000000  2
    880    879    885    887     1  0.0000000  3.3472000  1
    880    879    885    887     1  0.0000000  0.0000000  2
    880    879    885    887     1  180.0000771  0.3347200  3
    881    879    885   1811     1  180.0000771  0.0000000  2
    881    879    885    887     1  0.0000000  3.3472000  1
    881    879    885    887     1  0.0000000  0.0000000  2
    881    879    885    887     1  180.0000771  0.3347200  3
    882    886   1838   1839     1  180.0000771  10.4600000  2
    883    882    886    888     1  0.0000000  3.3472000  1
    883    882    886    888     1  0.0000000  0.0000000  2
    883    882    886    888     1  180.0000771  0.3347200  3
    883    882    886   1838     1  180.0000771  0.0000000  2
    884    882    886    888     1  0.0000000  3.3472000  1
    884    882    886    888     1  0.0000000  0.0000000  2
    884    882    886    888     1  180.0000771  0.3347200  3
    884    882    886   1838     1  180.0000771  0.0000000  2
    885   1811   1813   1814     1  0.0000000  0.0000000  2
    885   1811   1813   1816     1  0.0000000  0.0000000  2
    886   1838   1840   1841     1  0.0000000  0.0000000  2
    886   1838   1840   1843     1  0.0000000  0.0000000  2
    887    885   1811   1812     1  0.0000000  8.3680000  1
    887    885   1811   1812     1  180.0000771  10.4600000  2
    888    886   1838   1839     1  0.0000000  8.3680000  1
    888    886   1838   1839     1  180.0000771  10.4600000  2
    891    894    914    915     1  0.0000000  0.0000000  2
    891    897    898    899     1  0.0000000  1.2552000  3
    891    897    898    900     1  0.0000000  1.2552000  3
    891    897    901    902     1  0.0000000  1.2552000  3
    891    897    901    903     1  0.0000000  1.2552000  3
    892    891    894    914     1  0.0000000  0.6508444  3
    892    891    894    895     1  0.0000000  0.6508444  3
    892    891    894    896     1  0.0000000  0.6508444  3
    892    891    897    898     1  0.0000000  1.2552000  3
    892    891    897    901     1  0.0000000  1.2552000  3
    893    891    894    914     1  0.0000000  0.6508444  3
    893    891    894    895     1  0.0000000  0.6508444  3
    893    891    894    896     1  0.0000000  0.6508444  3
    893    891    897    898     1  0.0000000  1.2552000  3
    893    891    897    901     1  0.0000000  1.2552000  3
    895    894    891    897     1  0.0000000  0.6508444  3
    895    894    914    915     1  0.0000000  0.0000000  2
    896    894    891    897     1  0.0000000  0.6508444  3
    896    894    914    915     1  0.0000000  0.0000000  2
    897    898    907    908     1  0.0000000  0.6508444  3
    897    898    907    909     1  0.0000000  0.6508444  3
    897    901    904    905     1  0.0000000  0.6508444  3
    897    901    904    906     1  0.0000000  0.6508444  3
    898    897    901    902     1  0.0000000  1.2552000  3
    898    897    901    903     1  0.0000000  1.2552000  3
    899    898    897    901     1  0.0000000  1.2552000  3
    899    898    907    911     1  0.0000000  0.6508444  3
    899    898    907    908     1  0.0000000  0.6508444  3
    899    898    907    909     1  0.0000000  0.6508444  3
    900    898    897    901     1  0.0000000  1.2552000  3
    900    898    907    911     1  0.0000000  0.6508444  3
    900    898    907    908     1  0.0000000  0.6508444  3
    900    898    907    909     1  0.0000000  0.6508444  3
    902    901    904    910     1  0.0000000  0.6508444  3
    902    901    904    905     1  0.0000000  0.6508444  3
    902    901    904    906     1  0.0000000  0.6508444  3
    903    901    904    910     1  0.0000000  0.6508444  3
    903    901    904    905     1  0.0000000  0.6508444  3
    903    901    904    906     1  0.0000000  0.6508444  3
    904    910   1865   1866     1  180.0000771  10.4600000  2
    905    904    910   1865     1  180.0000771  0.0000000  2
    905    904    910    912     1  0.0000000  3.3472000  1
    905    904    910    912     1  0.0000000  0.0000000  2
    905    904    910    912     1  180.0000771  0.3347200  3
    906    904    910   1865     1  180.0000771  0.0000000  2
    906    904    910    912     1  0.0000000  3.3472000  1
    906    904    910    912     1  0.0000000  0.0000000  2
    906    904    910    912     1  180.0000771  0.3347200  3
    907    911   1892   1893     1  180.0000771  10.4600000  2
    908    907    911    913     1  0.0000000  3.3472000  1
    908    907    911    913     1  0.0000000  0.0000000  2
    908    907    911    913     1  180.0000771  0.3347200  3
    908    907    911   1892     1  180.0000771  0.0000000  2
    909    907    911    913     1  0.0000000  3.3472000  1
    909    907    911    913     1  0.0000000  0.0000000  2
    909    907    911    913     1  180.0000771  0.3347200  3
    909    907    911   1892     1  180.0000771  0.0000000  2
    910   1865   1867   1868     1  0.0000000  0.0000000  2
    910   1865   1867   1870     1  0.0000000  0.0000000  2
    911   1892   1894   1895     1  0.0000000  0.0000000  2
    911   1892   1894   1897     1  0.0000000  0.0000000  2
    912    910   1865   1866     1  0.0000000  8.3680000  1
    912    910   1865   1866     1  180.0000771  10.4600000  2
    913    911   1892   1893     1  0.0000000  8.3680000  1
    913    911   1892   1893     1  180.0000771  10.4600000  2
    916    919    939    940     1  0.0000000  0.0000000  2
    916    922    923    924     1  0.0000000  1.2552000  3
    916    922    923    925     1  0.0000000  1.2552000  3
    916    922    926    927     1  0.0000000  1.2552000  3
    916    922    926    928     1  0.0000000  1.2552000  3
    917    916    919    939     1  0.0000000  0.6508444  3
    917    916    919    920     1  0.0000000  0.6508444  3
    917    916    919    921     1  0.0000000  0.6508444  3
    917    916    922    923     1  0.0000000  1.2552000  3
    917    916    922    926     1  0.0000000  1.2552000  3
    918    916    919    939     1  0.0000000  0.6508444  3
    918    916    919    920     1  0.0000000  0.6508444  3
    918    916    919    921     1  0.0000000  0.6508444  3
    918    916    922    923     1  0.0000000  1.2552000  3
    918    916    922    926     1  0.0000000  1.2552000  3
    920    919    916    922     1  0.0000000  0.6508444  3
    920    919    939    940     1  0.0000000  0.0000000  2
    921    919    916    922     1  0.0000000  0.6508444  3
    921    919    939    940     1  0.0000000  0.0000000  2
    922    923    932    933     1  0.0000000  0.6508444  3
    922    923    932    934     1  0.0000000  0.6508444  3
    922    926    929    930     1  0.0000000  0.6508444  3
    922    926    929    931     1  0.0000000  0.6508444  3
    923    922    926    927     1  0.0000000  1.2552000  3
    923    922    926    928     1  0.0000000  1.2552000  3
    924    923    922    926     1  0.0000000  1.2552000  3
    924    923    932    936     1  0.0000000  0.6508444  3
    924    923    932    933     1  0.0000000  0.6508444  3
    924    923    932    934     1  0.0000000  0.6508444  3
    925    923    922    926     1  0.0000000  1.2552000  3
    925    923    932    936     1  0.0000000  0.6508444  3
    925    923    932    933     1  0.0000000  0.6508444  3
    925    923    932    934     1  0.0000000  0.6508444  3
    927    926    929    935     1  0.0000000  0.6508444  3
    927    926    929    930     1  0.0000000  0.6508444  3
    927    926    929    931     1  0.0000000  0.6508444  3
    928    926    929    935     1  0.0000000  0.6508444  3
    928    926    929    930     1  0.0000000  0.6508444  3
    928    926    929    931     1  0.0000000  0.6508444  3
    929    935   1919   1920     1  180.0000771  10.4600000  2
    930    929    935   1919     1  180.0000771  0.0000000  2
    930    929    935    937     1  0.0000000  3.3472000  1
    930    929    935    937     1  0.0000000  0.0000000  2
    930    929    935    937     1  180.0000771  0.3347200  3
    931    929    935   1919     1  180.0000771  0.0000000  2
    931    929    935    937     1  0.0000000  3.3472000  1
    931    929    935    937     1  0.0000000  0.0000000  2
    931    929    935    937     1  180.0000771  0.3347200  3
    932    936   1946   1947     1  180.0000771  10.4600000  2
    933    932    936    938     1  0.0000000  3.3472000  1
    933    932    936    938     1  0.0000000  0.0000000  2
    933    932    936    938     1  180.0000771  0.3347200  3
    933    932    936   1946     1  180.0000771  0.0000000  2
    934    932    936    938     1  0.0000000  3.3472000  1
    934    932    936    938     1  0.0000000  0.0000000  2
    934    932    936    938     1  180.0000771  0.3347200  3
    934    932    936   1946     1  180.0000771  0.0000000  2
    935   1919   1921   1922     1  0.0000000  0.0000000  2
    935   1919   1921   1924     1  0.0000000  0.0000000  2
    936   1946   1948   1949     1  0.0000000  0.0000000  2
    936   1946   1948   1951     1  0.0000000  0.0000000  2
    937    935   1919   1920     1  0.0000000  8.3680000  1
    937    935   1919   1920     1  180.0000771  10.4600000  2
    938    936   1946   1947     1  0.0000000  8.3680000  1
    938    936   1946   1947     1  180.0000771  10.4600000  2
    941    944    964    965     1  0.0000000  0.0000000  2
    941    947    948    949     1  0.0000000  1.2552000  3
    941    947    948    950     1  0.0000000  1.2552000  3
    941    947    951    952     1  0.0000000  1.2552000  3
    941    947    951    953     1  0.0000000  1.2552000  3
    942    941    944    964     1  0.0000000  0.6508444  3
    942    941    944    945     1  0.0000000  0.6508444  3
    942    941    944    946     1  0.0000000  0.6508444  3
    942    941    947    948     1  0.0000000  1.2552000  3
    942    941    947    951     1  0.0000000  1.2552000  3
    943    941    944    964     1  0.0000000  0.6508444  3
    943    941    944    945     1  0.0000000  0.6508444  3
    943    941    944    946     1  0.0000000  0.6508444  3
    943    941    947    948     1  0.0000000  1.2552000  3
    943    941    947    951     1  0.0000000  1.2552000  3
    945    944    941    947     1  0.0000000  0.6508444  3
    945    944    964    965     1  0.0000000  0.0000000  2
    946    944    941    947     1  0.0000000  0.6508444  3
    946    944    964    965     1  0.0000000  0.0000000  2
    947    948    957    958     1  0.0000000  0.6508444  3
    947    948    957    959     1  0.0000000  0.6508444  3
    947    951    954    955     1  0.0000000  0.6508444  3
    947    951    954    956     1  0.0000000  0.6508444  3
    948    947    951    952     1  0.0000000  1.2552000  3
    948    947    951    953     1  0.0000000  1.2552000  3
    949    948    947    951     1  0.0000000  1.2552000  3
    949    948    957    961     1  0.0000000  0.6508444  3
    949    948    957    958     1  0.0000000  0.6508444  3
    949    948    957    959     1  0.0000000  0.6508444  3
    950    948    947    951     1  0.0000000  1.2552000  3
    950    948    957    961     1  0.0000000  0.6508444  3
    950    948    957    958     1  0.0000000  0.6508444  3
    950    948    957    959     1  0.0000000  0.6508444  3
    952    951    954    960     1  0.0000000  0.6508444  3
    952    951    954    955     1  0.0000000  0.6508444  3
    952    951    954    956     1  0.0000000  0.6508444  3
    953    951    954    960     1  0.0000000  0.6508444  3
    953    951    954    955     1  0.0000000  0.6508444  3
    953    951    954    956     1  0.0000000  0.6508444  3
    954    960   1973   1974     1  180.0000771  10.4600000  2
    955    954    960   1973     1  180.0000771  0.0000000  2
    955    954    960    962     1  0.0000000  3.3472000  1
    955    954    960    962     1  0.0000000  0.0000000  2
    955    954    960    962     1  180.0000771  0.3347200  3
    956    954    960   1973     1  180.0000771  0.0000000  2
    956    954    960    962     1  0.0000000  3.3472000  1
    956    954    960    962     1  0.0000000  0.0000000  2
    956    954    960    962     1  180.0000771  0.3347200  3
    957    961   2000   2001     1  180.0000771  10.4600000  2
    958    957    961    963     1  0.0000000  3.3472000  1
    958    957    961    963     1  0.0000000  0.0000000  2
    958    957    961    963     1  180.0000771  0.3347200  3
    958    957    961   2000     1  180.0000771  0.0000000  2
    959    957    961    963     1  0.0000000  3.3472000  1
    959    957    961    963     1  0.0000000  0.0000000  2
    959    957    961    963     1  180.0000771  0.3347200  3
    959    957    961   2000     1  180.0000771  0.0000000  2
    960   1973   1975   1976     1  0.0000000  0.0000000  2
    960   1973   1975   1978     1  0.0000000  0.0000000  2
    961   2000   2002   2003     1  0.0000000  0.0000000  2
    961   2000   2002   2005     1  0.0000000  0.0000000  2
    962    960   1973   1974     1  0.0000000  8.3680000  1
    962    960   1973   1974     1  180.0000771  10.4600000  2
    963    961   2000   2001     1  0.0000000  8.3680000  1
    963    961   2000   2001     1  180.0000771  10.4600000  2
    966    969    989    990     1  0.0000000  0.0000000  2
    966    972    973    974     1  0.0000000  1.2552000  3
    966    972    973    975     1  0.0000000  1.2552000  3
    966    972    976    977     1  0.0000000  1.2552000  3
    966    972    976    978     1  0.0000000  1.2552000  3
    967    966    969    989     1  0.0000000  0.6508444  3
    967    966    969    970     1  0.0000000  0.6508444  3
    967    966    969    971     1  0.0000000  0.6508444  3
    967    966    972    973     1  0.0000000  1.2552000  3
    967    966    972    976     1  0.0000000  1.2552000  3
    968    966    969    989     1  0.0000000  0.6508444  3
    968    966    969    970     1  0.0000000  0.6508444  3
    968    966    969    971     1  0.0000000  0.6508444  3
    968    966    972    973     1  0.0000000  1.2552000  3
    968    966    972    976     1  0.0000000  1.2552000  3
    970    969    966    972     1  0.0000000  0.6508444  3
    970    969    989    990     1  0.0000000  0.0000000  2
    971    969    966    972     1  0.0000000  0.6508444  3
    971    969    989    990     1  0.0000000  0.0000000  2
    972    973    982    983     1  0.0000000  0.6508444  3
    972    973    982    984     1  0.0000000  0.6508444  3
    972    976    979    980     1  0.0000000  0.6508444  3
    972    976    979    981     1  0.0000000  0.6508444  3
    973    972    976    977     1  0.0000000  1.2552000  3
    973    972    976    978     1  0.0000000  1.2552000  3
    974    973    972    976     1  0.0000000  1.2552000  3
    974    973    982    986     1  0.0000000  0.6508444  3
    974    973    982    983     1  0.0000000  0.6508444  3
    974    973    982    984     1  0.0000000  0.6508444  3
    975    973    972    976     1  0.0000000  1.2552000  3
    975    973    982    986     1  0.0000000  0.6508444  3
    975    973    982    983     1  0.0000000  0.6508444  3
    975    973    982    984     1  0.0000000  0.6508444  3
    977    976    979    985     1  0.0000000  0.6508444  3
    977    976    979    980     1  0.0000000  0.6508444  3
    977    976    979    981     1  0.0000000  0.6508444  3
    978    976    979    985     1  0.0000000  0.6508444  3
    978    976    979    980     1  0.0000000  0.6508444  3
    978    976    979    981     1  0.0000000  0.6508444  3
    979    985   2027   2028     1  180.0000771  10.4600000  2
    980    979    985   2027     1  180.0000771  0.0000000  2
    980    979    985    987     1  0.0000000  3.3472000  1
    980    979    985    987     1  0.0000000  0.0000000  2
    980    979    985    987     1  180.0000771  0.3347200  3
    981    979    985   2027     1  180.0000771  0.0000000  2
    981    979    985    987     1  0.0000000  3.3472000  1
    981    979    985    987     1  0.0000000  0.0000000  2
    981    979    985    987     1  180.0000771  0.3347200  3
    982    986   2054   2055     1  180.0000771  10.4600000  2
    983    982    986    988     1  0.0000000  3.3472000  1
    983    982    986    988     1  0.0000000  0.0000000  2
    983    982    986    988     1  180.0000771  0.3347200  3
    983    982    986   2054     1  180.0000771  0.0000000  2
    984    982    986    988     1  0.0000000  3.3472000  1
    984    982    986    988     1  0.0000000  0.0000000  2
    984    982    986    988     1  180.0000771  0.3347200  3
    984    982    986   2054     1  180.0000771  0.0000000  2
    985   2027   2029   2030     1  0.0000000  0.0000000  2
    985   2027   2029   2032     1  0.0000000  0.0000000  2
    986   2054   2056   2057     1  0.0000000  0.0000000  2
    986   2054   2056   2059     1  0.0000000  0.0000000  2
    987    985   2027   2028     1  0.0000000  8.3680000  1
    987    985   2027   2028     1  180.0000771  10.4600000  2
    988    986   2054   2055     1  0.0000000  8.3680000  1
    988    986   2054   2055     1  180.0000771  10.4600000  2
    991    994   1014   1015     1  0.0000000  0.0000000  2
    991    997    998    999     1  0.0000000  1.2552000  3
    991    997    998   1000     1  0.0000000  1.2552000  3
    991    997   1001   1002     1  0.0000000  1.2552000  3
    991    997   1001   1003     1  0.0000000  1.2552000  3
    992    991    994   1014     1  0.0000000  0.6508444  3
    992    991    994    995     1  0.0000000  0.6508444  3
    992    991    994    996     1  0.0000000  0.6508444  3
    992    991    997    998     1  0.0000000  1.2552000  3
    992    991    997   1001     1  0.0000000  1.2552000  3
    993    991    994   1014     1  0.0000000  0.6508444  3
    993    991    994    995     1  0.0000000  0.6508444  3
    993    991    994    996     1  0.0000000  0.6508444  3
    993    991    997    998     1  0.0000000  1.2552000  3
    993    991    997   1001     1  0.0000000  1.2552000  3
    995    994    991    997     1  0.0000000  0.6508444  3
    995    994   1014   1015     1  0.0000000  0.0000000  2
    996    994    991    997     1  0.0000000  0.6508444  3
    996    994   1014   1015     1  0.0000000  0.0000000  2
    997    998   1007   1008     1  0.0000000  0.6508444  3
    997    998   1007   1009     1  0.0000000  0.6508444  3
    997   1001   1004   1005     1  0.0000000  0.6508444  3
    997   1001   1004   1006     1  0.0000000  0.6508444  3
    998    997   1001   1002     1  0.0000000  1.2552000  3
    998    997   1001   1003     1  0.0000000  1.2552000  3
    999    998    997   1001     1  0.0000000  1.2552000  3
    999    998   1007   1011     1  0.0000000  0.6508444  3
    999    998   1007   1008     1  0.0000000  0.6508444  3
    999    998   1007   1009     1  0.0000000  0.6508444  3
   1000    998    997   1001     1  0.0000000  1.2552000  3
   1000    998   1007   1011     1  0.0000000  0.6508444  3
   1000    998   1007   1008     1  0.0000000  0.6508444  3
   1000    998   1007   1009     1  0.0000000  0.6508444  3
   1002   1001   1004   1010     1  0.0000000  0.6508444  3
   1002   1001   1004   1005     1  0.0000000  0.6508444  3
   1002   1001   1004   1006     1  0.0000000  0.6508444  3
   1003   1001   1004   1010     1  0.0000000  0.6508444  3
   1003   1001   1004   1005     1  0.0000000  0.6508444  3
   1003   1001   1004   1006     1  0.0000000  0.6508444  3
   1004   1010   2081   2082     1  180.0000771  10.4600000  2
   1005   1004   1010   2081     1  180.0000771  0.0000000  2
   1005   1004   1010   1012     1  0.0000000  3.3472000  1
   1005   1004   1010   1012     1  0.0000000  0.0000000  2
   1005   1004   1010   1012     1  180.0000771  0.3347200  3
   1006   1004   1010   2081     1  180.0000771  0.0000000  2
   1006   1004   1010   1012     1  0.0000000  3.3472000  1
   1006   1004   1010   1012     1  0.0000000  0.0000000  2
   1006   1004   1010   1012     1  180.0000771  0.3347200  3
   1007   1011   2108   2109     1  180.0000771  10.4600000  2
   1008   1007   1011   1013     1  0.0000000  3.3472000  1
   1008   1007   1011   1013     1  0.0000000  0.0000000  2
   1008   1007   1011   1013     1  180.0000771  0.3347200  3
   1008   1007   1011   2108     1  180.0000771  0.0000000  2
   1009   1007   1011   1013     1  0.0000000  3.3472000  1
   1009   1007   1011   1013     1  0.0000000  0.0000000  2
   1009   1007   1011   1013     1  180.0000771  0.3347200  3
   1009   1007   1011   2108     1  180.0000771  0.0000000  2
   1010   2081   2083   2084     1  0.0000000  0.0000000  2
   1010   2081   2083   2086     1  0.0000000  0.0000000  2
   1011   2108   2110   2111     1  0.0000000  0.0000000  2
   1011   2108   2110   2113     1  0.0000000  0.0000000  2
   1012   1010   2081   2082     1  0.0000000  8.3680000  1
   1012   1010   2081   2082     1  180.0000771  10.4600000  2
   1013   1011   2108   2109     1  0.0000000  8.3680000  1
   1013   1011   2108   2109     1  180.0000771  10.4600000  2
   1016   1019   1039   1040     1  0.0000000  0.0000000  2
   1016   1022   1023   1024     1  0.0000000  1.2552000  3
   1016   1022   1023   1025     1  0.0000000  1.2552000  3
   1016   1022   1026   1027     1  0.0000000  1.2552000  3
   1016   1022   1026   1028     1  0.0000000  1.2552000  3
   1017   1016   1019   1039     1  0.0000000  0.6508444  3
   1017   1016   1019   1020     1  0.0000000  0.6508444  3
   1017   1016   1019   1021     1  0.0000000  0.6508444  3
   1017   1016   1022   1023     1  0.0000000  1.2552000  3
   1017   1016   1022   1026     1  0.0000000  1.2552000  3
   1018   1016   1019   1039     1  0.0000000  0.6508444  3
   1018   1016   1019   1020     1  0.0000000  0.6508444  3
   1018   1016   1019   1021     1  0.0000000  0.6508444  3
   1018   1016   1022   1023     1  0.0000000  1.2552000  3
   1018   1016   1022   1026     1  0.0000000  1.2552000  3
   1020   1019   1016   1022     1  0.0000000  0.6508444  3
   1020   1019   1039   1040     1  0.0000000  0.0000000  2
   1021   1019   1016   1022     1  0.0000000  0.6508444  3
   1021   1019   1039   1040     1  0.0000000  0.0000000  2
   1022   1023   1032   1033     1  0.0000000  0.6508444  3
   1022   1023   1032   1034     1  0.0000000  0.6508444  3
   1022   1026   1029   1030     1  0.0000000  0.6508444  3
   1022   1026   1029   1031     1  0.0000000  0.6508444  3
   1023   1022   1026   1027     1  0.0000000  1.2552000  3
   1023   1022   1026   1028     1  0.0000000  1.2552000  3
   1024   1023   1022   1026     1  0.0000000  1.2552000  3
   1024   1023   1032   1036     1  0.0000000  0.6508444  3
   1024   1023   1032   1033     1  0.0000000  0.6508444  3
   1024   1023   1032   1034     1  0.0000000  0.6508444  3
   1025   1023   1022   1026     1  0.0000000  1.2552000  3
   1025   1023   1032   1036     1  0.0000000  0.6508444  3
   1025   1023   1032   1033     1  0.0000000  0.6508444  3
   1025   1023   1032   1034     1  0.0000000  0.6508444  3
   1027   1026   1029   1035     1  0.0000000  0.6508444  3
   1027   1026   1029   1030     1  0.0000000  0.6508444  3
   1027   1026   1029   1031     1  0.0000000  0.6508444  3
   1028   1026   1029   1035     1  0.0000000  0.6508444  3
   1028   1026   1029   1030     1  0.0000000  0.6508444  3
   1028   1026   1029   1031     1  0.0000000  0.6508444  3
   1029   1035   2135   2136     1  180.0000771  10.4600000  2
   1030   1029   1035   2135     1  180.0000771  0.0000000  2
   1030   1029   1035   1037     1  0.0000000  3.3472000  1
   1030   1029   1035   1037     1  0.0000000  0.0000000  2
   1030   1029   1035   1037     1  180.0000771  0.3347200  3
   1031   1029   1035   2135     1  180.0000771  0.0000000  2
   1031   1029   1035   1037     1  0.0000000  3.3472000  1
   1031   1029   1035   1037     1  0.0000000  0.0000000  2
   1031   1029   1035   1037     1  180.0000771  0.3347200  3
   1032   1036   2162   2163     1  180.0000771  10.4600000  2
   1033   1032   1036   1038     1  0.0000000  3.3472000  1
   1033   1032   1036   1038     1  0.0000000  0.0000000  2
   1033   1032   1036   1038     1  180.0000771  0.3347200  3
   1033   1032   1036   2162     1  180.0000771  0.0000000  2
   1034   1032   1036   1038     1  0.0000000  3.3472000  1
   1034   1032   1036   1038     1  0.0000000  0.0000000  2
   1034   1032   1036   1038     1  180.0000771  0.3347200  3
   1034   1032   1036   2162     1  180.0000771  0.0000000  2
   1035   2135   2137   2138     1  0.0000000  0.0000000  2
   1035   2135   2137   2140     1  0.0000000  0.0000000  2
   1036   2162   2164   2165     1  0.0000000  0.0000000  2
   1036   2162   2164   2167     1  0.0000000  0.0000000  2
   1037   1035   2135   2136     1  0.0000000  8.3680000  1
   1037   1035   2135   2136     1  180.0000771  10.4600000  2
   1038   1036   2162   2163     1  0.0000000  8.3680000  1
   1038   1036   2162   2163     1  180.0000771  10.4600000  2
   1041   1044   1064   1065     1  0.0000000  0.0000000  2
   1041   1047   1048   1049     1  0.0000000  1.2552000  3
   1041   1047   1048   1050     1  0.0000000  1.2552000  3
   1041   1047   1051   1052     1  0.0000000  1.2552000  3
   1041   1047   1051   1053     1  0.0000000  1.2552000  3
   1042   1041   1044   1064     1  0.0000000  0.6508444  3
   1042   1041   1044   1045     1  0.0000000  0.6508444  3
   1042   1041   1044   1046     1  0.0000000  0.6508444  3
   1042   1041   1047   1048     1  0.0000000  1.2552000  3
   1042   1041   1047   1051     1  0.0000000  1.2552000  3
   1043   1041   1044   1064     1  0.0000000  0.6508444  3
   1043   1041   1044   1045     1  0.0000000  0.6508444  3
   1043   1041   1044   1046     1  0.0000000  0.6508444  3
   1043   1041   1047   1048     1  0.0000000  1.2552000  3
   1043   1041   1047   1051     1  0.0000000  1.2552000  3
   1045   1044   1041   1047     1  0.0000000  0.6508444  3
   1045   1044   1064   1065     1  0.0000000  0.0000000  2
   1046   1044   1041   1047     1  0.0000000  0.6508444  3
   1046   1044   1064   1065     1  0.0000000  0.0000000  2
   1047   1048   1057   1058     1  0.0000000  0.6508444  3
   1047   1048   1057   1059     1  0.0000000  0.6508444  3
   1047   1051   1054   1055     1  0.0000000  0.6508444  3
   1047   1051   1054   1056     1  0.0000000  0.6508444  3
   1048   1047   1051   1052     1  0.0000000  1.2552000  3
   1048   1047   1051   1053     1  0.0000000  1.2552000  3
   1049   1048   1047   1051     1  0.0000000  1.2552000  3
   1049   1048   1057   1061     1  0.0000000  0.6508444  3
   1049   1048   1057   1058     1  0.0000000  0.6508444  3
   1049   1048   1057   1059     1  0.0000000  0.6508444  3
   1050   1048   1047   1051     1  0.0000000  1.2552000  3
   1050   1048   1057   1061     1  0.0000000  0.6508444  3
   1050   1048   1057   1058     1  0.0000000  0.6508444  3
   1050   1048   1057   1059     1  0.0000000  0.6508444  3
   1052   1051   1054   1060     1  0.0000000  0.6508444  3
   1052   1051   1054   1055     1  0.0000000  0.6508444  3
   1052   1051   1054   1056     1  0.0000000  0.6508444  3
   1053   1051   1054   1060     1  0.0000000  0.6508444  3
   1053   1051   1054   1055     1  0.0000000  0.6508444  3
   1053   1051   1054   1056     1  0.0000000  0.6508444  3
   1054   1060   2189   2190     1  180.0000771  10.4600000  2
   1055   1054   1060   2189     1  180.0000771  0.0000000  2
   1055   1054   1060   1062     1  0.0000000  3.3472000  1
   1055   1054   1060   1062     1  0.0000000  0.0000000  2
   1055   1054   1060   1062     1  180.0000771  0.3347200  3
   1056   1054   1060   2189     1  180.0000771  0.0000000  2
   1056   1054   1060   1062     1  0.0000000  3.3472000  1
   1056   1054   1060   1062     1  0.0000000  0.0000000  2
   1056   1054   1060   1062     1  180.0000771  0.3347200  3
   1057   1061   2216   2217     1  180.0000771  10.4600000  2
   1058   1057   1061   1063     1  0.0000000  3.3472000  1
   1058   1057   1061   1063     1  0.0000000  0.0000000  2
   1058   1057   1061   1063     1  180.0000771  0.3347200  3
   1058   1057   1061   2216     1  180.0000771  0.0000000  2
   1059   1057   1061   1063     1  0.0000000  3.3472000  1
   1059   1057   1061   1063     1  0.0000000  0.0000000  2
   1059   1057   1061   1063     1  180.0000771  0.3347200  3
   1059   1057   1061   2216     1  180.0000771  0.0000000  2
   1060   2189   2191   2192     1  0.0000000  0.0000000  2
   1060   2189   2191   2194     1  0.0000000  0.0000000  2
   1061   2216   2218   2219     1  0.0000000  0.0000000  2
   1061   2216   2218   2221     1  0.0000000  0.0000000  2
   1062   1060   2189   2190     1  0.0000000  8.3680000  1
   1062   1060   2189   2190     1  180.0000771  10.4600000  2
   1063   1061   2216   2217     1  0.0000000  8.3680000  1
   1063   1061   2216   2217     1  180.0000771  10.4600000  2
   1066   1069   1089   1090     1  0.0000000  0.0000000  2
   1066   1072   1073   1074     1  0.0000000  1.2552000  3
   1066   1072   1073   1075     1  0.0000000  1.2552000  3
   1066   1072   1076   1077     1  0.0000000  1.2552000  3
   1066   1072   1076   1078     1  0.0000000  1.2552000  3
   1067   1066   1069   1089     1  0.0000000  0.6508444  3
   1067   1066   1069   1070     1  0.0000000  0.6508444  3
   1067   1066   1069   1071     1  0.0000000  0.6508444  3
   1067   1066   1072   1073     1  0.0000000  1.2552000  3
   1067   1066   1072   1076     1  0.0000000  1.2552000  3
   1068   1066   1069   1089     1  0.0000000  0.6508444  3
   1068   1066   1069   1070     1  0.0000000  0.6508444  3
   1068   1066   1069   1071     1  0.0000000  0.6508444  3
   1068   1066   1072   1073     1  0.0000000  1.2552000  3
   1068   1066   1072   1076     1  0.0000000  1.2552000  3
   1070   1069   1066   1072     1  0.0000000  0.6508444  3
   1070   1069   1089   1090     1  0.0000000  0.0000000  2
   1071   1069   1066   1072     1  0.0000000  0.6508444  3
   1071   1069   1089   1090     1  0.0000000  0.0000000  2
   1072   1073   1082   1083     1  0.0000000  0.6508444  3
   1072   1073   1082   1084     1  0.0000000  0.6508444  3
   1072   1076   1079   1080     1  0.0000000  0.6508444  3
   1072   1076   1079   1081     1  0.0000000  0.6508444  3
   1073   1072   1076   1077     1  0.0000000  1.2552000  3
   1073   1072   1076   1078     1  0.0000000  1.2552000  3
   1074   1073   1072   1076     1  0.0000000  1.2552000  3
   1074   1073   1082   1086     1  0.0000000  0.6508444  3
   1074   1073   1082   1083     1  0.0000000  0.6508444  3
   1074   1073   1082   1084     1  0.0000000  0.6508444  3
   1075   1073   1072   1076     1  0.0000000  1.2552000  3
   1075   1073   1082   1086     1  0.0000000  0.6508444  3
   1075   1073   1082   1083     1  0.0000000  0.6508444  3
   1075   1073   1082   1084     1  0.0000000  0.6508444  3
   1077   1076   1079   1085     1  0.0000000  0.6508444  3
   1077   1076   1079   1080     1  0.0000000  0.6508444  3
   1077   1076   1079   1081     1  0.0000000  0.6508444  3
   1078   1076   1079   1085     1  0.0000000  0.6508444  3
   1078   1076   1079   1080     1  0.0000000  0.6508444  3
   1078   1076   1079   1081     1  0.0000000  0.6508444  3
   1079   1085   2243   2244     1  180.0000771  10.4600000  2
   1080   1079   1085   2243     1  180.0000771  0.0000000  2
   1080   1079   1085   1087     1  0.0000000  3.3472000  1
   1080   1079   1085   1087     1  0.0000000  0.0000000  2
   1080   1079   1085   1087     1  180.0000771  0.3347200  3
   1081   1079   1085   2243     1  180.0000771  0.0000000  2
   1081   1079   1085   1087     1  0.0000000  3.3472000  1
   1081   1079   1085   1087     1  0.0000000  0.0000000  2
   1081   1079   1085   1087     1  180.0000771  0.3347200  3
   1082   1086   2270   2271     1  180.0000771  10.4600000  2
   1083   1082   1086   1088     1  0.0000000  3.3472000  1
   1083   1082   1086   1088     1  0.0000000  0.0000000  2
   1083   1082   1086   1088     1  180.0000771  0.3347200  3
   1083   1082   1086   2270     1  180.0000771  0.0000000  2
   1084   1082   1086   1088     1  0.0000000  3.3472000  1
   1084   1082   1086   1088     1  0.0000000  0.0000000  2
   1084   1082   1086   1088     1  180.0000771  0.3347200  3
   1084   1082   1086   2270     1  180.0000771  0.0000000  2
   1085   2243   2245   2246     1  0.0000000  0.0000000  2
   1085   2243   2245   2248     1  0.0000000  0.0000000  2
   1086   2270   2272   2273     1  0.0000000  0.0000000  2
   1086   2270   2272   2275     1  0.0000000  0.0000000  2
   1087   1085   2243   2244     1  0.0000000  8.3680000  1
   1087   1085   2243   2244     1  180.0000771  10.4600000  2
   1088   1086   2270   2271     1  0.0000000  8.3680000  1
   1088   1086   2270   2271     1  180.0000771  10.4600000  2
   1091   1094   1114   1115     1  0.0000000  0.0000000  2
   1091   1097   1098   1099     1  0.0000000  1.2552000  3
   1091   1097   1098   1100     1  0.0000000  1.2552000  3
   1091   1097   1101   1102     1  0.0000000  1.2552000  3
   1091   1097   1101   1103     1  0.0000000  1.2552000  3
   1092   1091   1094   1114     1  0.0000000  0.6508444  3
   1092   1091   1094   1095     1  0.0000000  0.6508444  3
   1092   1091   1094   1096     1  0.0000000  0.6508444  3
   1092   1091   1097   1098     1  0.0000000  1.2552000  3
   1092   1091   1097   1101     1  0.0000000  1.2552000  3
   1093   1091   1094   1114     1  0.0000000  0.6508444  3
   1093   1091   1094   1095     1  0.0000000  0.6508444  3
   1093   1091   1094   1096     1  0.0000000  0.6508444  3
   1093   1091   1097   1098     1  0.0000000  1.2552000  3
   1093   1091   1097   1101     1  0.0000000  1.2552000  3
   1095   1094   1091   1097     1  0.0000000  0.6508444  3
   1095   1094   1114   1115     1  0.0000000  0.0000000  2
   1096   1094   1091   1097     1  0.0000000  0.6508444  3
   1096   1094   1114   1115     1  0.0000000  0.0000000  2
   1097   1098   1107   1108     1  0.0000000  0.6508444  3
   1097   1098   1107   1109     1  0.0000000  0.6508444  3
   1097   1101   1104   1105     1  0.0000000  0.6508444  3
   1097   1101   1104   1106     1  0.0000000  0.6508444  3
   1098   1097   1101   1102     1  0.0000000  1.2552000  3
   1098   1097   1101   1103     1  0.0000000  1.2552000  3
   1099   1098   1097   1101     1  0.0000000  1.2552000  3
   1099   1098   1107   1111     1  0.0000000  0.6508444  3
   1099   1098   1107   1108     1  0.0000000  0.6508444  3
   1099   1098   1107   1109     1  0.0000000  0.6508444  3
   1100   1098   1097   1101     1  0.0000000  1.2552000  3
   1100   1098   1107   1111     1  0.0000000  0.6508444  3
   1100   1098   1107   1108     1  0.0000000  0.6508444  3
   1100   1098   1107   1109     1  0.0000000  0.6508444  3
   1102   1101   1104   1110     1  0.0000000  0.6508444  3
   1102   1101   1104   1105     1  0.0000000  0.6508444  3
   1102   1101   1104   1106     1  0.0000000  0.6508444  3
   1103   1101   1104   1110     1  0.0000000  0.6508444  3
   1103   1101   1104   1105     1  0.0000000  0.6508444  3
   1103   1101   1104   1106     1  0.0000000  0.6508444  3
   1104   1110   2297   2298     1  180.0000771  10.4600000  2
   1105   1104   1110   2297     1  180.0000771  0.0000000  2
   1105   1104   1110   1112     1  0.0000000  3.3472000  1
   1105   1104   1110   1112     1  0.0000000  0.0000000  2
   1105   1104   1110   1112     1  180.0000771  0.3347200  3
   1106   1104   1110   2297     1  180.0000771  0.0000000  2
   1106   1104   1110   1112     1  0.0000000  3.3472000  1
   1106   1104   1110   1112     1  0.0000000  0.0000000  2
   1106   1104   1110   1112     1  180.0000771  0.3347200  3
   1107   1111   2324   2325     1  180.0000771  10.4600000  2
   1108   1107   1111   1113     1  0.0000000  3.3472000  1
   1108   1107   1111   1113     1  0.0000000  0.0000000  2
   1108   1107   1111   1113     1  180.0000771  0.3347200  3
   1108   1107   1111   2324     1  180.0000771  0.0000000  2
   1109   1107   1111   1113     1  0.0000000  3.3472000  1
   1109   1107   1111   1113     1  0.0000000  0.0000000  2
   1109   1107   1111   1113     1  180.0000771  0.3347200  3
   1109   1107   1111   2324     1  180.0000771  0.0000000  2
   1110   2297   2299   2300     1  0.0000000  0.0000000  2
   1110   2297   2299   2302     1  0.0000000  0.0000000  2
   1111   2324   2326   2327     1  0.0000000  0.0000000  2
   1111   2324   2326   2329     1  0.0000000  0.0000000  2
   1112   1110   2297   2298     1  0.0000000  8.3680000  1
   1112   1110   2297   2298     1  180.0000771  10.4600000  2
   1113   1111   2324   2325     1  0.0000000  8.3680000  1
   1113   1111   2324   2325     1  180.0000771  10.4600000  2
   1116   1119   1139   1140     1  0.0000000  0.0000000  2
   1116   1122   1123   1124     1  0.0000000  1.2552000  3
   1116   1122   1123   1125     1  0.0000000  1.2552000  3
   1116   1122   1126   1127     1  0.0000000  1.2552000  3
   1116   1122   1126   1128     1  0.0000000  1.2552000  3
   1117   1116   1119   1139     1  0.0000000  0.6508444  3
   1117   1116   1119   1120     1  0.0000000  0.6508444  3
   1117   1116   1119   1121     1  0.0000000  0.6508444  3
   1117   1116   1122   1123     1  0.0000000  1.2552000  3
   1117   1116   1122   1126     1  0.0000000  1.2552000  3
   1118   1116   1119   1139     1  0.0000000  0.6508444  3
   1118   1116   1119   1120     1  0.0000000  0.6508444  3
   1118   1116   1119   1121     1  0.0000000  0.6508444  3
   1118   1116   1122   1123     1  0.0000000  1.2552000  3
   1118   1116   1122   1126     1  0.0000000  1.2552000  3
   1120   1119   1116   1122     1  0.0000000  0.6508444  3
   1120   1119   1139   1140     1  0.0000000  0.0000000  2
   1121   1119   1116   1122     1  0.0000000  0.6508444  3
   1121   1119   1139   1140     1  0.0000000  0.0000000  2
   1122   1123   1132   1133     1  0.0000000  0.6508444  3
   1122   1123   1132   1134     1  0.0000000  0.6508444  3
   1122   1126   1129   1130     1  0.0000000  0.6508444  3
   1122   1126   1129   1131     1  0.0000000  0.6508444  3
   1123   1122   1126   1127     1  0.0000000  1.2552000  3
   1123   1122   1126   1128     1  0.0000000  1.2552000  3
   1124   1123   1122   1126     1  0.0000000  1.2552000  3
   1124   1123   1132   1136     1  0.0000000  0.6508444  3
   1124   1123   1132   1133     1  0.0000000  0.6508444  3
   1124   1123   1132   1134     1  0.0000000  0.6508444  3
   1125   1123   1122   1126     1  0.0000000  1.2552000  3
   1125   1123   1132   1136     1  0.0000000  0.6508444  3
   1125   1123   1132   1133     1  0.0000000  0.6508444  3
   1125   1123   1132   1134     1  0.0000000  0.6508444  3
   1127   1126   1129   1135     1  0.0000000  0.6508444  3
   1127   1126   1129   1130     1  0.0000000  0.6508444  3
   1127   1126   1129   1131     1  0.0000000  0.6508444  3
   1128   1126   1129   1135     1  0.0000000  0.6508444  3
   1128   1126   1129   1130     1  0.0000000  0.6508444  3
   1128   1126   1129   1131     1  0.0000000  0.6508444  3
   1129   1135   2351   2352     1  180.0000771  10.4600000  2
   1130   1129   1135   2351     1  180.0000771  0.0000000  2
   1130   1129   1135   1137     1  0.0000000  3.3472000  1
   1130   1129   1135   1137     1  0.0000000  0.0000000  2
   1130   1129   1135   1137     1  180.0000771  0.3347200  3
   1131   1129   1135   2351     1  180.0000771  0.0000000  2
   1131   1129   1135   1137     1  0.0000000  3.3472000  1
   1131   1129   1135   1137     1  0.0000000  0.0000000  2
   1131   1129   1135   1137     1  180.0000771  0.3347200  3
   1132   1136   2378   2379     1  180.0000771  10.4600000  2
   1133   1132   1136   1138     1  0.0000000  3.3472000  1
   1133   1132   1136   1138     1  0.0000000  0.0000000  2
   1133   1132   1136   1138     1  180.0000771  0.3347200  3
   1133   1132   1136   2378     1  180.0000771  0.0000000  2
   1134   1132   1136   1138     1  0.0000000  3.3472000  1
   1134   1132   1136   1138     1  0.0000000  0.0000000  2
   1134   1132   1136   1138     1  180.0000771  0.3347200  3
   1134   1132   1136   2378     1  180.0000771  0.0000000  2
   1135   2351   2353   2354     1  0.0000000  0.0000000  2
   1135   2351   2353   2356     1  0.0000000  0.0000000  2
   1136   2378   2380   2381     1  0.0000000  0.0000000  2
   1136   2378   2380   2383     1  0.0000000  0.0000000  2
   1137   1135   2351   2352     1  0.0000000  8.3680000  1
   1137   1135   2351   2352     1  180.0000771  10.4600000  2
   1138   1136   2378   2379     1  0.0000000  8.3680000  1
   1138   1136   2378   2379     1  180.0000771  10.4600000  2
   1141   1144   1164   1165     1  0.0000000  0.0000000  2
   1141   1147   1148   1149     1  0.0000000  1.2552000  3
   1141   1147   1148   1150     1  0.0000000  1.2552000  3
   1141   1147   1151   1152     1  0.0000000  1.2552000  3
   1141   1147   1151   1153     1  0.0000000  1.2552000  3
   1142   1141   1144   1164     1  0.0000000  0.6508444  3
   1142   1141   1144   1145     1  0.0000000  0.6508444  3
   1142   1141   1144   1146     1  0.0000000  0.6508444  3
   1142   1141   1147   1148     1  0.0000000  1.2552000  3
   1142   1141   1147   1151     1  0.0000000  1.2552000  3
   1143   1141   1144   1164     1  0.0000000  0.6508444  3
   1143   1141   1144   1145     1  0.0000000  0.6508444  3
   1143   1141   1144   1146     1  0.0000000  0.6508444  3
   1143   1141   1147   1148     1  0.0000000  1.2552000  3
   1143   1141   1147   1151     1  0.0000000  1.2552000  3
   1145   1144   1141   1147     1  0.0000000  0.6508444  3
   1145   1144   1164   1165     1  0.0000000  0.0000000  2
   1146   1144   1141   1147     1  0.0000000  0.6508444  3
   1146   1144   1164   1165     1  0.0000000  0.0000000  2
   1147   1148   1157   1158     1  0.0000000  0.6508444  3
   1147   1148   1157   1159     1  0.0000000  0.6508444  3
   1147   1151   1154   1155     1  0.0000000  0.6508444  3
   1147   1151   1154   1156     1  0.0000000  0.6508444  3
   1148   1147   1151   1152     1  0.0000000  1.2552000  3
   1148   1147   1151   1153     1  0.0000000  1.2552000  3
   1149   1148   1147   1151     1  0.0000000  1.2552000  3
   1149   1148   1157   1161     1  0.0000000  0.6508444  3
   1149   1148   1157   1158     1  0.0000000  0.6508444  3
   1149   1148   1157   1159     1  0.0000000  0.6508444  3
   1150   1148   1147   1151     1  0.0000000  1.2552000  3
   1150   1148   1157   1161     1  0.0000000  0.6508444  3
   1150   1148   1157   1158     1  0.0000000  0.6508444  3
   1150   1148   1157   1159     1  0.0000000  0.6508444  3
   1152   1151   1154   1160     1  0.0000000  0.6508444  3
   1152   1151   1154   1155     1  0.0000000  0.6508444  3
   1152   1151   1154   1156     1  0.0000000  0.6508444  3
   1153   1151   1154   1160     1  0.0000000  0.6508444  3
   1153   1151   1154   1155     1  0.0000000  0.6508444  3
   1153   1151   1154   1156     1  0.0000000  0.6508444  3
   1154   1160   2405   2406     1  180.0000771  10.4600000  2
   1155   1154   1160   2405     1  180.0000771  0.0000000  2
   1155   1154   1160   1162     1  0.0000000  3.3472000  1
   1155   1154   1160   1162     1  0.0000000  0.0000000  2
   1155   1154   1160   1162     1  180.0000771  0.3347200  3
   1156   1154   1160   2405     1  180.0000771  0.0000000  2
   1156   1154   1160   1162     1  0.0000000  3.3472000  1
   1156   1154   1160   1162     1  0.0000000  0.0000000  2
   1156   1154   1160   1162     1  180.0000771  0.3347200  3
   1157   1161   2432   2433     1  180.0000771  10.4600000  2
   1158   1157   1161   1163     1  0.0000000  3.3472000  1
   1158   1157   1161   1163     1  0.0000000  0.0000000  2
   1158   1157   1161   1163     1  180.0000771  0.3347200  3
   1158   1157   1161   2432     1  180.0000771  0.0000000  2
   1159   1157   1161   1163     1  0.0000000  3.3472000  1
   1159   1157   1161   1163     1  0.0000000  0.0000000  2
   1159   1157   1161   1163     1  180.0000771  0.3347200  3
   1159   1157   1161   2432     1  180.0000771  0.0000000  2
   1160   2405   2407   2408     1  0.0000000  0.0000000  2
   1160   2405   2407   2410     1  0.0000000  0.0000000  2
   1161   2432   2434   2435     1  0.0000000  0.0000000  2
   1161   2432   2434   2437     1  0.0000000  0.0000000  2
   1162   1160   2405   2406     1  0.0000000  8.3680000  1
   1162   1160   2405   2406     1  180.0000771  10.4600000  2
   1163   1161   2432   2433     1  0.0000000  8.3680000  1
   1163   1161   2432   2433     1  180.0000771  10.4600000  2
   1166   1169   1189   1190     1  0.0000000  0.0000000  2
   1166   1172   1173   1174     1  0.0000000  1.2552000  3
   1166   1172   1173   1175     1  0.0000000  1.2552000  3
   1166   1172   1176   1177     1  0.0000000  1.2552000  3
   1166   1172   1176   1178     1  0.0000000  1.2552000  3
   1167   1166   1169   1189     1  0.0000000  0.6508444  3
   1167   1166   1169   1170     1  0.0000000  0.6508444  3
   1167   1166   1169   1171     1  0.0000000  0.6508444  3
   1167   1166   1172   1173     1  0.0000000  1.2552000  3
   1167   1166   1172   1176     1  0.0000000  1.2552000  3
   1168   1166   1169   1189     1  0.0000000  0.6508444  3
   1168   1166   1169   1170     1  0.0000000  0.6508444  3
   1168   1166   1169   1171     1  0.0000000  0.6508444  3
   1168   1166   1172   1173     1  0.0000000  1.2552000  3
   1168   1166   1172   1176     1  0.0000000  1.2552000  3
   1170   1169   1166   1172     1  0.0000000  0.6508444  3
   1170   1169   1189   1190     1  0.0000000  0.0000000  2
   1171   1169   1166   1172     1  0.0000000  0.6508444  3
   1171   1169   1189   1190     1  0.0000000  0.0000000  2
   1172   1173   1182   1183     1  0.0000000  0.6508444  3
   1172   1173   1182   1184     1  0.0000000  0.6508444  3
   1172   1176   1179   1180     1  0.0000000  0.6508444  3
   1172   1176   1179   1181     1  0.0000000  0.6508444  3
   1173   1172   1176   1177     1  0.0000000  1.2552000  3
   1173   1172   1176   1178     1  0.0000000  1.2552000  3
   1174   1173   1172   1176     1  0.0000000  1.2552000  3
   1174   1173   1182   1186     1  0.0000000  0.6508444  3
   1174   1173   1182   1183     1  0.0000000  0.6508444  3
   1174   1173   1182   1184     1  0.0000000  0.6508444  3
   1175   1173   1172   1176     1  0.0000000  1.2552000  3
   1175   1173   1182   1186     1  0.0000000  0.6508444  3
   1175   1173   1182   1183     1  0.0000000  0.6508444  3
   1175   1173   1182   1184     1  0.0000000  0.6508444  3
   1177   1176   1179   1185     1  0.0000000  0.6508444  3
   1177   1176   1179   1180     1  0.0000000  0.6508444  3
   1177   1176   1179   1181     1  0.0000000  0.6508444  3
   1178   1176   1179   1185     1  0.0000000  0.6508444  3
   1178   1176   1179   1180     1  0.0000000  0.6508444  3
   1178   1176   1179   1181     1  0.0000000  0.6508444  3
   1179   1185   2459   2460     1  180.0000771  10.4600000  2
   1180   1179   1185   2459     1  180.0000771  0.0000000  2
   1180   1179   1185   1187     1  0.0000000  3.3472000  1
   1180   1179   1185   1187     1  0.0000000  0.0000000  2
   1180   1179   1185   1187     1  180.0000771  0.3347200  3
   1181   1179   1185   2459     1  180.0000771  0.0000000  2
   1181   1179   1185   1187     1  0.0000000  3.3472000  1
   1181   1179   1185   1187     1  0.0000000  0.0000000  2
   1181   1179   1185   1187     1  180.0000771  0.3347200  3
   1182   1186   2486   2487     1  180.0000771  10.4600000  2
   1183   1182   1186   1188     1  0.0000000  3.3472000  1
   1183   1182   1186   1188     1  0.0000000  0.0000000  2
   1183   1182   1186   1188     1  180.0000771  0.3347200  3
   1183   1182   1186   2486     1  180.0000771  0.0000000  2
   1184   1182   1186   1188     1  0.0000000  3.3472000  1
   1184   1182   1186   1188     1  0.0000000  0.0000000  2
   1184   1182   1186   1188     1  180.0000771  0.3347200  3
   1184   1182   1186   2486     1  180.0000771  0.0000000  2
   1185   2459   2461   2462     1  0.0000000  0.0000000  2
   1185   2459   2461   2464     1  0.0000000  0.0000000  2
   1186   2486   2488   2489     1  0.0000000  0.0000000  2
   1186   2486   2488   2491     1  0.0000000  0.0000000  2
   1187   1185   2459   2460     1  0.0000000  8.3680000  1
   1187   1185   2459   2460     1  180.0000771  10.4600000  2
   1188   1186   2486   2487     1  0.0000000  8.3680000  1
   1188   1186   2486   2487     1  180.0000771  10.4600000  2
   1191   1194   1214   1215     1  0.0000000  0.0000000  2
   1191   1197   1198   1199     1  0.0000000  1.2552000  3
   1191   1197   1198   1200     1  0.0000000  1.2552000  3
   1191   1197   1201   1202     1  0.0000000  1.2552000  3
   1191   1197   1201   1203     1  0.0000000  1.2552000  3
   1192   1191   1194   1214     1  0.0000000  0.6508444  3
   1192   1191   1194   1195     1  0.0000000  0.6508444  3
   1192   1191   1194   1196     1  0.0000000  0.6508444  3
   1192   1191   1197   1198     1  0.0000000  1.2552000  3
   1192   1191   1197   1201     1  0.0000000  1.2552000  3
   1193   1191   1194   1214     1  0.0000000  0.6508444  3
   1193   1191   1194   1195     1  0.0000000  0.6508444  3
   1193   1191   1194   1196     1  0.0000000  0.6508444  3
   1193   1191   1197   1198     1  0.0000000  1.2552000  3
   1193   1191   1197   1201     1  0.0000000  1.2552000  3
   1195   1194   1191   1197     1  0.0000000  0.6508444  3
   1195   1194   1214   1215     1  0.0000000  0.0000000  2
   1196   1194   1191   1197     1  0.0000000  0.6508444  3
   1196   1194   1214   1215     1  0.0000000  0.0000000  2
   1197   1198   1207   1208     1  0.0000000  0.6508444  3
   1197   1198   1207   1209     1  0.0000000  0.6508444  3
   1197   1201   1204   1205     1  0.0000000  0.6508444  3
   1197   1201   1204   1206     1  0.0000000  0.6508444  3
   1198   1197   1201   1202     1  0.0000000  1.2552000  3
   1198   1197   1201   1203     1  0.0000000  1.2552000  3
   1199   1198   1197   1201     1  0.0000000  1.2552000  3
   1199   1198   1207   1211     1  0.0000000  0.6508444  3
   1199   1198   1207   1208     1  0.0000000  0.6508444  3
   1199   1198   1207   1209     1  0.0000000  0.6508444  3
   1200   1198   1197   1201     1  0.0000000  1.2552000  3
   1200   1198   1207   1211     1  0.0000000  0.6508444  3
   1200   1198   1207   1208     1  0.0000000  0.6508444  3
   1200   1198   1207   1209     1  0.0000000  0.6508444  3
   1202   1201   1204   1210     1  0.0000000  0.6508444  3
   1202   1201   1204   1205     1  0.0000000  0.6508444  3
   1202   1201   1204   1206     1  0.0000000  0.6508444  3
   1203   1201   1204   1210     1  0.0000000  0.6508444  3
   1203   1201   1204   1205     1  0.0000000  0.6508444  3
   1203   1201   1204   1206     1  0.0000000  0.6508444  3
   1204   1210   2513   2514     1  180.0000771  10.4600000  2
   1205   1204   1210   2513     1  180.0000771  0.0000000  2
   1205   1204   1210   1212     1  0.0000000  3.3472000  1
   1205   1204   1210   1212     1  0.0000000  0.0000000  2
   1205   1204   1210   1212     1  180.0000771  0.3347200  3
   1206   1204   1210   2513     1  180.0000771  0.0000000  2
   1206   1204   1210   1212     1  0.0000000  3.3472000  1
   1206   1204   1210   1212     1  0.0000000  0.0000000  2
   1206   1204   1210   1212     1  180.0000771  0.3347200  3
   1207   1211   2540   2541     1  180.0000771  10.4600000  2
   1208   1207   1211   1213     1  0.0000000  3.3472000  1
   1208   1207   1211   1213     1  0.0000000  0.0000000  2
   1208   1207   1211   1213     1  180.0000771  0.3347200  3
   1208   1207   1211   2540     1  180.0000771  0.0000000  2
   1209   1207   1211   1213     1  0.0000000  3.3472000  1
   1209   1207   1211   1213     1  0.0000000  0.0000000  2
   1209   1207   1211   1213     1  180.0000771  0.3347200  3
   1209   1207   1211   2540     1  180.0000771  0.0000000  2
   1210   2513   2515   2516     1  0.0000000  0.0000000  2
   1210   2513   2515   2518     1  0.0000000  0.0000000  2
   1211   2540   2542   2543     1  0.0000000  0.0000000  2
   1211   2540   2542   2545     1  0.0000000  0.0000000  2
   1212   1210   2513   2514     1  0.0000000  8.3680000  1
   1212   1210   2513   2514     1  180.0000771  10.4600000  2
   1213   1211   2540   2541     1  0.0000000  8.3680000  1
   1213   1211   2540   2541     1  180.0000771  10.4600000  2
   1216   1219   1239   1240     1  0.0000000  0.0000000  2
   1216   1222   1223   1224     1  0.0000000  1.2552000  3
   1216   1222   1223   1225     1  0.0000000  1.2552000  3
   1216   1222   1226   1227     1  0.0000000  1.2552000  3
   1216   1222   1226   1228     1  0.0000000  1.2552000  3
   1217   1216   1219   1239     1  0.0000000  0.6508444  3
   1217   1216   1219   1220     1  0.0000000  0.6508444  3
   1217   1216   1219   1221     1  0.0000000  0.6508444  3
   1217   1216   1222   1223     1  0.0000000  1.2552000  3
   1217   1216   1222   1226     1  0.0000000  1.2552000  3
   1218   1216   1219   1239     1  0.0000000  0.6508444  3
   1218   1216   1219   1220     1  0.0000000  0.6508444  3
   1218   1216   1219   1221     1  0.0000000  0.6508444  3
   1218   1216   1222   1223     1  0.0000000  1.2552000  3
   1218   1216   1222   1226     1  0.0000000  1.2552000  3
   1220   1219   1216   1222     1  0.0000000  0.6508444  3
   1220   1219   1239   1240     1  0.0000000  0.0000000  2
   1221   1219   1216   1222     1  0.0000000  0.6508444  3
   1221   1219   1239   1240     1  0.0000000  0.0000000  2
   1222   1223   1232   1233     1  0.0000000  0.6508444  3
   1222   1223   1232   1234     1  0.0000000  0.6508444  3
   1222   1226   1229   1230     1  0.0000000  0.6508444  3
   1222   1226   1229   1231     1  0.0000000  0.6508444  3
   1223   1222   1226   1227     1  0.0000000  1.2552000  3
   1223   1222   1226   1228     1  0.0000000  1.2552000  3
   1224   1223   1222   1226     1  0.0000000  1.2552000  3
   1224   1223   1232   1236     1  0.0000000  0.6508444  3
   1224   1223   1232   1233     1  0.0000000  0.6508444  3
   1224   1223   1232   1234     1  0.0000000  0.6508444  3
   1225   1223   1222   1226     1  0.0000000  1.2552000  3
   1225   1223   1232   1236     1  0.0000000  0.6508444  3
   1225   1223   1232   1233     1  0.0000000  0.6508444  3
   1225   1223   1232   1234     1  0.0000000  0.6508444  3
   1227   1226   1229   1235     1  0.0000000  0.6508444  3
   1227   1226   1229   1230     1  0.0000000  0.6508444  3
   1227   1226   1229   1231     1  0.0000000  0.6508444  3
   1228   1226   1229   1235     1  0.0000000  0.6508444  3
   1228   1226   1229   1230     1  0.0000000  0.6508444  3
   1228   1226   1229   1231     1  0.0000000  0.6508444  3
   1229   1235   2567   2568     1  180.0000771  10.4600000  2
   1230   1229   1235   2567     1  180.0000771  0.0000000  2
   1230   1229   1235   1237     1  0.0000000  3.3472000  1
   1230   1229   1235   1237     1  0.0000000  0.0000000  2
   1230   1229   1235   1237     1  180.0000771  0.3347200  3
   1231   1229   1235   2567     1  180.0000771  0.0000000  2
   1231   1229   1235   1237     1  0.0000000  3.3472000  1
   1231   1229   1235   1237     1  0.0000000  0.0000000  2
   1231   1229   1235   1237     1  180.0000771  0.3347200  3
   1232   1236   2594   2595     1  180.0000771  10.4600000  2
   1233   1232   1236   1238     1  0.0000000  3.3472000  1
   1233   1232   1236   1238     1  0.0000000  0.0000000  2
   1233   1232   1236   1238     1  180.0000771  0.3347200  3
   1233   1232   1236   2594     1  180.0000771  0.0000000  2
   1234   1232   1236   1238     1  0.0000000  3.3472000  1
   1234   1232   1236   1238     1  0.0000000  0.0000000  2
   1234   1232   1236   1238     1  180.0000771  0.3347200  3
   1234   1232   1236   2594     1  180.0000771  0.0000000  2
   1235   2567   2569   2570     1  0.0000000  0.0000000  2
   1235   2567   2569   2572     1  0.0000000  0.0000000  2
   1236   2594   2596   2597     1  0.0000000  0.0000000  2
   1236   2594   2596   2599     1  0.0000000  0.0000000  2
   1237   1235   2567   2568     1  0.0000000  8.3680000  1
   1237   1235   2567   2568     1  180.0000771  10.4600000  2
   1238   1236   2594   2595     1  0.0000000  8.3680000  1
   1238   1236   2594   2595     1  180.0000771  10.4600000  2
   1241   1244   1264   1265     1  0.0000000  0.0000000  2
   1241   1247   1248   1249     1  0.0000000  1.2552000  3
   1241   1247   1248   1250     1  0.0000000  1.2552000  3
   1241   1247   1251   1252     1  0.0000000  1.2552000  3
   1241   1247   1251   1253     1  0.0000000  1.2552000  3
   1242   1241   1244   1264     1  0.0000000  0.6508444  3
   1242   1241   1244   1245     1  0.0000000  0.6508444  3
   1242   1241   1244   1246     1  0.0000000  0.6508444  3
   1242   1241   1247   1248     1  0.0000000  1.2552000  3
   1242   1241   1247   1251     1  0.0000000  1.2552000  3
   1243   1241   1244   1264     1  0.0000000  0.6508444  3
   1243   1241   1244   1245     1  0.0000000  0.6508444  3
   1243   1241   1244   1246     1  0.0000000  0.6508444  3
   1243   1241   1247   1248     1  0.0000000  1.2552000  3
   1243   1241   1247   1251     1  0.0000000  1.2552000  3
   1245   1244   1241   1247     1  0.0000000  0.6508444  3
   1245   1244   1264   1265     1  0.0000000  0.0000000  2
   1246   1244   1241   1247     1  0.0000000  0.6508444  3
   1246   1244   1264   1265     1  0.0000000  0.0000000  2
   1247   1248   1257   1258     1  0.0000000  0.6508444  3
   1247   1248   1257   1259     1  0.0000000  0.6508444  3
   1247   1251   1254   1255     1  0.0000000  0.6508444  3
   1247   1251   1254   1256     1  0.0000000  0.6508444  3
   1248   1247   1251   1252     1  0.0000000  1.2552000  3
   1248   1247   1251   1253     1  0.0000000  1.2552000  3
   1249   1248   1247   1251     1  0.0000000  1.2552000  3
   1249   1248   1257   1261     1  0.0000000  0.6508444  3
   1249   1248   1257   1258     1  0.0000000  0.6508444  3
   1249   1248   1257   1259     1  0.0000000  0.6508444  3
   1250   1248   1247   1251     1  0.0000000  1.2552000  3
   1250   1248   1257   1261     1  0.0000000  0.6508444  3
   1250   1248   1257   1258     1  0.0000000  0.6508444  3
   1250   1248   1257   1259     1  0.0000000  0.6508444  3
   1252   1251   1254   1260     1  0.0000000  0.6508444  3
   1252   1251   1254   1255     1  0.0000000  0.6508444  3
   1252   1251   1254   1256     1  0.0000000  0.6508444  3
   1253   1251   1254   1260     1  0.0000000  0.6508444  3
   1253   1251   1254   1255     1  0.0000000  0.6508444  3
   1253   1251   1254   1256     1  0.0000000  0.6508444  3
   1254   1260   2621   2622     1  180.0000771  10.4600000  2
   1255   1254   1260   2621     1  180.0000771  0.0000000  2
   1255   1254   1260   1262     1  0.0000000  3.3472000  1
   1255   1254   1260   1262     1  0.0000000  0.0000000  2
   1255   1254   1260   1262     1  180.0000771  0.3347200  3
   1256   1254   1260   2621     1  180.0000771  0.0000000  2
   1256   1254   1260   1262     1  0.0000000  3.3472000  1
   1256   1254   1260   1262     1  0.0000000  0.0000000  2
   1256   1254   1260   1262     1  180.0000771  0.3347200  3
   1257   1261   2648   2649     1  180.0000771  10.4600000  2
   1258   1257   1261   1263     1  0.0000000  3.3472000  1
   1258   1257   1261   1263     1  0.0000000  0.0000000  2
   1258   1257   1261   1263     1  180.0000771  0.3347200  3
   1258   1257   1261   2648     1  180.0000771  0.0000000  2
   1259   1257   1261   1263     1  0.0000000  3.3472000  1
   1259   1257   1261   1263     1  0.0000000  0.0000000  2
   1259   1257   1261   1263     1  180.0000771  0.3347200  3
   1259   1257   1261   2648     1  180.0000771  0.0000000  2
   1260   2621   2623   2624     1  0.0000000  0.0000000  2
   1260   2621   2623   2626     1  0.0000000  0.0000000  2
   1261   2648   2650   2651     1  0.0000000  0.0000000  2
   1261   2648   2650   2653     1  0.0000000  0.0000000  2
   1262   1260   2621   2622     1  0.0000000  8.3680000  1
   1262   1260   2621   2622     1  180.0000771  10.4600000  2
   1263   1261   2648   2649     1  0.0000000  8.3680000  1
   1263   1261   2648   2649     1  180.0000771  10.4600000  2
   1266   1269   1289   1290     1  0.0000000  0.0000000  2
   1266   1272   1273   1274     1  0.0000000  1.2552000  3
   1266   1272   1273   1275     1  0.0000000  1.2552000  3
   1266   1272   1276   1277     1  0.0000000  1.2552000  3
   1266   1272   1276   1278     1  0.0000000  1.2552000  3
   1267   1266   1269   1289     1  0.0000000  0.6508444  3
   1267   1266   1269   1270     1  0.0000000  0.6508444  3
   1267   1266   1269   1271     1  0.0000000  0.6508444  3
   1267   1266   1272   1273     1  0.0000000  1.2552000  3
   1267   1266   1272   1276     1  0.0000000  1.2552000  3
   1268   1266   1269   1289     1  0.0000000  0.6508444  3
   1268   1266   1269   1270     1  0.0000000  0.6508444  3
   1268   1266   1269   1271     1  0.0000000  0.6508444  3
   1268   1266   1272   1273     1  0.0000000  1.2552000  3
   1268   1266   1272   1276     1  0.0000000  1.2552000  3
   1270   1269   1266   1272     1  0.0000000  0.6508444  3
   1270   1269   1289   1290     1  0.0000000  0.0000000  2
   1271   1269   1266   1272     1  0.0000000  0.6508444  3
   1271   1269   1289   1290     1  0.0000000  0.0000000  2
   1272   1273   1282   1283     1  0.0000000  0.6508444  3
   1272   1273   1282   1284     1  0.0000000  0.6508444  3
   1272   1276   1279   1280     1  0.0000000  0.6508444  3
   1272   1276   1279   1281     1  0.0000000  0.6508444  3
   1273   1272   1276   1277     1  0.0000000  1.2552000  3
   1273   1272   1276   1278     1  0.0000000  1.2552000  3
   1274   1273   1272   1276     1  0.0000000  1.2552000  3
   1274   1273   1282   1286     1  0.0000000  0.6508444  3
   1274   1273   1282   1283     1  0.0000000  0.6508444  3
   1274   1273   1282   1284     1  0.0000000  0.6508444  3
   1275   1273   1272   1276     1  0.0000000  1.2552000  3
   1275   1273   1282   1286     1  0.0000000  0.6508444  3
   1275   1273   1282   1283     1  0.0000000  0.6508444  3
   1275   1273   1282   1284     1  0.0000000  0.6508444  3
   1277   1276   1279   1285     1  0.0000000  0.6508444  3
   1277   1276   1279   1280     1  0.0000000  0.6508444  3
   1277   1276   1279   1281     1  0.0000000  0.6508444  3
   1278   1276   1279   1285     1  0.0000000  0.6508444  3
   1278   1276   1279   1280     1  0.0000000  0.6508444  3
   1278   1276   1279   1281     1  0.0000000  0.6508444  3
   1279   1285   2675   2676     1  180.0000771  10.4600000  2
   1280   1279   1285   2675     1  180.0000771  0.0000000  2
   1280   1279   1285   1287     1  0.0000000  3.3472000  1
   1280   1279   1285   1287     1  0.0000000  0.0000000  2
   1280   1279   1285   1287     1  180.0000771  0.3347200  3
   1281   1279   1285   2675     1  180.0000771  0.0000000  2
   1281   1279   1285   1287     1  0.0000000  3.3472000  1
   1281   1279   1285   1287     1  0.0000000  0.0000000  2
   1281   1279   1285   1287     1  180.0000771  0.3347200  3
   1282   1286   2702   2703     1  180.0000771  10.4600000  2
   1283   1282   1286   1288     1  0.0000000  3.3472000  1
   1283   1282   1286   1288     1  0.0000000  0.0000000  2
   1283   1282   1286   1288     1  180.0000771  0.3347200  3
   1283   1282   1286   2702     1  180.0000771  0.0000000  2
   1284   1282   1286   1288     1  0.0000000  3.3472000  1
   1284   1282   1286   1288     1  0.0000000  0.0000000  2
   1284   1282   1286   1288     1  180.0000771  0.3347200  3
   1284   1282   1286   2702     1  180.0000771  0.0000000  2
   1285   2675   2677   2678     1  0.0000000  0.0000000  2
   1285   2675   2677   2680     1  0.0000000  0.0000000  2
   1286   2702   2704   2705     1  0.0000000  0.0000000  2
   1286   2702   2704   2707     1  0.0000000  0.0000000  2
   1287   1285   2675   2676     1  0.0000000  8.3680000  1
   1287   1285   2675   2676     1  180.0000771  10.4600000  2
   1288   1286   2702   2703     1  0.0000000  8.3680000  1
   1288   1286   2702   2703     1  180.0000771  10.4600000  2
   1291   1294   1314   1315     1  0.0000000  0.0000000  2
   1291   1297   1298   1299     1  0.0000000  1.2552000  3
   1291   1297   1298   1300     1  0.0000000  1.2552000  3
   1291   1297   1301   1302     1  0.0000000  1.2552000  3
   1291   1297   1301   1303     1  0.0000000  1.2552000  3
   1292   1291   1294   1314     1  0.0000000  0.6508444  3
   1292   1291   1294   1295     1  0.0000000  0.6508444  3
   1292   1291   1294   1296     1  0.0000000  0.6508444  3
   1292   1291   1297   1298     1  0.0000000  1.2552000  3
   1292   1291   1297   1301     1  0.0000000  1.2552000  3
   1293   1291   1294   1314     1  0.0000000  0.6508444  3
   1293   1291   1294   1295     1  0.0000000  0.6508444  3
   1293   1291   1294   1296     1  0.0000000  0.6508444  3
   1293   1291   1297   1298     1  0.0000000  1.2552000  3
   1293   1291   1297   1301     1  0.0000000  1.2552000  3
   1295   1294   1291   1297     1  0.0000000  0.6508444  3
   1295   1294   1314   1315     1  0.0000000  0.0000000  2
   1296   1294   1291   1297     1  0.0000000  0.6508444  3
   1296   1294   1314   1315     1  0.0000000  0.0000000  2
   1297   1298   1307   1308     1  0.0000000  0.6508444  3
   1297   1298   1307   1309     1  0.0000000  0.6508444  3
   1297   1301   1304   1305     1  0.0000000  0.6508444  3
   1297   1301   1304   1306     1  0.0000000  0.6508444  3
   1298   1297   1301   1302     1  0.0000000  1.2552000  3
   1298   1297   1301   1303     1  0.0000000  1.2552000  3
   1299   1298   1297   1301     1  0.0000000  1.2552000  3
   1299   1298   1307   1311     1  0.0000000  0.6508444  3
   1299   1298   1307   1308     1  0.0000000  0.6508444  3
   1299   1298   1307   1309     1  0.0000000  0.6508444  3
   1300   1298   1297   1301     1  0.0000000  1.2552000  3
   1300   1298   1307   1311     1  0.0000000  0.6508444  3
   1300   1298   1307   1308     1  0.0000000  0.6508444  3
   1300   1298   1307   1309     1  0.0000000  0.6508444  3
   1302   1301   1304   1310     1  0.0000000  0.6508444  3
   1302   1301   1304   1305     1  0.0000000  0.6508444  3
   1302   1301   1304   1306     1  0.0000000  0.6508444  3
   1303   1301   1304   1310     1  0.0000000  0.6508444  3
   1303   1301   1304   1305     1  0.0000000  0.6508444  3
   1303   1301   1304   1306     1  0.0000000  0.6508444  3
   1304   1310   2729   2730     1  180.0000771  10.4600000  2
   1305   1304   1310   2729     1  180.0000771  0.0000000  2
   1305   1304   1310   1312     1  0.0000000  3.3472000  1
   1305   1304   1310   1312     1  0.0000000  0.0000000  2
   1305   1304   1310   1312     1  180.0000771  0.3347200  3
   1306   1304   1310   2729     1  180.0000771  0.0000000  2
   1306   1304   1310   1312     1  0.0000000  3.3472000  1
   1306   1304   1310   1312     1  0.0000000  0.0000000  2
   1306   1304   1310   1312     1  180.0000771  0.3347200  3
   1307   1311   2756   2757     1  180.0000771  10.4600000  2
   1308   1307   1311   1313     1  0.0000000  3.3472000  1
   1308   1307   1311   1313     1  0.0000000  0.0000000  2
   1308   1307   1311   1313     1  180.0000771  0.3347200  3
   1308   1307   1311   2756     1  180.0000771  0.0000000  2
   1309   1307   1311   1313     1  0.0000000  3.3472000  1
   1309   1307   1311   1313     1  0.0000000  0.0000000  2
   1309   1307   1311   1313     1  180.0000771  0.3347200  3
   1309   1307   1311   2756     1  180.0000771  0.0000000  2
   1310   2729   2731   2732     1  0.0000000  0.0000000  2
   1310   2729   2731   2734     1  0.0000000  0.0000000  2
   1311   2756   2758   2759     1  0.0000000  0.0000000  2
   1311   2756   2758   2761     1  0.0000000  0.0000000  2
   1312   1310   2729   2730     1  0.0000000  8.3680000  1
   1312   1310   2729   2730     1  180.0000771  10.4600000  2
   1313   1311   2756   2757     1  0.0000000  8.3680000  1
   1313   1311   2756   2757     1  180.0000771  10.4600000  2
   1316   1319   1339   1340     1  0.0000000  0.0000000  2
   1316   1322   1323   1324     1  0.0000000  1.2552000  3
   1316   1322   1323   1325     1  0.0000000  1.2552000  3
   1316   1322   1326   1327     1  0.0000000  1.2552000  3
   1316   1322   1326   1328     1  0.0000000  1.2552000  3
   1317   1316   1319   1339     1  0.0000000  0.6508444  3
   1317   1316   1319   1320     1  0.0000000  0.6508444  3
   1317   1316   1319   1321     1  0.0000000  0.6508444  3
   1317   1316   1322   1323     1  0.0000000  1.2552000  3
   1317   1316   1322   1326     1  0.0000000  1.2552000  3
   1318   1316   1319   1339     1  0.0000000  0.6508444  3
   1318   1316   1319   1320     1  0.0000000  0.6508444  3
   1318   1316   1319   1321     1  0.0000000  0.6508444  3
   1318   1316   1322   1323     1  0.0000000  1.2552000  3
   1318   1316   1322   1326     1  0.0000000  1.2552000  3
   1320   1319   1316   1322     1  0.0000000  0.6508444  3
   1320   1319   1339   1340     1  0.0000000  0.0000000  2
   1321   1319   1316   1322     1  0.0000000  0.6508444  3
   1321   1319   1339   1340     1  0.0000000  0.0000000  2
   1322   1323   1332   1333     1  0.0000000  0.6508444  3
   1322   1323   1332   1334     1  0.0000000  0.6508444  3
   1322   1326   1329   1330     1  0.0000000  0.6508444  3
   1322   1326   1329   1331     1  0.0000000  0.6508444  3
   1323   1322   1326   1327     1  0.0000000  1.2552000  3
   1323   1322   1326   1328     1  0.0000000  1.2552000  3
   1324   1323   1322   1326     1  0.0000000  1.2552000  3
   1324   1323   1332   1336     1  0.0000000  0.6508444  3
   1324   1323   1332   1333     1  0.0000000  0.6508444  3
   1324   1323   1332   1334     1  0.0000000  0.6508444  3
   1325   1323   1322   1326     1  0.0000000  1.2552000  3
   1325   1323   1332   1336     1  0.0000000  0.6508444  3
   1325   1323   1332   1333     1  0.0000000  0.6508444  3
   1325   1323   1332   1334     1  0.0000000  0.6508444  3
   1327   1326   1329   1335     1  0.0000000  0.6508444  3
   1327   1326   1329   1330     1  0.0000000  0.6508444  3
   1327   1326   1329   1331     1  0.0000000  0.6508444  3
   1328   1326   1329   1335     1  0.0000000  0.6508444  3
   1328   1326   1329   1330     1  0.0000000  0.6508444  3
   1328   1326   1329   1331     1  0.0000000  0.6508444  3
   1329   1335   2783   2784     1  180.0000771  10.4600000  2
   1330   1329   1335   2783     1  180.0000771  0.0000000  2
   1330   1329   1335   1337     1  0.0000000  3.3472000  1
   1330   1329   1335   1337     1  0.0000000  0.0000000  2
   1330   1329   1335   1337     1  180.0000771  0.3347200  3
   1331   1329   1335   2783     1  180.0000771  0.0000000  2
   1331   1329   1335   1337     1  0.0000000  3.3472000  1
   1331   1329   1335   1337     1  0.0000000  0.0000000  2
   1331   1329   1335   1337     1  180.0000771  0.3347200  3
   1332   1336   2810   2811     1  180.0000771  10.4600000  2
   1333   1332   1336   1338     1  0.0000000  3.3472000  1
   1333   1332   1336   1338     1  0.0000000  0.0000000  2
   1333   1332   1336   1338     1  180.0000771  0.3347200  3
   1333   1332   1336   2810     1  180.0000771  0.0000000  2
   1334   1332   1336   1338     1  0.0000000  3.3472000  1
   1334   1332   1336   1338     1  0.0000000  0.0000000  2
   1334   1332   1336   1338     1  180.0000771  0.3347200  3
   1334   1332   1336   2810     1  180.0000771  0.0000000  2
   1335   2783   2785   2786     1  0.0000000  0.0000000  2
   1335   2783   2785   2788     1  0.0000000  0.0000000  2
   1336   2810   2812   2813     1  0.0000000  0.0000000  2
   1336   2810   2812   2815     1  0.0000000  0.0000000  2
   1337   1335   2783   2784     1  0.0000000  8.3680000  1
   1337   1335   2783   2784     1  180.0000771  10.4600000  2
   1338   1336   2810   2811     1  0.0000000  8.3680000  1
   1338   1336   2810   2811     1  180.0000771  10.4600000  2
   1341   1344   1364   1365     1  0.0000000  0.0000000  2
   1341   1347   1348   1349     1  0.0000000  1.2552000  3
   1341   1347   1348   1350     1  0.0000000  1.2552000  3
   1341   1347   1351   1352     1  0.0000000  1.2552000  3
   1341   1347   1351   1353     1  0.0000000  1.2552000  3
   1342   1341   1344   1364     1  0.0000000  0.6508444  3
   1342   1341   1344   1345     1  0.0000000  0.6508444  3
   1342   1341   1344   1346     1  0.0000000  0.6508444  3
   1342   1341   1347   1348     1  0.0000000  1.2552000  3
   1342   1341   1347   1351     1  0.0000000  1.2552000  3
   1343   1341   1344   1364     1  0.0000000  0.6508444  3
   1343   1341   1344   1345     1  0.0000000  0.6508444  3
   1343   1341   1344   1346     1  0.0000000  0.6508444  3
   1343   1341   1347   1348     1  0.0000000  1.2552000  3
   1343   1341   1347   1351     1  0.0000000  1.2552000  3
   1345   1344   1341   1347     1  0.0000000  0.6508444  3
   1345   1344   1364   1365     1  0.0000000  0.0000000  2
   1346   1344   1341   1347     1  0.0000000  0.6508444  3
   1346   1344   1364   1365     1  0.0000000  0.0000000  2
   1347   1348   1357   1358     1  0.0000000  0.6508444  3
   1347   1348   1357   1359     1  0.0000000  0.6508444  3
   1347   1351   1354   1355     1  0.0000000  0.6508444  3
   1347   1351   1354   1356     1  0.0000000  0.6508444  3
   1348   1347   1351   1352     1  0.0000000  1.2552000  3
   1348   1347   1351   1353     1  0.0000000  1.2552000  3
   1349   1348   1347   1351     1  0.0000000  1.2552000  3
   1349   1348   1357   1361     1  0.0000000  0.6508444  3
   1349   1348   1357   1358     1  0.0000000  0.6508444  3
   1349   1348   1357   1359     1  0.0000000  0.6508444  3
   1350   1348   1347   1351     1  0.0000000  1.2552000  3
   1350   1348   1357   1361     1  0.0000000  0.6508444  3
   1350   1348   1357   1358     1  0.0000000  0.6508444  3
   1350   1348   1357   1359     1  0.0000000  0.6508444  3
   1352   1351   1354   1360     1  0.0000000  0.6508444  3
   1352   1351   1354   1355     1  0.0000000  0.6508444  3
   1352   1351   1354   1356     1  0.0000000  0.6508444  3
   1353   1351   1354   1360     1  0.0000000  0.6508444  3
   1353   1351   1354   1355     1  0.0000000  0.6508444  3
   1353   1351   1354   1356     1  0.0000000  0.6508444  3
   1354   1360   2837   2838     1  180.0000771  10.4600000  2
   1355   1354   1360   2837     1  180.0000771  0.0000000  2
   1355   1354   1360   1362     1  0.0000000  3.3472000  1
   1355   1354   1360   1362     1  0.0000000  0.0000000  2
   1355   1354   1360   1362     1  180.0000771  0.3347200  3
   1356   1354   1360   2837     1  180.0000771  0.0000000  2
   1356   1354   1360   1362     1  0.0000000  3.3472000  1
   1356   1354   1360   1362     1  0.0000000  0.0000000  2
   1356   1354   1360   1362     1  180.0000771  0.3347200  3
   1357   1361   2864   2865     1  180.0000771  10.4600000  2
   1358   1357   1361   1363     1  0.0000000  3.3472000  1
   1358   1357   1361   1363     1  0.0000000  0.0000000  2
   1358   1357   1361   1363     1  180.0000771  0.3347200  3
   1358   1357   1361   2864     1  180.0000771  0.0000000  2
   1359   1357   1361   1363     1  0.0000000  3.3472000  1
   1359   1357   1361   1363     1  0.0000000  0.0000000  2
   1359   1357   1361   1363     1  180.0000771  0.3347200  3
   1359   1357   1361   2864     1  180.0000771  0.0000000  2
   1360   2837   2839   2840     1  0.0000000  0.0000000  2
   1360   2837   2839   2842     1  0.0000000  0.0000000  2
   1361   2864   2866   2867     1  0.0000000  0.0000000  2
   1361   2864   2866   2869     1  0.0000000  0.0000000  2
   1362   1360   2837   2838     1  0.0000000  8.3680000  1
   1362   1360   2837   2838     1  180.0000771  10.4600000  2
   1363   1361   2864   2865     1  0.0000000  8.3680000  1
   1363   1361   2864   2865     1  180.0000771  10.4600000  2
   1366   1369   1389   1390     1  0.0000000  0.0000000  2
   1366   1372   1373   1374     1  0.0000000  1.2552000  3
   1366   1372   1373   1375     1  0.0000000  1.2552000  3
   1366   1372   1376   1377     1  0.0000000  1.2552000  3
   1366   1372   1376   1378     1  0.0000000  1.2552000  3
   1367   1366   1369   1389     1  0.0000000  0.6508444  3
   1367   1366   1369   1370     1  0.0000000  0.6508444  3
   1367   1366   1369   1371     1  0.0000000  0.6508444  3
   1367   1366   1372   1373     1  0.0000000  1.2552000  3
   1367   1366   1372   1376     1  0.0000000  1.2552000  3
   1368   1366   1369   1389     1  0.0000000  0.6508444  3
   1368   1366   1369   1370     1  0.0000000  0.6508444  3
   1368   1366   1369   1371     1  0.0000000  0.6508444  3
   1368   1366   1372   1373     1  0.0000000  1.2552000  3
   1368   1366   1372   1376     1  0.0000000  1.2552000  3
   1370   1369   1366   1372     1  0.0000000  0.6508444  3
   1370   1369   1389   1390     1  0.0000000  0.0000000  2
   1371   1369   1366   1372     1  0.0000000  0.6508444  3
   1371   1369   1389   1390     1  0.0000000  0.0000000  2
   1372   1373   1382   1383     1  0.0000000  0.6508444  3
   1372   1373   1382   1384     1  0.0000000  0.6508444  3
   1372   1376   1379   1380     1  0.0000000  0.6508444  3
   1372   1376   1379   1381     1  0.0000000  0.6508444  3
   1373   1372   1376   1377     1  0.0000000  1.2552000  3
   1373   1372   1376   1378     1  0.0000000  1.2552000  3
   1374   1373   1372   1376     1  0.0000000  1.2552000  3
   1374   1373   1382   1386     1  0.0000000  0.6508444  3
   1374   1373   1382   1383     1  0.0000000  0.6508444  3
   1374   1373   1382   1384     1  0.0000000  0.6508444  3
   1375   1373   1372   1376     1  0.0000000  1.2552000  3
   1375   1373   1382   1386     1  0.0000000  0.6508444  3
   1375   1373   1382   1383     1  0.0000000  0.6508444  3
   1375   1373   1382   1384     1  0.0000000  0.6508444  3
   1377   1376   1379   1385     1  0.0000000  0.6508444  3
   1377   1376   1379   1380     1  0.0000000  0.6508444  3
   1377   1376   1379   1381     1  0.0000000  0.6508444  3
   1378   1376   1379   1385     1  0.0000000  0.6508444  3
   1378   1376   1379   1380     1  0.0000000  0.6508444  3
   1378   1376   1379   1381     1  0.0000000  0.6508444  3
   1379   1385   2891   2892     1  180.0000771  10.4600000  2
   1380   1379   1385   2891     1  180.0000771  0.0000000  2
   1380   1379   1385   1387     1  0.0000000  3.3472000  1
   1380   1379   1385   1387     1  0.0000000  0.0000000  2
   1380   1379   1385   1387     1  180.0000771  0.3347200  3
   1381   1379   1385   2891     1  180.0000771  0.0000000  2
   1381   1379   1385   1387     1  0.0000000  3.3472000  1
   1381   1379   1385   1387     1  0.0000000  0.0000000  2
   1381   1379   1385   1387     1  180.0000771  0.3347200  3
   1382   1386   2918   2919     1  180.0000771  10.4600000  2
   1383   1382   1386   1388     1  0.0000000  3.3472000  1
   1383   1382   1386   1388     1  0.0000000  0.0000000  2
   1383   1382   1386   1388     1  180.0000771  0.3347200  3
   1383   1382   1386   2918     1  180.0000771  0.0000000  2
   1384   1382   1386   1388     1  0.0000000  3.3472000  1
   1384   1382   1386   1388     1  0.0000000  0.0000000  2
   1384   1382   1386   1388     1  180.0000771  0.3347200  3
   1384   1382   1386   2918     1  180.0000771  0.0000000  2
   1385   2891   2893   2894     1  0.0000000  0.0000000  2
   1385   2891   2893   2896     1  0.0000000  0.0000000  2
   1386   2918   2920   2921     1  0.0000000  0.0000000  2
   1386   2918   2920   2923     1  0.0000000  0.0000000  2
   1387   1385   2891   2892     1  0.0000000  8.3680000  1
   1387   1385   2891   2892     1  180.0000771  10.4600000  2
   1388   1386   2918   2919     1  0.0000000  8.3680000  1
   1388   1386   2918   2919     1  180.0000771  10.4600000  2
   1391   1394   1414   1415     1  0.0000000  0.0000000  2
   1391   1397   1398   1399     1  0.0000000  1.2552000  3
   1391   1397   1398   1400     1  0.0000000  1.2552000  3
   1391   1397   1401   1402     1  0.0000000  1.2552000  3
   1391   1397   1401   1403     1  0.0000000  1.2552000  3
   1392   1391   1394   1414     1  0.0000000  0.6508444  3
   1392   1391   1394   1395     1  0.0000000  0.6508444  3
   1392   1391   1394   1396     1  0.0000000  0.6508444  3
   1392   1391   1397   1398     1  0.0000000  1.2552000  3
   1392   1391   1397   1401     1  0.0000000  1.2552000  3
   1393   1391   1394   1414     1  0.0000000  0.6508444  3
   1393   1391   1394   1395     1  0.0000000  0.6508444  3
   1393   1391   1394   1396     1  0.0000000  0.6508444  3
   1393   1391   1397   1398     1  0.0000000  1.2552000  3
   1393   1391   1397   1401     1  0.0000000  1.2552000  3
   1395   1394   1391   1397     1  0.0000000  0.6508444  3
   1395   1394   1414   1415     1  0.0000000  0.0000000  2
   1396   1394   1391   1397     1  0.0000000  0.6508444  3
   1396   1394   1414   1415     1  0.0000000  0.0000000  2
   1397   1398   1407   1408     1  0.0000000  0.6508444  3
   1397   1398   1407   1409     1  0.0000000  0.6508444  3
   1397   1401   1404   1405     1  0.0000000  0.6508444  3
   1397   1401   1404   1406     1  0.0000000  0.6508444  3
   1398   1397   1401   1402     1  0.0000000  1.2552000  3
   1398   1397   1401   1403     1  0.0000000  1.2552000  3
   1399   1398   1397   1401     1  0.0000000  1.2552000  3
   1399   1398   1407   1411     1  0.0000000  0.6508444  3
   1399   1398   1407   1408     1  0.0000000  0.6508444  3
   1399   1398   1407   1409     1  0.0000000  0.6508444  3
   1400   1398   1397   1401     1  0.0000000  1.2552000  3
   1400   1398   1407   1411     1  0.0000000  0.6508444  3
   1400   1398   1407   1408     1  0.0000000  0.6508444  3
   1400   1398   1407   1409     1  0.0000000  0.6508444  3
   1402   1401   1404   1410     1  0.0000000  0.6508444  3
   1402   1401   1404   1405     1  0.0000000  0.6508444  3
   1402   1401   1404   1406     1  0.0000000  0.6508444  3
   1403   1401   1404   1410     1  0.0000000  0.6508444  3
   1403   1401   1404   1405     1  0.0000000  0.6508444  3
   1403   1401   1404   1406     1  0.0000000  0.6508444  3
   1404   1410   2945   2946     1  180.0000771  10.4600000  2
   1405   1404   1410   2945     1  180.0000771  0.0000000  2
   1405   1404   1410   1412     1  0.0000000  3.3472000  1
   1405   1404   1410   1412     1  0.0000000  0.0000000  2
   1405   1404   1410   1412     1  180.0000771  0.3347200  3
   1406   1404   1410   2945     1  180.0000771  0.0000000  2
   1406   1404   1410   1412     1  0.0000000  3.3472000  1
   1406   1404   1410   1412     1  0.0000000  0.0000000  2
   1406   1404   1410   1412     1  180.0000771  0.3347200  3
   1407   1411   2972   2973     1  180.0000771  10.4600000  2
   1408   1407   1411   1413     1  0.0000000  3.3472000  1
   1408   1407   1411   1413     1  0.0000000  0.0000000  2
   1408   1407   1411   1413     1  180.0000771  0.3347200  3
   1408   1407   1411   2972     1  180.0000771  0.0000000  2
   1409   1407   1411   1413     1  0.0000000  3.3472000  1
   1409   1407   1411   1413     1  0.0000000  0.0000000  2
   1409   1407   1411   1413     1  180.0000771  0.3347200  3
   1409   1407   1411   2972     1  180.0000771  0.0000000  2
   1410   2945   2947   2948     1  0.0000000  0.0000000  2
   1410   2945   2947   2950     1  0.0000000  0.0000000  2
   1411   2972   2974   2975     1  0.0000000  0.0000000  2
   1411   2972   2974   2977     1  0.0000000  0.0000000  2
   1412   1410   2945   2946     1  0.0000000  8.3680000  1
   1412   1410   2945   2946     1  180.0000771  10.4600000  2
   1413   1411   2972   2973     1  0.0000000  8.3680000  1
   1413   1411   2972   2973     1  180.0000771  10.4600000  2
   1416   1419   1439   1440     1  0.0000000  0.0000000  2
   1416   1422   1423   1424     1  0.0000000  1.2552000  3
   1416   1422   1423   1425     1  0.0000000  1.2552000  3
   1416   1422   1426   1427     1  0.0000000  1.2552000  3
   1416   1422   1426   1428     1  0.0000000  1.2552000  3
   1417   1416   1419   1439     1  0.0000000  0.6508444  3
   1417   1416   1419   1420     1  0.0000000  0.6508444  3
   1417   1416   1419   1421     1  0.0000000  0.6508444  3
   1417   1416   1422   1423     1  0.0000000  1.2552000  3
   1417   1416   1422   1426     1  0.0000000  1.2552000  3
   1418   1416   1419   1439     1  0.0000000  0.6508444  3
   1418   1416   1419   1420     1  0.0000000  0.6508444  3
   1418   1416   1419   1421     1  0.0000000  0.6508444  3
   1418   1416   1422   1423     1  0.0000000  1.2552000  3
   1418   1416   1422   1426     1  0.0000000  1.2552000  3
   1420   1419   1416   1422     1  0.0000000  0.6508444  3
   1420   1419   1439   1440     1  0.0000000  0.0000000  2
   1421   1419   1416   1422     1  0.0000000  0.6508444  3
   1421   1419   1439   1440     1  0.0000000  0.0000000  2
   1422   1423   1432   1433     1  0.0000000  0.6508444  3
   1422   1423   1432   1434     1  0.0000000  0.6508444  3
   1422   1426   1429   1430     1  0.0000000  0.6508444  3
   1422   1426   1429   1431     1  0.0000000  0.6508444  3
   1423   1422   1426   1427     1  0.0000000  1.2552000  3
   1423   1422   1426   1428     1  0.0000000  1.2552000  3
   1424   1423   1422   1426     1  0.0000000  1.2552000  3
   1424   1423   1432   1436     1  0.0000000  0.6508444  3
   1424   1423   1432   1433     1  0.0000000  0.6508444  3
   1424   1423   1432   1434     1  0.0000000  0.6508444  3
   1425   1423   1422   1426     1  0.0000000  1.2552000  3
   1425   1423   1432   1436     1  0.0000000  0.6508444  3
   1425   1423   1432   1433     1  0.0000000  0.6508444  3
   1425   1423   1432   1434     1  0.0000000  0.6508444  3
   1427   1426   1429   1435     1  0.0000000  0.6508444  3
   1427   1426   1429   1430     1  0.0000000  0.6508444  3
   1427   1426   1429   1431     1  0.0000000  0.6508444  3
   1428   1426   1429   1435     1  0.0000000  0.6508444  3
   1428   1426   1429   1430     1  0.0000000  0.6508444  3
   1428   1426   1429   1431     1  0.0000000  0.6508444  3
   1429   1435   2999   3000     1  180.0000771  10.4600000  2
   1430   1429   1435   2999     1  180.0000771  0.0000000  2
   1430   1429   1435   1437     1  0.0000000  3.3472000  1
   1430   1429   1435   1437     1  0.0000000  0.0000000  2
   1430   1429   1435   1437     1  180.0000771  0.3347200  3
   1431   1429   1435   2999     1  180.0000771  0.0000000  2
   1431   1429   1435   1437     1  0.0000000  3.3472000  1
   1431   1429   1435   1437     1  0.0000000  0.0000000  2
   1431   1429   1435   1437     1  180.0000771  0.3347200  3
   1432   1436   3026   3027     1  180.0000771  10.4600000  2
   1433   1432   1436   1438     1  0.0000000  3.3472000  1
   1433   1432   1436   1438     1  0.0000000  0.0000000  2
   1433   1432   1436   1438     1  180.0000771  0.3347200  3
   1433   1432   1436   3026     1  180.0000771  0.0000000  2
   1434   1432   1436   1438     1  0.0000000  3.3472000  1
   1434   1432   1436   1438     1  0.0000000  0.0000000  2
   1434   1432   1436   1438     1  180.0000771  0.3347200  3
   1434   1432   1436   3026     1  180.0000771  0.0000000  2
   1435   2999   3001   3002     1  0.0000000  0.0000000  2
   1435   2999   3001   3004     1  0.0000000  0.0000000  2
   1436   3026   3028   3029     1  0.0000000  0.0000000  2
   1436   3026   3028   3031     1  0.0000000  0.0000000  2
   1437   1435   2999   3000     1  0.0000000  8.3680000  1
   1437   1435   2999   3000     1  180.0000771  10.4600000  2
   1438   1436   3026   3027     1  0.0000000  8.3680000  1
   1438   1436   3026   3027     1  180.0000771  10.4600000  2
   1441   1444   1464   1465     1  0.0000000  0.0000000  2
   1441   1447   1448   1449     1  0.0000000  1.2552000  3
   1441   1447   1448   1450     1  0.0000000  1.2552000  3
   1441   1447   1451   1452     1  0.0000000  1.2552000  3
   1441   1447   1451   1453     1  0.0000000  1.2552000  3
   1442   1441   1444   1464     1  0.0000000  0.6508444  3
   1442   1441   1444   1445     1  0.0000000  0.6508444  3
   1442   1441   1444   1446     1  0.0000000  0.6508444  3
   1442   1441   1447   1448     1  0.0000000  1.2552000  3
   1442   1441   1447   1451     1  0.0000000  1.2552000  3
   1443   1441   1444   1464     1  0.0000000  0.6508444  3
   1443   1441   1444   1445     1  0.0000000  0.6508444  3
   1443   1441   1444   1446     1  0.0000000  0.6508444  3
   1443   1441   1447   1448     1  0.0000000  1.2552000  3
   1443   1441   1447   1451     1  0.0000000  1.2552000  3
   1445   1444   1441   1447     1  0.0000000  0.6508444  3
   1445   1444   1464   1465     1  0.0000000  0.0000000  2
   1446   1444   1441   1447     1  0.0000000  0.6508444  3
   1446   1444   1464   1465     1  0.0000000  0.0000000  2
   1447   1448   1457   1458     1  0.0000000  0.6508444  3
   1447   1448   1457   1459     1  0.0000000  0.6508444  3
   1447   1451   1454   1455     1  0.0000000  0.6508444  3
   1447   1451   1454   1456     1  0.0000000  0.6508444  3
   1448   1447   1451   1452     1  0.0000000  1.2552000  3
   1448   1447   1451   1453     1  0.0000000  1.2552000  3
   1449   1448   1447   1451     1  0.0000000  1.2552000  3
   1449   1448   1457   1461     1  0.0000000  0.6508444  3
   1449   1448   1457   1458     1  0.0000000  0.6508444  3
   1449   1448   1457   1459     1  0.0000000  0.6508444  3
   1450   1448   1447   1451     1  0.0000000  1.2552000  3
   1450   1448   1457   1461     1  0.0000000  0.6508444  3
   1450   1448   1457   1458     1  0.0000000  0.6508444  3
   1450   1448   1457   1459     1  0.0000000  0.6508444  3
   1452   1451   1454   1460     1  0.0000000  0.6508444  3
   1452   1451   1454   1455     1  0.0000000  0.6508444  3
   1452   1451   1454   1456     1  0.0000000  0.6508444  3
   1453   1451   1454   1460     1  0.0000000  0.6508444  3
   1453   1451   1454   1455     1  0.0000000  0.6508444  3
   1453   1451   1454   1456     1  0.0000000  0.6508444  3
   1454   1460   3053   3054     1  180.0000771  10.4600000  2
   1455   1454   1460   3053     1  180.0000771  0.0000000  2
   1455   1454   1460   1462     1  0.0000000  3.3472000  1
   1455   1454   1460   1462     1  0.0000000  0.0000000  2
   1455   1454   1460   1462     1  180.0000771  0.3347200  3
   1456   1454   1460   3053     1  180.0000771  0.0000000  2
   1456   1454   1460   1462     1  0.0000000  3.3472000  1
   1456   1454   1460   1462     1  0.0000000  0.0000000  2
   1456   1454   1460   1462     1  180.0000771  0.3347200  3
   1457   1461   3080   3081     1  180.0000771  10.4600000  2
   1458   1457   1461   1463     1  0.0000000  3.3472000  1
   1458   1457   1461   1463     1  0.0000000  0.0000000  2
   1458   1457   1461   1463     1  180.0000771  0.3347200  3
   1458   1457   1461   3080     1  180.0000771  0.0000000  2
   1459   1457   1461   1463     1  0.0000000  3.3472000  1
   1459   1457   1461   1463     1  0.0000000  0.0000000  2
   1459   1457   1461   1463     1  180.0000771  0.3347200  3
   1459   1457   1461   3080     1  180.0000771  0.0000000  2
   1460   3053   3055   3056     1  0.0000000  0.0000000  2
   1460   3053   3055   3058     1  0.0000000  0.0000000  2
   1461   3080   3082   3083     1  0.0000000  0.0000000  2
   1461   3080   3082   3085     1  0.0000000  0.0000000  2
   1462   1460   3053   3054     1  0.0000000  8.3680000  1
   1462   1460   3053   3054     1  180.0000771  10.4600000  2
   1463   1461   3080   3081     1  0.0000000  8.3680000  1
   1463   1461   3080   3081     1  180.0000771  10.4600000  2
   1466   1469   1489   1490     1  0.0000000  0.0000000  2
   1466   1472   1473   1474     1  0.0000000  1.2552000  3
   1466   1472   1473   1475     1  0.0000000  1.2552000  3
   1466   1472   1476   1477     1  0.0000000  1.2552000  3
   1466   1472   1476   1478     1  0.0000000  1.2552000  3
   1467   1466   1469   1489     1  0.0000000  0.6508444  3
   1467   1466   1469   1470     1  0.0000000  0.6508444  3
   1467   1466   1469   1471     1  0.0000000  0.6508444  3
   1467   1466   1472   1473     1  0.0000000  1.2552000  3
   1467   1466   1472   1476     1  0.0000000  1.2552000  3
   1468   1466   1469   1489     1  0.0000000  0.6508444  3
   1468   1466   1469   1470     1  0.0000000  0.6508444  3
   1468   1466   1469   1471     1  0.0000000  0.6508444  3
   1468   1466   1472   1473     1  0.0000000  1.2552000  3
   1468   1466   1472   1476     1  0.0000000  1.2552000  3
   1470   1469   1466   1472     1  0.0000000  0.6508444  3
   1470   1469   1489   1490     1  0.0000000  0.0000000  2
   1471   1469   1466   1472     1  0.0000000  0.6508444  3
   1471   1469   1489   1490     1  0.0000000  0.0000000  2
   1472   1473   1482   1483     1  0.0000000  0.6508444  3
   1472   1473   1482   1484     1  0.0000000  0.6508444  3
   1472   1476   1479   1480     1  0.0000000  0.6508444  3
   1472   1476   1479   1481     1  0.0000000  0.6508444  3
   1473   1472   1476   1477     1  0.0000000  1.2552000  3
   1473   1472   1476   1478     1  0.0000000  1.2552000  3
   1474   1473   1472   1476     1  0.0000000  1.2552000  3
   1474   1473   1482   1486     1  0.0000000  0.6508444  3
   1474   1473   1482   1483     1  0.0000000  0.6508444  3
   1474   1473   1482   1484     1  0.0000000  0.6508444  3
   1475   1473   1472   1476     1  0.0000000  1.2552000  3
   1475   1473   1482   1486     1  0.0000000  0.6508444  3
   1475   1473   1482   1483     1  0.0000000  0.6508444  3
   1475   1473   1482   1484     1  0.0000000  0.6508444  3
   1477   1476   1479   1485     1  0.0000000  0.6508444  3
   1477   1476   1479   1480     1  0.0000000  0.6508444  3
   1477   1476   1479   1481     1  0.0000000  0.6508444  3
   1478   1476   1479   1485     1  0.0000000  0.6508444  3
   1478   1476   1479   1480     1  0.0000000  0.6508444  3
   1478   1476   1479   1481     1  0.0000000  0.6508444  3
   1479   1485   3107   3108     1  180.0000771  10.4600000  2
   1480   1479   1485   3107     1  180.0000771  0.0000000  2
   1480   1479   1485   1487     1  0.0000000  3.3472000  1
   1480   1479   1485   1487     1  0.0000000  0.0000000  2
   1480   1479   1485   1487     1  180.0000771  0.3347200  3
   1481   1479   1485   3107     1  180.0000771  0.0000000  2
   1481   1479   1485   1487     1  0.0000000  3.3472000  1
   1481   1479   1485   1487     1  0.0000000  0.0000000  2
   1481   1479   1485   1487     1  180.0000771  0.3347200  3
   1482   1486   3134   3135     1  180.0000771  10.4600000  2
   1483   1482   1486   1488     1  0.0000000  3.3472000  1
   1483   1482   1486   1488     1  0.0000000  0.0000000  2
   1483   1482   1486   1488     1  180.0000771  0.3347200  3
   1483   1482   1486   3134     1  180.0000771  0.0000000  2
   1484   1482   1486   1488     1  0.0000000  3.3472000  1
   1484   1482   1486   1488     1  0.0000000  0.0000000  2
   1484   1482   1486   1488     1  180.0000771  0.3347200  3
   1484   1482   1486   3134     1  180.0000771  0.0000000  2
   1485   3107   3109   3110     1  0.0000000  0.0000000  2
   1485   3107   3109   3112     1  0.0000000  0.0000000  2
   1486   3134   3136   3137     1  0.0000000  0.0000000  2
   1486   3134   3136   3139     1  0.0000000  0.0000000  2
   1487   1485   3107   3108     1  0.0000000  8.3680000  1
   1487   1485   3107   3108     1  180.0000771  10.4600000  2
   1488   1486   3134   3135     1  0.0000000  8.3680000  1
   1488   1486   3134   3135     1  180.0000771  10.4600000  2
   1491   1494   1514   1515     1  0.0000000  0.0000000  2
   1491   1497   1498   1499     1  0.0000000  1.2552000  3
   1491   1497   1498   1500     1  0.0000000  1.2552000  3
   1491   1497   1501   1502     1  0.0000000  1.2552000  3
   1491   1497   1501   1503     1  0.0000000  1.2552000  3
   1492   1491   1494   1514     1  0.0000000  0.6508444  3
   1492   1491   1494   1495     1  0.0000000  0.6508444  3
   1492   1491   1494   1496     1  0.0000000  0.6508444  3
   1492   1491   1497   1498     1  0.0000000  1.2552000  3
   1492   1491   1497   1501     1  0.0000000  1.2552000  3
   1493   1491   1494   1514     1  0.0000000  0.6508444  3
   1493   1491   1494   1495     1  0.0000000  0.6508444  3
   1493   1491   1494   1496     1  0.0000000  0.6508444  3
   1493   1491   1497   1498     1  0.0000000  1.2552000  3
   1493   1491   1497   1501     1  0.0000000  1.2552000  3
   1495   1494   1491   1497     1  0.0000000  0.6508444  3
   1495   1494   1514   1515     1  0.0000000  0.0000000  2
   1496   1494   1491   1497     1  0.0000000  0.6508444  3
   1496   1494   1514   1515     1  0.0000000  0.0000000  2
   1497   1498   1507   1508     1  0.0000000  0.6508444  3
   1497   1498   1507   1509     1  0.0000000  0.6508444  3
   1497   1501   1504   1505     1  0.0000000  0.6508444  3
   1497   1501   1504   1506     1  0.0000000  0.6508444  3
   1498   1497   1501   1502     1  0.0000000  1.2552000  3
   1498   1497   1501   1503     1  0.0000000  1.2552000  3
   1499   1498   1497   1501     1  0.0000000  1.2552000  3
   1499   1498   1507   1511     1  0.0000000  0.6508444  3
   1499   1498   1507   1508     1  0.0000000  0.6508444  3
   1499   1498   1507   1509     1  0.0000000  0.6508444  3
   1500   1498   1497   1501     1  0.0000000  1.2552000  3
   1500   1498   1507   1511     1  0.0000000  0.6508444  3
   1500   1498   1507   1508     1  0.0000000  0.6508444  3
   1500   1498   1507   1509     1  0.0000000  0.6508444  3
   1502   1501   1504   1510     1  0.0000000  0.6508444  3
   1502   1501   1504   1505     1  0.0000000  0.6508444  3
   1502   1501   1504   1506     1  0.0000000  0.6508444  3
   1503   1501   1504   1510     1  0.0000000  0.6508444  3
   1503   1501   1504   1505     1  0.0000000  0.6508444  3
   1503   1501   1504   1506     1  0.0000000  0.6508444  3
   1504   1510   3161   3162     1  180.0000771  10.4600000  2
   1505   1504   1510   3161     1  180.0000771  0.0000000  2
   1505   1504   1510   1512     1  0.0000000  3.3472000  1
   1505   1504   1510   1512     1  0.0000000  0.0000000  2
   1505   1504   1510   1512     1  180.0000771  0.3347200  3
   1506   1504   1510   3161     1  180.0000771  0.0000000  2
   1506   1504   1510   1512     1  0.0000000  3.3472000  1
   1506   1504   1510   1512     1  0.0000000  0.0000000  2
   1506   1504   1510   1512     1  180.0000771  0.3347200  3
   1507   1511   3188   3189     1  180.0000771  10.4600000  2
   1508   1507   1511   1513     1  0.0000000  3.3472000  1
   1508   1507   1511   1513     1  0.0000000  0.0000000  2
   1508   1507   1511   1513     1  180.0000771  0.3347200  3
   1508   1507   1511   3188     1  180.0000771  0.0000000  2
   1509   1507   1511   1513     1  0.0000000  3.3472000  1
   1509   1507   1511   1513     1  0.0000000  0.0000000  2
   1509   1507   1511   1513     1  180.0000771  0.3347200  3
   1509   1507   1511   3188     1  180.0000771  0.0000000  2
   1510   3161   3163   3164     1  0.0000000  0.0000000  2
   1510   3161   3163   3166     1  0.0000000  0.0000000  2
   1511   3188   3190   3191     1  0.0000000  0.0000000  2
   1511   3188   3190   3193     1  0.0000000  0.0000000  2
   1512   1510   3161   3162     1  0.0000000  8.3680000  1
   1512   1510   3161   3162     1  180.0000771  10.4600000  2
   1513   1511   3188   3189     1  0.0000000  8.3680000  1
   1513   1511   3188   3189     1  180.0000771  10.4600000  2
   1516   1519   1539   1540     1  0.0000000  0.0000000  2
   1516   1522   1523   1524     1  0.0000000  1.2552000  3
   1516   1522   1523   1525     1  0.0000000  1.2552000  3
   1516   1522   1526   1527     1  0.0000000  1.2552000  3
   1516   1522   1526   1528     1  0.0000000  1.2552000  3
   1517   1516   1519   1539     1  0.0000000  0.6508444  3
   1517   1516   1519   1520     1  0.0000000  0.6508444  3
   1517   1516   1519   1521     1  0.0000000  0.6508444  3
   1517   1516   1522   1523     1  0.0000000  1.2552000  3
   1517   1516   1522   1526     1  0.0000000  1.2552000  3
   1518   1516   1519   1539     1  0.0000000  0.6508444  3
   1518   1516   1519   1520     1  0.0000000  0.6508444  3
   1518   1516   1519   1521     1  0.0000000  0.6508444  3
   1518   1516   1522   1523     1  0.0000000  1.2552000  3
   1518   1516   1522   1526     1  0.0000000  1.2552000  3
   1520   1519   1516   1522     1  0.0000000  0.6508444  3
   1520   1519   1539   1540     1  0.0000000  0.0000000  2
   1521   1519   1516   1522     1  0.0000000  0.6508444  3
   1521   1519   1539   1540     1  0.0000000  0.0000000  2
   1522   1523   1532   1533     1  0.0000000  0.6508444  3
   1522   1523   1532   1534     1  0.0000000  0.6508444  3
   1522   1526   1529   1530     1  0.0000000  0.6508444  3
   1522   1526   1529   1531     1  0.0000000  0.6508444  3
   1523   1522   1526   1527     1  0.0000000  1.2552000  3
   1523   1522   1526   1528     1  0.0000000  1.2552000  3
   1524   1523   1522   1526     1  0.0000000  1.2552000  3
   1524   1523   1532   1536     1  0.0000000  0.6508444  3
   1524   1523   1532   1533     1  0.0000000  0.6508444  3
   1524   1523   1532   1534     1  0.0000000  0.6508444  3
   1525   1523   1522   1526     1  0.0000000  1.2552000  3
   1525   1523   1532   1536     1  0.0000000  0.6508444  3
   1525   1523   1532   1533     1  0.0000000  0.6508444  3
   1525   1523   1532   1534     1  0.0000000  0.6508444  3
   1527   1526   1529   1535     1  0.0000000  0.6508444  3
   1527   1526   1529   1530     1  0.0000000  0.6508444  3
   1527   1526   1529   1531     1  0.0000000  0.6508444  3
   1528   1526   1529   1535     1  0.0000000  0.6508444  3
   1528   1526   1529   1530     1  0.0000000  0.6508444  3
   1528   1526   1529   1531     1  0.0000000  0.6508444  3
   1529   1535   3215   3216     1  180.0000771  10.4600000  2
   1530   1529   1535   3215     1  180.0000771  0.0000000  2
   1530   1529   1535   1537     1  0.0000000  3.3472000  1
   1530   1529   1535   1537     1  0.0000000  0.0000000  2
   1530   1529   1535   1537     1  180.0000771  0.3347200  3
   1531   1529   1535   3215     1  180.0000771  0.0000000  2
   1531   1529   1535   1537     1  0.0000000  3.3472000  1
   1531   1529   1535   1537     1  0.0000000  0.0000000  2
   1531   1529   1535   1537     1  180.0000771  0.3347200  3
   1532   1536   3242   3243     1  180.0000771  10.4600000  2
   1533   1532   1536   3242     1  180.0000771  0.0000000  2
   1533   1532   1536   1538     1  0.0000000  3.3472000  1
   1533   1532   1536   1538     1  0.0000000  0.0000000  2
   1533   1532   1536   1538     1  180.0000771  0.3347200  3
   1534   1532   1536   3242     1  180.0000771  0.0000000  2
   1534   1532   1536   1538     1  0.0000000  3.3472000  1
   1534   1532   1536   1538     1  0.0000000  0.0000000  2
   1534   1532   1536   1538     1  180.0000771  0.3347200  3
   1535   3215   3217   3218     1  0.0000000  0.0000000  2
   1535   3215   3217   3220     1  0.0000000  0.0000000  2
   1536   3242   3244   3245     1  0.0000000  0.0000000  2
   1536   3242   3244   3247     1  0.0000000  0.0000000  2
   1537   1535   3215   3216     1  0.0000000  8.3680000  1
   1537   1535   3215   3216     1  180.0000771  10.4600000  2
   1538   1536   3242   3243     1  0.0000000  8.3680000  1
   1538   1536   3242   3243     1  180.0000771  10.4600000  2
   1541   1543   1545   1547     1  0.0000000  0.6508444  3
   1541   1543   1545   1548     1  0.0000000  0.6508444  3
   1542   1541   1543   1545     1  0.0000000  0.0000000  2
   1542   1541   1543   1544     1  0.0000000  0.0000000  2
   1542   1541   1543   1546     1  0.0000000  0.0000000  2
   1544   1543   1545   1549     1  0.0000000  0.6508444  3
   1544   1543   1545   1547     1  0.0000000  0.6508444  3
   1544   1543   1545   1548     1  0.0000000  0.6508444  3
   1545   1549   1550   1560     1  0.0000000  1.2552000  3
   1545   1549   1550   1561     1  0.0000000  1.2552000  3
   1545   1549   1551   1552     1  0.0000000  1.2552000  3
   1545   1549   1551   1554     1  0.0000000  1.2552000  3
   1546   1543   1545   1549     1  0.0000000  0.6508444  3
   1546   1543   1545   1547     1  0.0000000  0.6508444  3
   1546   1543   1545   1548     1  0.0000000  0.6508444  3
   1547   1545   1549   1550     1  0.0000000  1.2552000  3
   1547   1545   1549   1551     1  0.0000000  1.2552000  3
   1548   1545   1549   1550     1  0.0000000  1.2552000  3
   1548   1545   1549   1551     1  0.0000000  1.2552000  3
   1549   1550   1562   1563     1  0.0000000  0.6508444  3
   1549   1550   1562   1564     1  0.0000000  0.6508444  3
   1549   1551   1553   1555     1  0.0000000  0.6508444  3
   1549   1551   1553   1556     1  0.0000000  0.6508444  3
   1550   1549   1551   1552     1  0.0000000  1.2552000  3
   1550   1549   1551   1554     1  0.0000000  1.2552000  3
   1551   1549   1550   1560     1  0.0000000  1.2552000  3
   1551   1549   1550   1561     1  0.0000000  1.2552000  3
   1552   1551   1553   1557     1  0.0000000  0.6508444  3
   1552   1551   1553   1555     1  0.0000000  0.6508444  3
   1552   1551   1553   1556     1  0.0000000  0.6508444  3
   1554   1551   1553   1557     1  0.0000000  0.6508444  3
   1554   1551   1553   1555     1  0.0000000  0.6508444  3
   1554   1551   1553   1556     1  0.0000000  0.6508444  3
   1555   1553   1557   1558     1  0.0000000  3.3472000  1
   1555   1553   1557   1558     1  0.0000000  0.0000000  2
   1555   1553   1557   1558     1  180.0000771  0.3347200  3
   1555   1553   1557   1559     1  0.0000000  3.3472000  1
   1555   1553   1557   1559     1  0.0000000  0.0000000  2
   1555   1553   1557   1559     1  180.0000771  0.3347200  3
   1556   1553   1557   1558     1  0.0000000  3.3472000  1
   1556   1553   1557   1558     1  0.0000000  0.0000000  2
   1556   1553   1557   1558     1  180.0000771  0.3347200  3
   1556   1553   1557   1559     1  0.0000000  3.3472000  1
   1556   1553   1557   1559     1  0.0000000  0.0000000  2
   1556   1553   1557   1559     1  180.0000771  0.3347200  3
   1560   1550   1562   1565     1  0.0000000  0.6508444  3
   1560   1550   1562   1563     1  0.0000000  0.6508444  3
   1560   1550   1562   1564     1  0.0000000  0.6508444  3
   1561   1550   1562   1565     1  0.0000000  0.6508444  3
   1561   1550   1562   1563     1  0.0000000  0.6508444  3
   1561   1550   1562   1564     1  0.0000000  0.6508444  3
   1563   1562   1565   1566     1  0.0000000  3.3472000  1
   1563   1562   1565   1566     1  0.0000000  0.0000000  2
   1563   1562   1565   1566     1  180.0000771  0.3347200  3
   1563   1562   1565   1567     1  0.0000000  3.3472000  1
   1563   1562   1565   1567     1  0.0000000  0.0000000  2
   1563   1562   1565   1567     1  180.0000771  0.3347200  3
   1564   1562   1565   1566     1  0.0000000  3.3472000  1
   1564   1562   1565   1566     1  0.0000000  0.0000000  2
   1564   1562   1565   1566     1  180.0000771  0.3347200  3
   1564   1562   1565   1567     1  0.0000000  3.3472000  1
   1564   1562   1565   1567     1  0.0000000  0.0000000  2
   1564   1562   1565   1567     1  180.0000771  0.3347200  3
   1568   1570   1572   1574     1  0.0000000  0.6508444  3
   1568   1570   1572   1575     1  0.0000000  0.6508444  3
   1569   1568   1570   1572     1  0.0000000  0.0000000  2
   1569   1568   1570   1571     1  0.0000000  0.0000000  2
   1569   1568   1570   1573     1  0.0000000  0.0000000  2
   1571   1570   1572   1576     1  0.0000000  0.6508444  3
   1571   1570   1572   1574     1  0.0000000  0.6508444  3
   1571   1570   1572   1575     1  0.0000000  0.6508444  3
   1572   1576   1577   1587     1  0.0000000  1.2552000  3
   1572   1576   1577   1588     1  0.0000000  1.2552000  3
   1572   1576   1578   1579     1  0.0000000  1.2552000  3
   1572   1576   1578   1581     1  0.0000000  1.2552000  3
   1573   1570   1572   1576     1  0.0000000  0.6508444  3
   1573   1570   1572   1574     1  0.0000000  0.6508444  3
   1573   1570   1572   1575     1  0.0000000  0.6508444  3
   1574   1572   1576   1577     1  0.0000000  1.2552000  3
   1574   1572   1576   1578     1  0.0000000  1.2552000  3
   1575   1572   1576   1577     1  0.0000000  1.2552000  3
   1575   1572   1576   1578     1  0.0000000  1.2552000  3
   1576   1577   1589   1590     1  0.0000000  0.6508444  3
   1576   1577   1589   1591     1  0.0000000  0.6508444  3
   1576   1578   1580   1582     1  0.0000000  0.6508444  3
   1576   1578   1580   1583     1  0.0000000  0.6508444  3
   1577   1576   1578   1579     1  0.0000000  1.2552000  3
   1577   1576   1578   1581     1  0.0000000  1.2552000  3
   1578   1576   1577   1587     1  0.0000000  1.2552000  3
   1578   1576   1577   1588     1  0.0000000  1.2552000  3
   1579   1578   1580   1584     1  0.0000000  0.6508444  3
   1579   1578   1580   1582     1  0.0000000  0.6508444  3
   1579   1578   1580   1583     1  0.0000000  0.6508444  3
   1581   1578   1580   1584     1  0.0000000  0.6508444  3
   1581   1578   1580   1582     1  0.0000000  0.6508444  3
   1581   1578   1580   1583     1  0.0000000  0.6508444  3
   1582   1580   1584   1585     1  0.0000000  3.3472000  1
   1582   1580   1584   1585     1  0.0000000  0.0000000  2
   1582   1580   1584   1585     1  180.0000771  0.3347200  3
   1582   1580   1584   1586     1  0.0000000  3.3472000  1
   1582   1580   1584   1586     1  0.0000000  0.0000000  2
   1582   1580   1584   1586     1  180.0000771  0.3347200  3
   1583   1580   1584   1585     1  0.0000000  3.3472000  1
   1583   1580   1584   1585     1  0.0000000  0.0000000  2
   1583   1580   1584   1585     1  180.0000771  0.3347200  3
   1583   1580   1584   1586     1  0.0000000  3.3472000  1
   1583   1580   1584   1586     1  0.0000000  0.0000000  2
   1583   1580   1584   1586     1  180.0000771  0.3347200  3
   1587   1577   1589   1592     1  0.0000000  0.6508444  3
   1587   1577   1589   1590     1  0.0000000  0.6508444  3
   1587   1577   1589   1591     1  0.0000000  0.6508444  3
   1588   1577   1589   1592     1  0.0000000  0.6508444  3
   1588   1577   1589   1590     1  0.0000000  0.6508444  3
   1588   1577   1589   1591     1  0.0000000  0.6508444  3
   1590   1589   1592   1593     1  0.0000000  3.3472000  1
   1590   1589   1592   1593     1  0.0000000  0.0000000  2
   1590   1589   1592   1593     1  180.0000771  0.3347200  3
   1590   1589   1592   1594     1  0.0000000  3.3472000  1
   1590   1589   1592   1594     1  0.0000000  0.0000000  2
   1590   1589   1592   1594     1  180.0000771  0.3347200  3
   1591   1589   1592   1593     1  0.0000000  3.3472000  1
   1591   1589   1592   1593     1  0.0000000  0.0000000  2
   1591   1589   1592   1593     1  180.0000771  0.3347200  3
   1591   1589   1592   1594     1  0.0000000  3.3472000  1
   1591   1589   1592   1594     1  0.0000000  0.0000000  2
   1591   1589   1592   1594     1  180.0000771  0.3347200  3
   1595   1597   1599   1601     1  0.0000000  0.6508444  3
   1595   1597   1599   1602     1  0.0000000  0.6508444  3
   1596   1595   1597   1599     1  0.0000000  0.0000000  2
   1596   1595   1597   1598     1  0.0000000  0.0000000  2
   1596   1595   1597   1600     1  0.0000000  0.0000000  2
   1598   1597   1599   1603     1  0.0000000  0.6508444  3
   1598   1597   1599   1601     1  0.0000000  0.6508444  3
   1598   1597   1599   1602     1  0.0000000  0.6508444  3
   1599   1603   1604   1614     1  0.0000000  1.2552000  3
   1599   1603   1604   1615     1  0.0000000  1.2552000  3
   1599   1603   1605   1606     1  0.0000000  1.2552000  3
   1599   1603   1605   1608     1  0.0000000  1.2552000  3
   1600   1597   1599   1603     1  0.0000000  0.6508444  3
   1600   1597   1599   1601     1  0.0000000  0.6508444  3
   1600   1597   1599   1602     1  0.0000000  0.6508444  3
   1601   1599   1603   1604     1  0.0000000  1.2552000  3
   1601   1599   1603   1605     1  0.0000000  1.2552000  3
   1602   1599   1603   1604     1  0.0000000  1.2552000  3
   1602   1599   1603   1605     1  0.0000000  1.2552000  3
   1603   1604   1616   1617     1  0.0000000  0.6508444  3
   1603   1604   1616   1618     1  0.0000000  0.6508444  3
   1603   1605   1607   1609     1  0.0000000  0.6508444  3
   1603   1605   1607   1610     1  0.0000000  0.6508444  3
   1604   1603   1605   1606     1  0.0000000  1.2552000  3
   1604   1603   1605   1608     1  0.0000000  1.2552000  3
   1605   1603   1604   1614     1  0.0000000  1.2552000  3
   1605   1603   1604   1615     1  0.0000000  1.2552000  3
   1606   1605   1607   1611     1  0.0000000  0.6508444  3
   1606   1605   1607   1609     1  0.0000000  0.6508444  3
   1606   1605   1607   1610     1  0.0000000  0.6508444  3
   1608   1605   1607   1611     1  0.0000000  0.6508444  3
   1608   1605   1607   1609     1  0.0000000  0.6508444  3
   1608   1605   1607   1610     1  0.0000000  0.6508444  3
   1609   1607   1611   1612     1  0.0000000  3.3472000  1
   1609   1607   1611   1612     1  0.0000000  0.0000000  2
   1609   1607   1611   1612     1  180.0000771  0.3347200  3
   1609   1607   1611   1613     1  0.0000000  3.3472000  1
   1609   1607   1611   1613     1  0.0000000  0.0000000  2
   1609   1607   1611   1613     1  180.0000771  0.3347200  3
   1610   1607   1611   1612     1  0.0000000  3.3472000  1
   1610   1607   1611   1612     1  0.0000000  0.0000000  2
   1610   1607   1611   1612     1  180.0000771  0.3347200  3
   1610   1607   1611   1613     1  0.0000000  3.3472000  1
   1610   1607   1611   1613     1  0.0000000  0.0000000  2
   1610   1607   1611   1613     1  180.0000771  0.3347200  3
   1614   1604   1616   1619     1  0.0000000  0.6508444  3
   1614   1604   1616   1617     1  0.0000000  0.6508444  3
   1614   1604   1616   1618     1  0.0000000  0.6508444  3
   1615   1604   1616   1619     1  0.0000000  0.6508444  3
   1615   1604   1616   1617     1  0.0000000  0.6508444  3
   1615   1604   1616   1618     1  0.0000000  0.6508444  3
   1617   1616   1619   1620     1  0.0000000  3.3472000  1
   1617   1616   1619   1620     1  0.0000000  0.0000000  2
   1617   1616   1619   1620     1  180.0000771  0.3347200  3
   1617   1616   1619   1621     1  0.0000000  3.3472000  1
   1617   1616   1619   1621     1  0.0000000  0.0000000  2
   1617   1616   1619   1621     1  180.0000771  0.3347200  3
   1618   1616   1619   1620     1  0.0000000  3.3472000  1
   1618   1616   1619   1620     1  0.0000000  0.0000000  2
   1618   1616   1619   1620     1  180.0000771  0.3347200  3
   1618   1616   1619   1621     1  0.0000000  3.3472000  1
   1618   1616   1619   1621     1  0.0000000  0.0000000  2
   1618   1616   1619   1621     1  180.0000771  0.3347200  3
   1622   1624   1626   1628     1  0.0000000  0.6508444  3
   1622   1624   1626   1629     1  0.0000000  0.6508444  3
   1623   1622   1624   1626     1  0.0000000  0.0000000  2
   1623   1622   1624   1625     1  0.0000000  0.0000000  2
   1623   1622   1624   1627     1  0.0000000  0.0000000  2
   1625   1624   1626   1630     1  0.0000000  0.6508444  3
   1625   1624   1626   1628     1  0.0000000  0.6508444  3
   1625   1624   1626   1629     1  0.0000000  0.6508444  3
   1626   1630   1631   1641     1  0.0000000  1.2552000  3
   1626   1630   1631   1642     1  0.0000000  1.2552000  3
   1626   1630   1632   1633     1  0.0000000  1.2552000  3
   1626   1630   1632   1635     1  0.0000000  1.2552000  3
   1627   1624   1626   1630     1  0.0000000  0.6508444  3
   1627   1624   1626   1628     1  0.0000000  0.6508444  3
   1627   1624   1626   1629     1  0.0000000  0.6508444  3
   1628   1626   1630   1631     1  0.0000000  1.2552000  3
   1628   1626   1630   1632     1  0.0000000  1.2552000  3
   1629   1626   1630   1631     1  0.0000000  1.2552000  3
   1629   1626   1630   1632     1  0.0000000  1.2552000  3
   1630   1631   1643   1644     1  0.0000000  0.6508444  3
   1630   1631   1643   1645     1  0.0000000  0.6508444  3
   1630   1632   1634   1636     1  0.0000000  0.6508444  3
   1630   1632   1634   1637     1  0.0000000  0.6508444  3
   1631   1630   1632   1633     1  0.0000000  1.2552000  3
   1631   1630   1632   1635     1  0.0000000  1.2552000  3
   1632   1630   1631   1641     1  0.0000000  1.2552000  3
   1632   1630   1631   1642     1  0.0000000  1.2552000  3
   1633   1632   1634   1638     1  0.0000000  0.6508444  3
   1633   1632   1634   1636     1  0.0000000  0.6508444  3
   1633   1632   1634   1637     1  0.0000000  0.6508444  3
   1635   1632   1634   1638     1  0.0000000  0.6508444  3
   1635   1632   1634   1636     1  0.0000000  0.6508444  3
   1635   1632   1634   1637     1  0.0000000  0.6508444  3
   1636   1634   1638   1639     1  0.0000000  3.3472000  1
   1636   1634   1638   1639     1  0.0000000  0.0000000  2
   1636   1634   1638   1639     1  180.0000771  0.3347200  3
   1636   1634   1638   1640     1  0.0000000  3.3472000  1
   1636   1634   1638   1640     1  0.0000000  0.0000000  2
   1636   1634   1638   1640     1  180.0000771  0.3347200  3
   1637   1634   1638   1639     1  0.0000000  3.3472000  1
   1637   1634   1638   1639     1  0.0000000  0.0000000  2
   1637   1634   1638   1639     1  180.0000771  0.3347200  3
   1637   1634   1638   1640     1  0.0000000  3.3472000  1
   1637   1634   1638   1640     1  0.0000000  0.0000000  2
   1637   1634   1638   1640     1  180.0000771  0.3347200  3
   1641   1631   1643   1646     1  0.0000000  0.6508444  3
   1641   1631   1643   1644     1  0.0000000  0.6508444  3
   1641   1631   1643   1645     1  0.0000000  0.6508444  3
   1642   1631   1643   1646     1  0.0000000  0.6508444  3
   1642   1631   1643   1644     1  0.0000000  0.6508444  3
   1642   1631   1643   1645     1  0.0000000  0.6508444  3
   1644   1643   1646   1647     1  0.0000000  3.3472000  1
   1644   1643   1646   1647     1  0.0000000  0.0000000  2
   1644   1643   1646   1647     1  180.0000771  0.3347200  3
   1644   1643   1646   1648     1  0.0000000  3.3472000  1
   1644   1643   1646   1648     1  0.0000000  0.0000000  2
   1644   1643   1646   1648     1  180.0000771  0.3347200  3
   1645   1643   1646   1647     1  0.0000000  3.3472000  1
   1645   1643   1646   1647     1  0.0000000  0.0000000  2
   1645   1643   1646   1647     1  180.0000771  0.3347200  3
   1645   1643   1646   1648     1  0.0000000  3.3472000  1
   1645   1643   1646   1648     1  0.0000000  0.0000000  2
   1645   1643   1646   1648     1  180.0000771  0.3347200  3
   1649   1651   1653   1655     1  0.0000000  0.6508444  3
   1649   1651   1653   1656     1  0.0000000  0.6508444  3
   1650   1649   1651   1653     1  0.0000000  0.0000000  2
   1650   1649   1651   1652     1  0.0000000  0.0000000  2
   1650   1649   1651   1654     1  0.0000000  0.0000000  2
   1652   1651   1653   1657     1  0.0000000  0.6508444  3
   1652   1651   1653   1655     1  0.0000000  0.6508444  3
   1652   1651   1653   1656     1  0.0000000  0.6508444  3
   1653   1657   1658   1668     1  0.0000000  1.2552000  3
   1653   1657   1658   1669     1  0.0000000  1.2552000  3
   1653   1657   1659   1660     1  0.0000000  1.2552000  3
   1653   1657   1659   1662     1  0.0000000  1.2552000  3
   1654   1651   1653   1657     1  0.0000000  0.6508444  3
   1654   1651   1653   1655     1  0.0000000  0.6508444  3
   1654   1651   1653   1656     1  0.0000000  0.6508444  3
   1655   1653   1657   1658     1  0.0000000  1.2552000  3
   1655   1653   1657   1659     1  0.0000000  1.2552000  3
   1656   1653   1657   1658     1  0.0000000  1.2552000  3
   1656   1653   1657   1659     1  0.0000000  1.2552000  3
   1657   1658   1670   1671     1  0.0000000  0.6508444  3
   1657   1658   1670   1672     1  0.0000000  0.6508444  3
   1657   1659   1661   1663     1  0.0000000  0.6508444  3
   1657   1659   1661   1664     1  0.0000000  0.6508444  3
   1658   1657   1659   1660     1  0.0000000  1.2552000  3
   1658   1657   1659   1662     1  0.0000000  1.2552000  3
   1659   1657   1658   1668     1  0.0000000  1.2552000  3
   1659   1657   1658   1669     1  0.0000000  1.2552000  3
   1660   1659   1661   1665     1  0.0000000  0.6508444  3
   1660   1659   1661   1663     1  0.0000000  0.6508444  3
   1660   1659   1661   1664     1  0.0000000  0.6508444  3
   1662   1659   1661   1665     1  0.0000000  0.6508444  3
   1662   1659   1661   1663     1  0.0000000  0.6508444  3
   1662   1659   1661   1664     1  0.0000000  0.6508444  3
   1663   1661   1665   1666     1  0.0000000  3.3472000  1
   1663   1661   1665   1666     1  0.0000000  0.0000000  2
   1663   1661   1665   1666     1  180.0000771  0.3347200  3
   1663   1661   1665   1667     1  0.0000000  3.3472000  1
   1663   1661   1665   1667     1  0.0000000  0.0000000  2
   1663   1661   1665   1667     1  180.0000771  0.3347200  3
   1664   1661   1665   1666     1  0.0000000  3.3472000  1
   1664   1661   1665   1666     1  0.0000000  0.0000000  2
   1664   1661   1665   1666     1  180.0000771  0.3347200  3
   1664   1661   1665   1667     1  0.0000000  3.3472000  1
   1664   1661   1665   1667     1  0.0000000  0.0000000  2
   1664   1661   1665   1667     1  180.0000771  0.3347200  3
   1668   1658   1670   1673     1  0.0000000  0.6508444  3
   1668   1658   1670   1671     1  0.0000000  0.6508444  3
   1668   1658   1670   1672     1  0.0000000  0.6508444  3
   1669   1658   1670   1673     1  0.0000000  0.6508444  3
   1669   1658   1670   1671     1  0.0000000  0.6508444  3
   1669   1658   1670   1672     1  0.0000000  0.6508444  3
   1671   1670   1673   1674     1  0.0000000  3.3472000  1
   1671   1670   1673   1674     1  0.0000000  0.0000000  2
   1671   1670   1673   1674     1  180.0000771  0.3347200  3
   1671   1670   1673   1675     1  0.0000000  3.3472000  1
   1671   1670   1673   1675     1  0.0000000  0.0000000  2
   1671   1670   1673   1675     1  180.0000771  0.3347200  3
   1672   1670   1673   1674     1  0.0000000  3.3472000  1
   1672   1670   1673   1674     1  0.0000000  0.0000000  2
   1672   1670   1673   1674     1  180.0000771  0.3347200  3
   1672   1670   1673   1675     1  0.0000000  3.3472000  1
   1672   1670   1673   1675     1  0.0000000  0.0000000  2
   1672   1670   1673   1675     1  180.0000771  0.3347200  3
   1676   1678   1680   1682     1  0.0000000  0.6508444  3
   1676   1678   1680   1683     1  0.0000000  0.6508444  3
   1677   1676   1678   1680     1  0.0000000  0.0000000  2
   1677   1676   1678   1679     1  0.0000000  0.0000000  2
   1677   1676   1678   1681     1  0.0000000  0.0000000  2
   1679   1678   1680   1684     1  0.0000000  0.6508444  3
   1679   1678   1680   1682     1  0.0000000  0.6508444  3
   1679   1678   1680   1683     1  0.0000000  0.6508444  3
   1680   1684   1685   1695     1  0.0000000  1.2552000  3
   1680   1684   1685   1696     1  0.0000000  1.2552000  3
   1680   1684   1686   1687     1  0.0000000  1.2552000  3
   1680   1684   1686   1689     1  0.0000000  1.2552000  3
   1681   1678   1680   1684     1  0.0000000  0.6508444  3
   1681   1678   1680   1682     1  0.0000000  0.6508444  3
   1681   1678   1680   1683     1  0.0000000  0.6508444  3
   1682   1680   1684   1685     1  0.0000000  1.2552000  3
   1682   1680   1684   1686     1  0.0000000  1.2552000  3
   1683   1680   1684   1685     1  0.0000000  1.2552000  3
   1683   1680   1684   1686     1  0.0000000  1.2552000  3
   1684   1685   1697   1698     1  0.0000000  0.6508444  3
   1684   1685   1697   1699     1  0.0000000  0.6508444  3
   1684   1686   1688   1690     1  0.0000000  0.6508444  3
   1684   1686   1688   1691     1  0.0000000  0.6508444  3
   1685   1684   1686   1687     1  0.0000000  1.2552000  3
   1685   1684   1686   1689     1  0.0000000  1.2552000  3
   1686   1684   1685   1695     1  0.0000000  1.2552000  3
   1686   1684   1685   1696     1  0.0000000  1.2552000  3
   1687   1686   1688   1692     1  0.0000000  0.6508444  3
   1687   1686   1688   1690     1  0.0000000  0.6508444  3
   1687   1686   1688   1691     1  0.0000000  0.6508444  3
   1689   1686   1688   1692     1  0.0000000  0.6508444  3
   1689   1686   1688   1690     1  0.0000000  0.6508444  3
   1689   1686   1688   1691     1  0.0000000  0.6508444  3
   1690   1688   1692   1693     1  0.0000000  3.3472000  1
   1690   1688   1692   1693     1  0.0000000  0.0000000  2
   1690   1688   1692   1693     1  180.0000771  0.3347200  3
   1690   1688   1692   1694     1  0.0000000  3.3472000  1
   1690   1688   1692   1694     1  0.0000000  0.0000000  2
   1690   1688   1692   1694     1  180.0000771  0.3347200  3
   1691   1688   1692   1693     1  0.0000000  3.3472000  1
   1691   1688   1692   1693     1  0.0000000  0.0000000  2
   1691   1688   1692   1693     1  180.0000771  0.3347200  3
   1691   1688   1692   1694     1  0.0000000  3.3472000  1
   1691   1688   1692   1694     1  0.0000000  0.0000000  2
   1691   1688   1692   1694     1  180.0000771  0.3347200  3
   1695   1685   1697   1700     1  0.0000000  0.6508444  3
   1695   1685   1697   1698     1  0.0000000  0.6508444  3
   1695   1685   1697   1699     1  0.0000000  0.6508444  3
   1696   1685   1697   1700     1  0.0000000  0.6508444  3
   1696   1685   1697   1698     1  0.0000000  0.6508444  3
   1696   1685   1697   1699     1  0.0000000  0.6508444  3
   1698   1697   1700   1701     1  0.0000000  3.3472000  1
   1698   1697   1700   1701     1  0.0000000  0.0000000  2
   1698   1697   1700   1701     1  180.0000771  0.3347200  3
   1698   1697   1700   1702     1  0.0000000  3.3472000  1
   1698   1697   1700   1702     1  0.0000000  0.0000000  2
   1698   1697   1700   1702     1  180.0000771  0.3347200  3
   1699   1697   1700   1701     1  0.0000000  3.3472000  1
   1699   1697   1700   1701     1  0.0000000  0.0000000  2
   1699   1697   1700   1701     1  180.0000771  0.3347200  3
   1699   1697   1700   1702     1  0.0000000  3.3472000  1
   1699   1697   1700   1702     1  0.0000000  0.0000000  2
   1699   1697   1700   1702     1  180.0000771  0.3347200  3
   1703   1705   1707   1709     1  0.0000000  0.6508444  3
   1703   1705   1707   1710     1  0.0000000  0.6508444  3
   1704   1703   1705   1707     1  0.0000000  0.0000000  2
   1704   1703   1705   1706     1  0.0000000  0.0000000  2
   1704   1703   1705   1708     1  0.0000000  0.0000000  2
   1706   1705   1707   1711     1  0.0000000  0.6508444  3
   1706   1705   1707   1709     1  0.0000000  0.6508444  3
   1706   1705   1707   1710     1  0.0000000  0.6508444  3
   1707   1711   1712   1722     1  0.0000000  1.2552000  3
   1707   1711   1712   1723     1  0.0000000  1.2552000  3
   1707   1711   1713   1714     1  0.0000000  1.2552000  3
   1707   1711   1713   1716     1  0.0000000  1.2552000  3
   1708   1705   1707   1711     1  0.0000000  0.6508444  3
   1708   1705   1707   1709     1  0.0000000  0.6508444  3
   1708   1705   1707   1710     1  0.0000000  0.6508444  3
   1709   1707   1711   1712     1  0.0000000  1.2552000  3
   1709   1707   1711   1713     1  0.0000000  1.2552000  3
   1710   1707   1711   1712     1  0.0000000  1.2552000  3
   1710   1707   1711   1713     1  0.0000000  1.2552000  3
   1711   1712   1724   1725     1  0.0000000  0.6508444  3
   1711   1712   1724   1726     1  0.0000000  0.6508444  3
   1711   1713   1715   1717     1  0.0000000  0.6508444  3
   1711   1713   1715   1718     1  0.0000000  0.6508444  3
   1712   1711   1713   1714     1  0.0000000  1.2552000  3
   1712   1711   1713   1716     1  0.0000000  1.2552000  3
   1713   1711   1712   1722     1  0.0000000  1.2552000  3
   1713   1711   1712   1723     1  0.0000000  1.2552000  3
   1714   1713   1715   1719     1  0.0000000  0.6508444  3
   1714   1713   1715   1717     1  0.0000000  0.6508444  3
   1714   1713   1715   1718     1  0.0000000  0.6508444  3
   1716   1713   1715   1719     1  0.0000000  0.6508444  3
   1716   1713   1715   1717     1  0.0000000  0.6508444  3
   1716   1713   1715   1718     1  0.0000000  0.6508444  3
   1717   1715   1719   1720     1  0.0000000  3.3472000  1
   1717   1715   1719   1720     1  0.0000000  0.0000000  2
   1717   1715   1719   1720     1  180.0000771  0.3347200  3
   1717   1715   1719   1721     1  0.0000000  3.3472000  1
   1717   1715   1719   1721     1  0.0000000  0.0000000  2
   1717   1715   1719   1721     1  180.0000771  0.3347200  3
   1718   1715   1719   1720     1  0.0000000  3.3472000  1
   1718   1715   1719   1720     1  0.0000000  0.0000000  2
   1718   1715   1719   1720     1  180.0000771  0.3347200  3
   1718   1715   1719   1721     1  0.0000000  3.3472000  1
   1718   1715   1719   1721     1  0.0000000  0.0000000  2
   1718   1715   1719   1721     1  180.0000771  0.3347200  3
   1722   1712   1724   1727     1  0.0000000  0.6508444  3
   1722   1712   1724   1725     1  0.0000000  0.6508444  3
   1722   1712   1724   1726     1  0.0000000  0.6508444  3
   1723   1712   1724   1727     1  0.0000000  0.6508444  3
   1723   1712   1724   1725     1  0.0000000  0.6508444  3
   1723   1712   1724   1726     1  0.0000000  0.6508444  3
   1725   1724   1727   1728     1  0.0000000  3.3472000  1
   1725   1724   1727   1728     1  0.0000000  0.0000000  2
   1725   1724   1727   1728     1  180.0000771  0.3347200  3
   1725   1724   1727   1729     1  0.0000000  3.3472000  1
   1725   1724   1727   1729     1  0.0000000  0.0000000  2
   1725   1724   1727   1729     1  180.0000771  0.3347200  3
   1726   1724   1727   1728     1  0.0000000  3.3472000  1
   1726   1724   1727   1728     1  0.0000000  0.0000000  2
   1726   1724   1727   1728     1  180.0000771  0.3347200  3
   1726   1724   1727   1729     1  0.0000000  3.3472000  1
   1726   1724   1727   1729     1  0.0000000  0.0000000  2
   1726   1724   1727   1729     1  180.0000771  0.3347200  3
   1730   1732   1734   1736     1  0.0000000  0.6508444  3
   1730   1732   1734   1737     1  0.0000000  0.6508444  3
   1731   1730   1732   1734     1  0.0000000  0.0000000  2
   1731   1730   1732   1733     1  0.0000000  0.0000000  2
   1731   1730   1732   1735     1  0.0000000  0.0000000  2
   1733   1732   1734   1738     1  0.0000000  0.6508444  3
   1733   1732   1734   1736     1  0.0000000  0.6508444  3
   1733   1732   1734   1737     1  0.0000000  0.6508444  3
   1734   1738   1739   1749     1  0.0000000  1.2552000  3
   1734   1738   1739   1750     1  0.0000000  1.2552000  3
   1734   1738   1740   1741     1  0.0000000  1.2552000  3
   1734   1738   1740   1743     1  0.0000000  1.2552000  3
   1735   1732   1734   1738     1  0.0000000  0.6508444  3
   1735   1732   1734   1736     1  0.0000000  0.6508444  3
   1735   1732   1734   1737     1  0.0000000  0.6508444  3
   1736   1734   1738   1739     1  0.0000000  1.2552000  3
   1736   1734   1738   1740     1  0.0000000  1.2552000  3
   1737   1734   1738   1739     1  0.0000000  1.2552000  3
   1737   1734   1738   1740     1  0.0000000  1.2552000  3
   1738   1739   1751   1752     1  0.0000000  0.6508444  3
   1738   1739   1751   1753     1  0.0000000  0.6508444  3
   1738   1740   1742   1744     1  0.0000000  0.6508444  3
   1738   1740   1742   1745     1  0.0000000  0.6508444  3
   1739   1738   1740   1741     1  0.0000000  1.2552000  3
   1739   1738   1740   1743     1  0.0000000  1.2552000  3
   1740   1738   1739   1749     1  0.0000000  1.2552000  3
   1740   1738   1739   1750     1  0.0000000  1.2552000  3
   1741   1740   1742   1746     1  0.0000000  0.6508444  3
   1741   1740   1742   1744     1  0.0000000  0.6508444  3
   1741   1740   1742   1745     1  0.0000000  0.6508444  3
   1743   1740   1742   1746     1  0.0000000  0.6508444  3
   1743   1740   1742   1744     1  0.0000000  0.6508444  3
   1743   1740   1742   1745     1  0.0000000  0.6508444  3
   1744   1742   1746   1747     1  0.0000000  3.3472000  1
   1744   1742   1746   1747     1  0.0000000  0.0000000  2
   1744   1742   1746   1747     1  180.0000771  0.3347200  3
   1744   1742   1746   1748     1  0.0000000  3.3472000  1
   1744   1742   1746   1748     1  0.0000000  0.0000000  2
   1744   1742   1746   1748     1  180.0000771  0.3347200  3
   1745   1742   1746   1747     1  0.0000000  3.3472000  1
   1745   1742   1746   1747     1  0.0000000  0.0000000  2
   1745   1742   1746   1747     1  180.0000771  0.3347200  3
   1745   1742   1746   1748     1  0.0000000  3.3472000  1
   1745   1742   1746   1748     1  0.0000000  0.0000000  2
   1745   1742   1746   1748     1  180.0000771  0.3347200  3
   1749   1739   1751   1754     1  0.0000000  0.6508444  3
   1749   1739   1751   1752     1  0.0000000  0.6508444  3
   1749   1739   1751   1753     1  0.0000000  0.6508444  3
   1750   1739   1751   1754     1  0.0000000  0.6508444  3
   1750   1739   1751   1752     1  0.0000000  0.6508444  3
   1750   1739   1751   1753     1  0.0000000  0.6508444  3
   1752   1751   1754   1755     1  0.0000000  3.3472000  1
   1752   1751   1754   1755     1  0.0000000  0.0000000  2
   1752   1751   1754   1755     1  180.0000771  0.3347200  3
   1752   1751   1754   1756     1  0.0000000  3.3472000  1
   1752   1751   1754   1756     1  0.0000000  0.0000000  2
   1752   1751   1754   1756     1  180.0000771  0.3347200  3
   1753   1751   1754   1755     1  0.0000000  3.3472000  1
   1753   1751   1754   1755     1  0.0000000  0.0000000  2
   1753   1751   1754   1755     1  180.0000771  0.3347200  3
   1753   1751   1754   1756     1  0.0000000  3.3472000  1
   1753   1751   1754   1756     1  0.0000000  0.0000000  2
   1753   1751   1754   1756     1  180.0000771  0.3347200  3
   1757   1759   1761   1763     1  0.0000000  0.6508444  3
   1757   1759   1761   1764     1  0.0000000  0.6508444  3
   1758   1757   1759   1761     1  0.0000000  0.0000000  2
   1758   1757   1759   1760     1  0.0000000  0.0000000  2
   1758   1757   1759   1762     1  0.0000000  0.0000000  2
   1760   1759   1761   1765     1  0.0000000  0.6508444  3
   1760   1759   1761   1763     1  0.0000000  0.6508444  3
   1760   1759   1761   1764     1  0.0000000  0.6508444  3
   1761   1765   1766   1776     1  0.0000000  1.2552000  3
   1761   1765   1766   1777     1  0.0000000  1.2552000  3
   1761   1765   1767   1768     1  0.0000000  1.2552000  3
   1761   1765   1767   1770     1  0.0000000  1.2552000  3
   1762   1759   1761   1765     1  0.0000000  0.6508444  3
   1762   1759   1761   1763     1  0.0000000  0.6508444  3
   1762   1759   1761   1764     1  0.0000000  0.6508444  3
   1763   1761   1765   1766     1  0.0000000  1.2552000  3
   1763   1761   1765   1767     1  0.0000000  1.2552000  3
   1764   1761   1765   1766     1  0.0000000  1.2552000  3
   1764   1761   1765   1767     1  0.0000000  1.2552000  3
   1765   1766   1778   1779     1  0.0000000  0.6508444  3
   1765   1766   1778   1780     1  0.0000000  0.6508444  3
   1765   1767   1769   1771     1  0.0000000  0.6508444  3
   1765   1767   1769   1772     1  0.0000000  0.6508444  3
   1766   1765   1767   1768     1  0.0000000  1.2552000  3
   1766   1765   1767   1770     1  0.0000000  1.2552000  3
   1767   1765   1766   1776     1  0.0000000  1.2552000  3
   1767   1765   1766   1777     1  0.0000000  1.2552000  3
   1768   1767   1769   1773     1  0.0000000  0.6508444  3
   1768   1767   1769   1771     1  0.0000000  0.6508444  3
   1768   1767   1769   1772     1  0.0000000  0.6508444  3
   1770   1767   1769   1773     1  0.0000000  0.6508444  3
   1770   1767   1769   1771     1  0.0000000  0.6508444  3
   1770   1767   1769   1772     1  0.0000000  0.6508444  3
   1771   1769   1773   1774     1  0.0000000  3.3472000  1
   1771   1769   1773   1774     1  0.0000000  0.0000000  2
   1771   1769   1773   1774     1  180.0000771  0.3347200  3
   1771   1769   1773   1775     1  0.0000000  3.3472000  1
   1771   1769   1773   1775     1  0.0000000  0.0000000  2
   1771   1769   1773   1775     1  180.0000771  0.3347200  3
   1772   1769   1773   1774     1  0.0000000  3.3472000  1
   1772   1769   1773   1774     1  0.0000000  0.0000000  2
   1772   1769   1773   1774     1  180.0000771  0.3347200  3
   1772   1769   1773   1775     1  0.0000000  3.3472000  1
   1772   1769   1773   1775     1  0.0000000  0.0000000  2
   1772   1769   1773   1775     1  180.0000771  0.3347200  3
   1776   1766   1778   1781     1  0.0000000  0.6508444  3
   1776   1766   1778   1779     1  0.0000000  0.6508444  3
   1776   1766   1778   1780     1  0.0000000  0.6508444  3
   1777   1766   1778   1781     1  0.0000000  0.6508444  3
   1777   1766   1778   1779     1  0.0000000  0.6508444  3
   1777   1766   1778   1780     1  0.0000000  0.6508444  3
   1779   1778   1781   1782     1  0.0000000  3.3472000  1
   1779   1778   1781   1782     1  0.0000000  0.0000000  2
   1779   1778   1781   1782     1  180.0000771  0.3347200  3
   1779   1778   1781   1783     1  0.0000000  3.3472000  1
   1779   1778   1781   1783     1  0.0000000  0.0000000  2
   1779   1778   1781   1783     1  180.0000771  0.3347200  3
   1780   1778   1781   1782     1  0.0000000  3.3472000  1
   1780   1778   1781   1782     1  0.0000000  0.0000000  2
   1780   1778   1781   1782     1  180.0000771  0.3347200  3
   1780   1778   1781   1783     1  0.0000000  3.3472000  1
   1780   1778   1781   1783     1  0.0000000  0.0000000  2
   1780   1778   1781   1783     1  180.0000771  0.3347200  3
   1784   1786   1788   1790     1  0.0000000  0.6508444  3
   1784   1786   1788   1791     1  0.0000000  0.6508444  3
   1785   1784   1786   1788     1  0.0000000  0.0000000  2
   1785   1784   1786   1787     1  0.0000000  0.0000000  2
   1785   1784   1786   1789     1  0.0000000  0.0000000  2
   1787   1786   1788   1792     1  0.0000000  0.6508444  3
   1787   1786   1788   1790     1  0.0000000  0.6508444  3
   1787   1786   1788   1791     1  0.0000000  0.6508444  3
   1788   1792   1793   1803     1  0.0000000  1.2552000  3
   1788   1792   1793   1804     1  0.0000000  1.2552000  3
   1788   1792   1794   1795     1  0.0000000  1.2552000  3
   1788   1792   1794   1797     1  0.0000000  1.2552000  3
   1789   1786   1788   1792     1  0.0000000  0.6508444  3
   1789   1786   1788   1790     1  0.0000000  0.6508444  3
   1789   1786   1788   1791     1  0.0000000  0.6508444  3
   1790   1788   1792   1793     1  0.0000000  1.2552000  3
   1790   1788   1792   1794     1  0.0000000  1.2552000  3
   1791   1788   1792   1793     1  0.0000000  1.2552000  3
   1791   1788   1792   1794     1  0.0000000  1.2552000  3
   1792   1793   1805   1806     1  0.0000000  0.6508444  3
   1792   1793   1805   1807     1  0.0000000  0.6508444  3
   1792   1794   1796   1798     1  0.0000000  0.6508444  3
   1792   1794   1796   1799     1  0.0000000  0.6508444  3
   1793   1792   1794   1795     1  0.0000000  1.2552000  3
   1793   1792   1794   1797     1  0.0000000  1.2552000  3
   1794   1792   1793   1803     1  0.0000000  1.2552000  3
   1794   1792   1793   1804     1  0.0000000  1.2552000  3
   1795   1794   1796   1800     1  0.0000000  0.6508444  3
   1795   1794   1796   1798     1  0.0000000  0.6508444  3
   1795   1794   1796   1799     1  0.0000000  0.6508444  3
   1797   1794   1796   1800     1  0.0000000  0.6508444  3
   1797   1794   1796   1798     1  0.0000000  0.6508444  3
   1797   1794   1796   1799     1  0.0000000  0.6508444  3
   1798   1796   1800   1801     1  0.0000000  3.3472000  1
   1798   1796   1800   1801     1  0.0000000  0.0000000  2
   1798   1796   1800   1801     1  180.0000771  0.3347200  3
   1798   1796   1800   1802     1  0.0000000  3.3472000  1
   1798   1796   1800   1802     1  0.0000000  0.0000000  2
   1798   1796   1800   1802     1  180.0000771  0.3347200  3
   1799   1796   1800   1801     1  0.0000000  3.3472000  1
   1799   1796   1800   1801     1  0.0000000  0.0000000  2
   1799   1796   1800   1801     1  180.0000771  0.3347200  3
   1799   1796   1800   1802     1  0.0000000  3.3472000  1
   1799   1796   1800   1802     1  0.0000000  0.0000000  2
   1799   1796   1800   1802     1  180.0000771  0.3347200  3
   1803   1793   1805   1808     1  0.0000000  0.6508444  3
   1803   1793   1805   1806     1  0.0000000  0.6508444  3
   1803   1793   1805   1807     1  0.0000000  0.6508444  3
   1804   1793   1805   1808     1  0.0000000  0.6508444  3
   1804   1793   1805   1806     1  0.0000000  0.6508444  3
   1804   1793   1805   1807     1  0.0000000  0.6508444  3
   1806   1805   1808   1809     1  0.0000000  3.3472000  1
   1806   1805   1808   1809     1  0.0000000  0.0000000  2
   1806   1805   1808   1809     1  180.0000771  0.3347200  3
   1806   1805   1808   1810     1  0.0000000  3.3472000  1
   1806   1805   1808   1810     1  0.0000000  0.0000000  2
   1806   1805   1808   1810     1  180.0000771  0.3347200  3
   1807   1805   1808   1809     1  0.0000000  3.3472000  1
   1807   1805   1808   1809     1  0.0000000  0.0000000  2
   1807   1805   1808   1809     1  180.0000771  0.3347200  3
   1807   1805   1808   1810     1  0.0000000  3.3472000  1
   1807   1805   1808   1810     1  0.0000000  0.0000000  2
   1807   1805   1808   1810     1  180.0000771  0.3347200  3
   1811   1813   1815   1817     1  0.0000000  0.6508444  3
   1811   1813   1815   1818     1  0.0000000  0.6508444  3
   1812   1811   1813   1815     1  0.0000000  0.0000000  2
   1812   1811   1813   1814     1  0.0000000  0.0000000  2
   1812   1811   1813   1816     1  0.0000000  0.0000000  2
   1814   1813   1815   1819     1  0.0000000  0.6508444  3
   1814   1813   1815   1817     1  0.0000000  0.6508444  3
   1814   1813   1815   1818     1  0.0000000  0.6508444  3
   1815   1819   1820   1830     1  0.0000000  1.2552000  3
   1815   1819   1820   1831     1  0.0000000  1.2552000  3
   1815   1819   1821   1822     1  0.0000000  1.2552000  3
   1815   1819   1821   1824     1  0.0000000  1.2552000  3
   1816   1813   1815   1819     1  0.0000000  0.6508444  3
   1816   1813   1815   1817     1  0.0000000  0.6508444  3
   1816   1813   1815   1818     1  0.0000000  0.6508444  3
   1817   1815   1819   1820     1  0.0000000  1.2552000  3
   1817   1815   1819   1821     1  0.0000000  1.2552000  3
   1818   1815   1819   1820     1  0.0000000  1.2552000  3
   1818   1815   1819   1821     1  0.0000000  1.2552000  3
   1819   1820   1832   1833     1  0.0000000  0.6508444  3
   1819   1820   1832   1834     1  0.0000000  0.6508444  3
   1819   1821   1823   1825     1  0.0000000  0.6508444  3
   1819   1821   1823   1826     1  0.0000000  0.6508444  3
   1820   1819   1821   1822     1  0.0000000  1.2552000  3
   1820   1819   1821   1824     1  0.0000000  1.2552000  3
   1821   1819   1820   1830     1  0.0000000  1.2552000  3
   1821   1819   1820   1831     1  0.0000000  1.2552000  3
   1822   1821   1823   1827     1  0.0000000  0.6508444  3
   1822   1821   1823   1825     1  0.0000000  0.6508444  3
   1822   1821   1823   1826     1  0.0000000  0.6508444  3
   1824   1821   1823   1827     1  0.0000000  0.6508444  3
   1824   1821   1823   1825     1  0.0000000  0.6508444  3
   1824   1821   1823   1826     1  0.0000000  0.6508444  3
   1825   1823   1827   1828     1  0.0000000  3.3472000  1
   1825   1823   1827   1828     1  0.0000000  0.0000000  2
   1825   1823   1827   1828     1  180.0000771  0.3347200  3
   1825   1823   1827   1829     1  0.0000000  3.3472000  1
   1825   1823   1827   1829     1  0.0000000  0.0000000  2
   1825   1823   1827   1829     1  180.0000771  0.3347200  3
   1826   1823   1827   1828     1  0.0000000  3.3472000  1
   1826   1823   1827   1828     1  0.0000000  0.0000000  2
   1826   1823   1827   1828     1  180.0000771  0.3347200  3
   1826   1823   1827   1829     1  0.0000000  3.3472000  1
   1826   1823   1827   1829     1  0.0000000  0.0000000  2
   1826   1823   1827   1829     1  180.0000771  0.3347200  3
   1830   1820   1832   1835     1  0.0000000  0.6508444  3
   1830   1820   1832   1833     1  0.0000000  0.6508444  3
   1830   1820   1832   1834     1  0.0000000  0.6508444  3
   1831   1820   1832   1835     1  0.0000000  0.6508444  3
   1831   1820   1832   1833     1  0.0000000  0.6508444  3
   1831   1820   1832   1834     1  0.0000000  0.6508444  3
   1833   1832   1835   1836     1  0.0000000  3.3472000  1
   1833   1832   1835   1836     1  0.0000000  0.0000000  2
   1833   1832   1835   1836     1  180.0000771  0.3347200  3
   1833   1832   1835   1837     1  0.0000000  3.3472000  1
   1833   1832   1835   1837     1  0.0000000  0.0000000  2
   1833   1832   1835   1837     1  180.0000771  0.3347200  3
   1834   1832   1835   1836     1  0.0000000  3.3472000  1
   1834   1832   1835   1836     1  0.0000000  0.0000000  2
   1834   1832   1835   1836     1  180.0000771  0.3347200  3
   1834   1832   1835   1837     1  0.0000000  3.3472000  1
   1834   1832   1835   1837     1  0.0000000  0.0000000  2
   1834   1832   1835   1837     1  180.0000771  0.3347200  3
   1838   1840   1842   1844     1  0.0000000  0.6508444  3
   1838   1840   1842   1845     1  0.0000000  0.6508444  3
   1839   1838   1840   1842     1  0.0000000  0.0000000  2
   1839   1838   1840   1841     1  0.0000000  0.0000000  2
   1839   1838   1840   1843     1  0.0000000  0.0000000  2
   1841   1840   1842   1846     1  0.0000000  0.6508444  3
   1841   1840   1842   1844     1  0.0000000  0.6508444  3
   1841   1840   1842   1845     1  0.0000000  0.6508444  3
   1842   1846   1847   1857     1  0.0000000  1.2552000  3
   1842   1846   1847   1858     1  0.0000000  1.2552000  3
   1842   1846   1848   1849     1  0.0000000  1.2552000  3
   1842   1846   1848   1851     1  0.0000000  1.2552000  3
   1843   1840   1842   1846     1  0.0000000  0.6508444  3
   1843   1840   1842   1844     1  0.0000000  0.6508444  3
   1843   1840   1842   1845     1  0.0000000  0.6508444  3
   1844   1842   1846   1847     1  0.0000000  1.2552000  3
   1844   1842   1846   1848     1  0.0000000  1.2552000  3
   1845   1842   1846   1847     1  0.0000000  1.2552000  3
   1845   1842   1846   1848     1  0.0000000  1.2552000  3
   1846   1847   1859   1860     1  0.0000000  0.6508444  3
   1846   1847   1859   1861     1  0.0000000  0.6508444  3
   1846   1848   1850   1852     1  0.0000000  0.6508444  3
   1846   1848   1850   1853     1  0.0000000  0.6508444  3
   1847   1846   1848   1849     1  0.0000000  1.2552000  3
   1847   1846   1848   1851     1  0.0000000  1.2552000  3
   1848   1846   1847   1857     1  0.0000000  1.2552000  3
   1848   1846   1847   1858     1  0.0000000  1.2552000  3
   1849   1848   1850   1854     1  0.0000000  0.6508444  3
   1849   1848   1850   1852     1  0.0000000  0.6508444  3
   1849   1848   1850   1853     1  0.0000000  0.6508444  3
   1851   1848   1850   1854     1  0.0000000  0.6508444  3
   1851   1848   1850   1852     1  0.0000000  0.6508444  3
   1851   1848   1850   1853     1  0.0000000  0.6508444  3
   1852   1850   1854   1855     1  0.0000000  3.3472000  1
   1852   1850   1854   1855     1  0.0000000  0.0000000  2
   1852   1850   1854   1855     1  180.0000771  0.3347200  3
   1852   1850   1854   1856     1  0.0000000  3.3472000  1
   1852   1850   1854   1856     1  0.0000000  0.0000000  2
   1852   1850   1854   1856     1  180.0000771  0.3347200  3
   1853   1850   1854   1855     1  0.0000000  3.3472000  1
   1853   1850   1854   1855     1  0.0000000  0.0000000  2
   1853   1850   1854   1855     1  180.0000771  0.3347200  3
   1853   1850   1854   1856     1  0.0000000  3.3472000  1
   1853   1850   1854   1856     1  0.0000000  0.0000000  2
   1853   1850   1854   1856     1  180.0000771  0.3347200  3
   1857   1847   1859   1862     1  0.0000000  0.6508444  3
   1857   1847   1859   1860     1  0.0000000  0.6508444  3
   1857   1847   1859   1861     1  0.0000000  0.6508444  3
   1858   1847   1859   1862     1  0.0000000  0.6508444  3
   1858   1847   1859   1860     1  0.0000000  0.6508444  3
   1858   1847   1859   1861     1  0.0000000  0.6508444  3
   1860   1859   1862   1863     1  0.0000000  3.3472000  1
   1860   1859   1862   1863     1  0.0000000  0.0000000  2
   1860   1859   1862   1863     1  180.0000771  0.3347200  3
   1860   1859   1862   1864     1  0.0000000  3.3472000  1
   1860   1859   1862   1864     1  0.0000000  0.0000000  2
   1860   1859   1862   1864     1  180.0000771  0.3347200  3
   1861   1859   1862   1863     1  0.0000000  3.3472000  1
   1861   1859   1862   1863     1  0.0000000  0.0000000  2
   1861   1859   1862   1863     1  180.0000771  0.3347200  3
   1861   1859   1862   1864     1  0.0000000  3.3472000  1
   1861   1859   1862   1864     1  0.0000000  0.0000000  2
   1861   1859   1862   1864     1  180.0000771  0.3347200  3
   1865   1867   1869   1871     1  0.0000000  0.6508444  3
   1865   1867   1869   1872     1  0.0000000  0.6508444  3
   1866   1865   1867   1869     1  0.0000000  0.0000000  2
   1866   1865   1867   1868     1  0.0000000  0.0000000  2
   1866   1865   1867   1870     1  0.0000000  0.0000000  2
   1868   1867   1869   1873     1  0.0000000  0.6508444  3
   1868   1867   1869   1871     1  0.0000000  0.6508444  3
   1868   1867   1869   1872     1  0.0000000  0.6508444  3
   1869   1873   1874   1884     1  0.0000000  1.2552000  3
   1869   1873   1874   1885     1  0.0000000  1.2552000  3
   1869   1873   1875   1876     1  0.0000000  1.2552000  3
   1869   1873   1875   1878     1  0.0000000  1.2552000  3
   1870   1867   1869   1873     1  0.0000000  0.6508444  3
   1870   1867   1869   1871     1  0.0000000  0.6508444  3
   1870   1867   1869   1872     1  0.0000000  0.6508444  3
   1871   1869   1873   1874     1  0.0000000  1.2552000  3
   1871   1869   1873   1875     1  0.0000000  1.2552000  3
   1872   1869   1873   1874     1  0.0000000  1.2552000  3
   1872   1869   1873   1875     1  0.0000000  1.2552000  3
   1873   1874   1886   1887     1  0.0000000  0.6508444  3
   1873   1874   1886   1888     1  0.0000000  0.6508444  3
   1873   1875   1877   1879     1  0.0000000  0.6508444  3
   1873   1875   1877   1880     1  0.0000000  0.6508444  3
   1874   1873   1875   1876     1  0.0000000  1.2552000  3
   1874   1873   1875   1878     1  0.0000000  1.2552000  3
   1875   1873   1874   1884     1  0.0000000  1.2552000  3
   1875   1873   1874   1885     1  0.0000000  1.2552000  3
   1876   1875   1877   1881     1  0.0000000  0.6508444  3
   1876   1875   1877   1879     1  0.0000000  0.6508444  3
   1876   1875   1877   1880     1  0.0000000  0.6508444  3
   1878   1875   1877   1881     1  0.0000000  0.6508444  3
   1878   1875   1877   1879     1  0.0000000  0.6508444  3
   1878   1875   1877   1880     1  0.0000000  0.6508444  3
   1879   1877   1881   1882     1  0.0000000  3.3472000  1
   1879   1877   1881   1882     1  0.0000000  0.0000000  2
   1879   1877   1881   1882     1  180.0000771  0.3347200  3
   1879   1877   1881   1883     1  0.0000000  3.3472000  1
   1879   1877   1881   1883     1  0.0000000  0.0000000  2
   1879   1877   1881   1883     1  180.0000771  0.3347200  3
   1880   1877   1881   1882     1  0.0000000  3.3472000  1
   1880   1877   1881   1882     1  0.0000000  0.0000000  2
   1880   1877   1881   1882     1  180.0000771  0.3347200  3
   1880   1877   1881   1883     1  0.0000000  3.3472000  1
   1880   1877   1881   1883     1  0.0000000  0.0000000  2
   1880   1877   1881   1883     1  180.0000771  0.3347200  3
   1884   1874   1886   1889     1  0.0000000  0.6508444  3
   1884   1874   1886   1887     1  0.0000000  0.6508444  3
   1884   1874   1886   1888     1  0.0000000  0.6508444  3
   1885   1874   1886   1889     1  0.0000000  0.6508444  3
   1885   1874   1886   1887     1  0.0000000  0.6508444  3
   1885   1874   1886   1888     1  0.0000000  0.6508444  3
   1887   1886   1889   1890     1  0.0000000  3.3472000  1
   1887   1886   1889   1890     1  0.0000000  0.0000000  2
   1887   1886   1889   1890     1  180.0000771  0.3347200  3
   1887   1886   1889   1891     1  0.0000000  3.3472000  1
   1887   1886   1889   1891     1  0.0000000  0.0000000  2
   1887   1886   1889   1891     1  180.0000771  0.3347200  3
   1888   1886   1889   1890     1  0.0000000  3.3472000  1
   1888   1886   1889   1890     1  0.0000000  0.0000000  2
   1888   1886   1889   1890     1  180.0000771  0.3347200  3
   1888   1886   1889   1891     1  0.0000000  3.3472000  1
   1888   1886   1889   1891     1  0.0000000  0.0000000  2
   1888   1886   1889   1891     1  180.0000771  0.3347200  3
   1892   1894   1896   1898     1  0.0000000  0.6508444  3
   1892   1894   1896   1899     1  0.0000000  0.6508444  3
   1893   1892   1894   1896     1  0.0000000  0.0000000  2
   1893   1892   1894   1895     1  0.0000000  0.0000000  2
   1893   1892   1894   1897     1  0.0000000  0.0000000  2
   1895   1894   1896   1900     1  0.0000000  0.6508444  3
   1895   1894   1896   1898     1  0.0000000  0.6508444  3
   1895   1894   1896   1899     1  0.0000000  0.6508444  3
   1896   1900   1901   1911     1  0.0000000  1.2552000  3
   1896   1900   1901   1912     1  0.0000000  1.2552000  3
   1896   1900   1902   1903     1  0.0000000  1.2552000  3
   1896   1900   1902   1905     1  0.0000000  1.2552000  3
   1897   1894   1896   1900     1  0.0000000  0.6508444  3
   1897   1894   1896   1898     1  0.0000000  0.6508444  3
   1897   1894   1896   1899     1  0.0000000  0.6508444  3
   1898   1896   1900   1901     1  0.0000000  1.2552000  3
   1898   1896   1900   1902     1  0.0000000  1.2552000  3
   1899   1896   1900   1901     1  0.0000000  1.2552000  3
   1899   1896   1900   1902     1  0.0000000  1.2552000  3
   1900   1901   1913   1914     1  0.0000000  0.6508444  3
   1900   1901   1913   1915     1  0.0000000  0.6508444  3
   1900   1902   1904   1906     1  0.0000000  0.6508444  3
   1900   1902   1904   1907     1  0.0000000  0.6508444  3
   1901   1900   1902   1903     1  0.0000000  1.2552000  3
   1901   1900   1902   1905     1  0.0000000  1.2552000  3
   1902   1900   1901   1911     1  0.0000000  1.2552000  3
   1902   1900   1901   1912     1  0.0000000  1.2552000  3
   1903   1902   1904   1908     1  0.0000000  0.6508444  3
   1903   1902   1904   1906     1  0.0000000  0.6508444  3
   1903   1902   1904   1907     1  0.0000000  0.6508444  3
   1905   1902   1904   1908     1  0.0000000  0.6508444  3
   1905   1902   1904   1906     1  0.0000000  0.6508444  3
   1905   1902   1904   1907     1  0.0000000  0.6508444  3
   1906   1904   1908   1909     1  0.0000000  3.3472000  1
   1906   1904   1908   1909     1  0.0000000  0.0000000  2
   1906   1904   1908   1909     1  180.0000771  0.3347200  3
   1906   1904   1908   1910     1  0.0000000  3.3472000  1
   1906   1904   1908   1910     1  0.0000000  0.0000000  2
   1906   1904   1908   1910     1  180.0000771  0.3347200  3
   1907   1904   1908   1909     1  0.0000000  3.3472000  1
   1907   1904   1908   1909     1  0.0000000  0.0000000  2
   1907   1904   1908   1909     1  180.0000771  0.3347200  3
   1907   1904   1908   1910     1  0.0000000  3.3472000  1
   1907   1904   1908   1910     1  0.0000000  0.0000000  2
   1907   1904   1908   1910     1  180.0000771  0.3347200  3
   1911   1901   1913   1916     1  0.0000000  0.6508444  3
   1911   1901   1913   1914     1  0.0000000  0.6508444  3
   1911   1901   1913   1915     1  0.0000000  0.6508444  3
   1912   1901   1913   1916     1  0.0000000  0.6508444  3
   1912   1901   1913   1914     1  0.0000000  0.6508444  3
   1912   1901   1913   1915     1  0.0000000  0.6508444  3
   1914   1913   1916   1917     1  0.0000000  3.3472000  1
   1914   1913   1916   1917     1  0.0000000  0.0000000  2
   1914   1913   1916   1917     1  180.0000771  0.3347200  3
   1914   1913   1916   1918     1  0.0000000  3.3472000  1
   1914   1913   1916   1918     1  0.0000000  0.0000000  2
   1914   1913   1916   1918     1  180.0000771  0.3347200  3
   1915   1913   1916   1917     1  0.0000000  3.3472000  1
   1915   1913   1916   1917     1  0.0000000  0.0000000  2
   1915   1913   1916   1917     1  180.0000771  0.3347200  3
   1915   1913   1916   1918     1  0.0000000  3.3472000  1
   1915   1913   1916   1918     1  0.0000000  0.0000000  2
   1915   1913   1916   1918     1  180.0000771  0.3347200  3
   1919   1921   1923   1925     1  0.0000000  0.6508444  3
   1919   1921   1923   1926     1  0.0000000  0.6508444  3
   1920   1919   1921   1923     1  0.0000000  0.0000000  2
   1920   1919   1921   1922     1  0.0000000  0.0000000  2
   1920   1919   1921   1924     1  0.0000000  0.0000000  2
   1922   1921   1923   1927     1  0.0000000  0.6508444  3
   1922   1921   1923   1925     1  0.0000000  0.6508444  3
   1922   1921   1923   1926     1  0.0000000  0.6508444  3
   1923   1927   1928   1938     1  0.0000000  1.2552000  3
   1923   1927   1928   1939     1  0.0000000  1.2552000  3
   1923   1927   1929   1930     1  0.0000000  1.2552000  3
   1923   1927   1929   1932     1  0.0000000  1.2552000  3
   1924   1921   1923   1927     1  0.0000000  0.6508444  3
   1924   1921   1923   1925     1  0.0000000  0.6508444  3
   1924   1921   1923   1926     1  0.0000000  0.6508444  3
   1925   1923   1927   1928     1  0.0000000  1.2552000  3
   1925   1923   1927   1929     1  0.0000000  1.2552000  3
   1926   1923   1927   1928     1  0.0000000  1.2552000  3
   1926   1923   1927   1929     1  0.0000000  1.2552000  3
   1927   1928   1940   1941     1  0.0000000  0.6508444  3
   1927   1928   1940   1942     1  0.0000000  0.6508444  3
   1927   1929   1931   1933     1  0.0000000  0.6508444  3
   1927   1929   1931   1934     1  0.0000000  0.6508444  3
   1928   1927   1929   1930     1  0.0000000  1.2552000  3
   1928   1927   1929   1932     1  0.0000000  1.2552000  3
   1929   1927   1928   1938     1  0.0000000  1.2552000  3
   1929   1927   1928   1939     1  0.0000000  1.2552000  3
   1930   1929   1931   1935     1  0.0000000  0.6508444  3
   1930   1929   1931   1933     1  0.0000000  0.6508444  3
   1930   1929   1931   1934     1  0.0000000  0.6508444  3
   1932   1929   1931   1935     1  0.0000000  0.6508444  3
   1932   1929   1931   1933     1  0.0000000  0.6508444  3
   1932   1929   1931   1934     1  0.0000000  0.6508444  3
   1933   1931   1935   1936     1  0.0000000  3.3472000  1
   1933   1931   1935   1936     1  0.0000000  0.0000000  2
   1933   1931   1935   1936     1  180.0000771  0.3347200  3
   1933   1931   1935   1937     1  0.0000000  3.3472000  1
   1933   1931   1935   1937     1  0.0000000  0.0000000  2
   1933   1931   1935   1937     1  180.0000771  0.3347200  3
   1934   1931   1935   1936     1  0.0000000  3.3472000  1
   1934   1931   1935   1936     1  0.0000000  0.0000000  2
   1934   1931   1935   1936     1  180.0000771  0.3347200  3
   1934   1931   1935   1937     1  0.0000000  3.3472000  1
   1934   1931   1935   1937     1  0.0000000  0.0000000  2
   1934   1931   1935   1937     1  180.0000771  0.3347200  3
   1938   1928   1940   1943     1  0.0000000  0.6508444  3
   1938   1928   1940   1941     1  0.0000000  0.6508444  3
   1938   1928   1940   1942     1  0.0000000  0.6508444  3
   1939   1928   1940   1943     1  0.0000000  0.6508444  3
   1939   1928   1940   1941     1  0.0000000  0.6508444  3
   1939   1928   1940   1942     1  0.0000000  0.6508444  3
   1941   1940   1943   1944     1  0.0000000  3.3472000  1
   1941   1940   1943   1944     1  0.0000000  0.0000000  2
   1941   1940   1943   1944     1  180.0000771  0.3347200  3
   1941   1940   1943   1945     1  0.0000000  3.3472000  1
   1941   1940   1943   1945     1  0.0000000  0.0000000  2
   1941   1940   1943   1945     1  180.0000771  0.3347200  3
   1942   1940   1943   1944     1  0.0000000  3.3472000  1
   1942   1940   1943   1944     1  0.0000000  0.0000000  2
   1942   1940   1943   1944     1  180.0000771  0.3347200  3
   1942   1940   1943   1945     1  0.0000000  3.3472000  1
   1942   1940   1943   1945     1  0.0000000  0.0000000  2
   1942   1940   1943   1945     1  180.0000771  0.3347200  3
   1946   1948   1950   1952     1  0.0000000  0.6508444  3
   1946   1948   1950   1953     1  0.0000000  0.6508444  3
   1947   1946   1948   1950     1  0.0000000  0.0000000  2
   1947   1946   1948   1949     1  0.0000000  0.0000000  2
   1947   1946   1948   1951     1  0.0000000  0.0000000  2
   1949   1948   1950   1954     1  0.0000000  0.6508444  3
   1949   1948   1950   1952     1  0.0000000  0.6508444  3
   1949   1948   1950   1953     1  0.0000000  0.6508444  3
   1950   1954   1955   1965     1  0.0000000  1.2552000  3
   1950   1954   1955   1966     1  0.0000000  1.2552000  3
   1950   1954   1956   1957     1  0.0000000  1.2552000  3
   1950   1954   1956   1959     1  0.0000000  1.2552000  3
   1951   1948   1950   1954     1  0.0000000  0.6508444  3
   1951   1948   1950   1952     1  0.0000000  0.6508444  3
   1951   1948   1950   1953     1  0.0000000  0.6508444  3
   1952   1950   1954   1955     1  0.0000000  1.2552000  3
   1952   1950   1954   1956     1  0.0000000  1.2552000  3
   1953   1950   1954   1955     1  0.0000000  1.2552000  3
   1953   1950   1954   1956     1  0.0000000  1.2552000  3
   1954   1955   1967   1968     1  0.0000000  0.6508444  3
   1954   1955   1967   1969     1  0.0000000  0.6508444  3
   1954   1956   1958   1960     1  0.0000000  0.6508444  3
   1954   1956   1958   1961     1  0.0000000  0.6508444  3
   1955   1954   1956   1957     1  0.0000000  1.2552000  3
   1955   1954   1956   1959     1  0.0000000  1.2552000  3
   1956   1954   1955   1965     1  0.0000000  1.2552000  3
   1956   1954   1955   1966     1  0.0000000  1.2552000  3
   1957   1956   1958   1962     1  0.0000000  0.6508444  3
   1957   1956   1958   1960     1  0.0000000  0.6508444  3
   1957   1956   1958   1961     1  0.0000000  0.6508444  3
   1959   1956   1958   1962     1  0.0000000  0.6508444  3
   1959   1956   1958   1960     1  0.0000000  0.6508444  3
   1959   1956   1958   1961     1  0.0000000  0.6508444  3
   1960   1958   1962   1963     1  0.0000000  3.3472000  1
   1960   1958   1962   1963     1  0.0000000  0.0000000  2
   1960   1958   1962   1963     1  180.0000771  0.3347200  3
   1960   1958   1962   1964     1  0.0000000  3.3472000  1
   1960   1958   1962   1964     1  0.0000000  0.0000000  2
   1960   1958   1962   1964     1  180.0000771  0.3347200  3
   1961   1958   1962   1963     1  0.0000000  3.3472000  1
   1961   1958   1962   1963     1  0.0000000  0.0000000  2
   1961   1958   1962   1963     1  180.0000771  0.3347200  3
   1961   1958   1962   1964     1  0.0000000  3.3472000  1
   1961   1958   1962   1964     1  0.0000000  0.0000000  2
   1961   1958   1962   1964     1  180.0000771  0.3347200  3
   1965   1955   1967   1970     1  0.0000000  0.6508444  3
   1965   1955   1967   1968     1  0.0000000  0.6508444  3
   1965   1955   1967   1969     1  0.0000000  0.6508444  3
   1966   1955   1967   1970     1  0.0000000  0.6508444  3
   1966   1955   1967   1968     1  0.0000000  0.6508444  3
   1966   1955   1967   1969     1  0.0000000  0.6508444  3
   1968   1967   1970   1971     1  0.0000000  3.3472000  1
   1968   1967   1970   1971     1  0.0000000  0.0000000  2
   1968   1967   1970   1971     1  180.0000771  0.3347200  3
   1968   1967   1970   1972     1  0.0000000  3.3472000  1
   1968   1967   1970   1972     1  0.0000000  0.0000000  2
   1968   1967   1970   1972     1  180.0000771  0.3347200  3
   1969   1967   1970   1971     1  0.0000000  3.3472000  1
   1969   1967   1970   1971     1  0.0000000  0.0000000  2
   1969   1967   1970   1971     1  180.0000771  0.3347200  3
   1969   1967   1970   1972     1  0.0000000  3.3472000  1
   1969   1967   1970   1972     1  0.0000000  0.0000000  2
   1969   1967   1970   1972     1  180.0000771  0.3347200  3
   1973   1975   1977   1979     1  0.0000000  0.6508444  3
   1973   1975   1977   1980     1  0.0000000  0.6508444  3
   1974   1973   1975   1977     1  0.0000000  0.0000000  2
   1974   1973   1975   1976     1  0.0000000  0.0000000  2
   1974   1973   1975   1978     1  0.0000000  0.0000000  2
   1976   1975   1977   1981     1  0.0000000  0.6508444  3
   1976   1975   1977   1979     1  0.0000000  0.6508444  3
   1976   1975   1977   1980     1  0.0000000  0.6508444  3
   1977   1981   1982   1992     1  0.0000000  1.2552000  3
   1977   1981   1982   1993     1  0.0000000  1.2552000  3
   1977   1981   1983   1984     1  0.0000000  1.2552000  3
   1977   1981   1983   1986     1  0.0000000  1.2552000  3
   1978   1975   1977   1981     1  0.0000000  0.6508444  3
   1978   1975   1977   1979     1  0.0000000  0.6508444  3
   1978   1975   1977   1980     1  0.0000000  0.6508444  3
   1979   1977   1981   1982     1  0.0000000  1.2552000  3
   1979   1977   1981   1983     1  0.0000000  1.2552000  3
   1980   1977   1981   1982     1  0.0000000  1.2552000  3
   1980   1977   1981   1983     1  0.0000000  1.2552000  3
   1981   1982   1994   1995     1  0.0000000  0.6508444  3
   1981   1982   1994   1996     1  0.0000000  0.6508444  3
   1981   1983   1985   1987     1  0.0000000  0.6508444  3
   1981   1983   1985   1988     1  0.0000000  0.6508444  3
   1982   1981   1983   1984     1  0.0000000  1.2552000  3
   1982   1981   1983   1986     1  0.0000000  1.2552000  3
   1983   1981   1982   1992     1  0.0000000  1.2552000  3
   1983   1981   1982   1993     1  0.0000000  1.2552000  3
   1984   1983   1985   1989     1  0.0000000  0.6508444  3
   1984   1983   1985   1987     1  0.0000000  0.6508444  3
   1984   1983   1985   1988     1  0.0000000  0.6508444  3
   1986   1983   1985   1989     1  0.0000000  0.6508444  3
   1986   1983   1985   1987     1  0.0000000  0.6508444  3
   1986   1983   1985   1988     1  0.0000000  0.6508444  3
   1987   1985   1989   1990     1  0.0000000  3.3472000  1
   1987   1985   1989   1990     1  0.0000000  0.0000000  2
   1987   1985   1989   1990     1  180.0000771  0.3347200  3
   1987   1985   1989   1991     1  0.0000000  3.3472000  1
   1987   1985   1989   1991     1  0.0000000  0.0000000  2
   1987   1985   1989   1991     1  180.0000771  0.3347200  3
   1988   1985   1989   1990     1  0.0000000  3.3472000  1
   1988   1985   1989   1990     1  0.0000000  0.0000000  2
   1988   1985   1989   1990     1  180.0000771  0.3347200  3
   1988   1985   1989   1991     1  0.0000000  3.3472000  1
   1988   1985   1989   1991     1  0.0000000  0.0000000  2
   1988   1985   1989   1991     1  180.0000771  0.3347200  3
   1992   1982   1994   1997     1  0.0000000  0.6508444  3
   1992   1982   1994   1995     1  0.0000000  0.6508444  3
   1992   1982   1994   1996     1  0.0000000  0.6508444  3
   1993   1982   1994   1997     1  0.0000000  0.6508444  3
   1993   1982   1994   1995     1  0.0000000  0.6508444  3
   1993   1982   1994   1996     1  0.0000000  0.6508444  3
   1995   1994   1997   1998     1  0.0000000  3.3472000  1
   1995   1994   1997   1998     1  0.0000000  0.0000000  2
   1995   1994   1997   1998     1  180.0000771  0.3347200  3
   1995   1994   1997   1999     1  0.0000000  3.3472000  1
   1995   1994   1997   1999     1  0.0000000  0.0000000  2
   1995   1994   1997   1999     1  180.0000771  0.3347200  3
   1996   1994   1997   1998     1  0.0000000  3.3472000  1
   1996   1994   1997   1998     1  0.0000000  0.0000000  2
   1996   1994   1997   1998     1  180.0000771  0.3347200  3
   1996   1994   1997   1999     1  0.0000000  3.3472000  1
   1996   1994   1997   1999     1  0.0000000  0.0000000  2
   1996   1994   1997   1999     1  180.0000771  0.3347200  3
   2000   2002   2004   2006     1  0.0000000  0.6508444  3
   2000   2002   2004   2007     1  0.0000000  0.6508444  3
   2001   2000   2002   2004     1  0.0000000  0.0000000  2
   2001   2000   2002   2003     1  0.0000000  0.0000000  2
   2001   2000   2002   2005     1  0.0000000  0.0000000  2
   2003   2002   2004   2008     1  0.0000000  0.6508444  3
   2003   2002   2004   2006     1  0.0000000  0.6508444  3
   2003   2002   2004   2007     1  0.0000000  0.6508444  3
   2004   2008   2009   2019     1  0.0000000  1.2552000  3
   2004   2008   2009   2020     1  0.0000000  1.2552000  3
   2004   2008   2010   2011     1  0.0000000  1.2552000  3
   2004   2008   2010   2013     1  0.0000000  1.2552000  3
   2005   2002   2004   2008     1  0.0000000  0.6508444  3
   2005   2002   2004   2006     1  0.0000000  0.6508444  3
   2005   2002   2004   2007     1  0.0000000  0.6508444  3
   2006   2004   2008   2009     1  0.0000000  1.2552000  3
   2006   2004   2008   2010     1  0.0000000  1.2552000  3
   2007   2004   2008   2009     1  0.0000000  1.2552000  3
   2007   2004   2008   2010     1  0.0000000  1.2552000  3
   2008   2009   2021   2022     1  0.0000000  0.6508444  3
   2008   2009   2021   2023     1  0.0000000  0.6508444  3
   2008   2010   2012   2014     1  0.0000000  0.6508444  3
   2008   2010   2012   2015     1  0.0000000  0.6508444  3
   2009   2008   2010   2011     1  0.0000000  1.2552000  3
   2009   2008   2010   2013     1  0.0000000  1.2552000  3
   2010   2008   2009   2019     1  0.0000000  1.2552000  3
   2010   2008   2009   2020     1  0.0000000  1.2552000  3
   2011   2010   2012   2016     1  0.0000000  0.6508444  3
   2011   2010   2012   2014     1  0.0000000  0.6508444  3
   2011   2010   2012   2015     1  0.0000000  0.6508444  3
   2013   2010   2012   2016     1  0.0000000  0.6508444  3
   2013   2010   2012   2014     1  0.0000000  0.6508444  3
   2013   2010   2012   2015     1  0.0000000  0.6508444  3
   2014   2012   2016   2017     1  0.0000000  3.3472000  1
   2014   2012   2016   2017     1  0.0000000  0.0000000  2
   2014   2012   2016   2017     1  180.0000771  0.3347200  3
   2014   2012   2016   2018     1  0.0000000  3.3472000  1
   2014   2012   2016   2018     1  0.0000000  0.0000000  2
   2014   2012   2016   2018     1  180.0000771  0.3347200  3
   2015   2012   2016   2017     1  0.0000000  3.3472000  1
   2015   2012   2016   2017     1  0.0000000  0.0000000  2
   2015   2012   2016   2017     1  180.0000771  0.3347200  3
   2015   2012   2016   2018     1  0.0000000  3.3472000  1
   2015   2012   2016   2018     1  0.0000000  0.0000000  2
   2015   2012   2016   2018     1  180.0000771  0.3347200  3
   2019   2009   2021   2024     1  0.0000000  0.6508444  3
   2019   2009   2021   2022     1  0.0000000  0.6508444  3
   2019   2009   2021   2023     1  0.0000000  0.6508444  3
   2020   2009   2021   2024     1  0.0000000  0.6508444  3
   2020   2009   2021   2022     1  0.0000000  0.6508444  3
   2020   2009   2021   2023     1  0.0000000  0.6508444  3
   2022   2021   2024   2025     1  0.0000000  3.3472000  1
   2022   2021   2024   2025     1  0.0000000  0.0000000  2
   2022   2021   2024   2025     1  180.0000771  0.3347200  3
   2022   2021   2024   2026     1  0.0000000  3.3472000  1
   2022   2021   2024   2026     1  0.0000000  0.0000000  2
   2022   2021   2024   2026     1  180.0000771  0.3347200  3
   2023   2021   2024   2025     1  0.0000000  3.3472000  1
   2023   2021   2024   2025     1  0.0000000  0.0000000  2
   2023   2021   2024   2025     1  180.0000771  0.3347200  3
   2023   2021   2024   2026     1  0.0000000  3.3472000  1
   2023   2021   2024   2026     1  0.0000000  0.0000000  2
   2023   2021   2024   2026     1  180.0000771  0.3347200  3
   2027   2029   2031   2033     1  0.0000000  0.6508444  3
   2027   2029   2031   2034     1  0.0000000  0.6508444  3
   2028   2027   2029   2031     1  0.0000000  0.0000000  2
   2028   2027   2029   2030     1  0.0000000  0.0000000  2
   2028   2027   2029   2032     1  0.0000000  0.0000000  2
   2030   2029   2031   2035     1  0.0000000  0.6508444  3
   2030   2029   2031   2033     1  0.0000000  0.6508444  3
   2030   2029   2031   2034     1  0.0000000  0.6508444  3
   2031   2035   2036   2046     1  0.0000000  1.2552000  3
   2031   2035   2036   2047     1  0.0000000  1.2552000  3
   2031   2035   2037   2038     1  0.0000000  1.2552000  3
   2031   2035   2037   2040     1  0.0000000  1.2552000  3
   2032   2029   2031   2035     1  0.0000000  0.6508444  3
   2032   2029   2031   2033     1  0.0000000  0.6508444  3
   2032   2029   2031   2034     1  0.0000000  0.6508444  3
   2033   2031   2035   2036     1  0.0000000  1.2552000  3
   2033   2031   2035   2037     1  0.0000000  1.2552000  3
   2034   2031   2035   2036     1  0.0000000  1.2552000  3
   2034   2031   2035   2037     1  0.0000000  1.2552000  3
   2035   2036   2048   2049     1  0.0000000  0.6508444  3
   2035   2036   2048   2050     1  0.0000000  0.6508444  3
   2035   2037   2039   2041     1  0.0000000  0.6508444  3
   2035   2037   2039   2042     1  0.0000000  0.6508444  3
   2036   2035   2037   2038     1  0.0000000  1.2552000  3
   2036   2035   2037   2040     1  0.0000000  1.2552000  3
   2037   2035   2036   2046     1  0.0000000  1.2552000  3
   2037   2035   2036   2047     1  0.0000000  1.2552000  3
   2038   2037   2039   2043     1  0.0000000  0.6508444  3
   2038   2037   2039   2041     1  0.0000000  0.6508444  3
   2038   2037   2039   2042     1  0.0000000  0.6508444  3
   2040   2037   2039   2043     1  0.0000000  0.6508444  3
   2040   2037   2039   2041     1  0.0000000  0.6508444  3
   2040   2037   2039   2042     1  0.0000000  0.6508444  3
   2041   2039   2043   2044     1  0.0000000  3.3472000  1
   2041   2039   2043   2044     1  0.0000000  0.0000000  2
   2041   2039   2043   2044     1  180.0000771  0.3347200  3
   2041   2039   2043   2045     1  0.0000000  3.3472000  1
   2041   2039   2043   2045     1  0.0000000  0.0000000  2
   2041   2039   2043   2045     1  180.0000771  0.3347200  3
   2042   2039   2043   2044     1  0.0000000  3.3472000  1
   2042   2039   2043   2044     1  0.0000000  0.0000000  2
   2042   2039   2043   2044     1  180.0000771  0.3347200  3
   2042   2039   2043   2045     1  0.0000000  3.3472000  1
   2042   2039   2043   2045     1  0.0000000  0.0000000  2
   2042   2039   2043   2045     1  180.0000771  0.3347200  3
   2046   2036   2048   2051     1  0.0000000  0.6508444  3
   2046   2036   2048   2049     1  0.0000000  0.6508444  3
   2046   2036   2048   2050     1  0.0000000  0.6508444  3
   2047   2036   2048   2051     1  0.0000000  0.6508444  3
   2047   2036   2048   2049     1  0.0000000  0.6508444  3
   2047   2036   2048   2050     1  0.0000000  0.6508444  3
   2049   2048   2051   2052     1  0.0000000  3.3472000  1
   2049   2048   2051   2052     1  0.0000000  0.0000000  2
   2049   2048   2051   2052     1  180.0000771  0.3347200  3
   2049   2048   2051   2053     1  0.0000000  3.3472000  1
   2049   2048   2051   2053     1  0.0000000  0.0000000  2
   2049   2048   2051   2053     1  180.0000771  0.3347200  3
   2050   2048   2051   2052     1  0.0000000  3.3472000  1
   2050   2048   2051   2052     1  0.0000000  0.0000000  2
   2050   2048   2051   2052     1  180.0000771  0.3347200  3
   2050   2048   2051   2053     1  0.0000000  3.3472000  1
   2050   2048   2051   2053     1  0.0000000  0.0000000  2
   2050   2048   2051   2053     1  180.0000771  0.3347200  3
   2054   2056   2058   2060     1  0.0000000  0.6508444  3
   2054   2056   2058   2061     1  0.0000000  0.6508444  3
   2055   2054   2056   2058     1  0.0000000  0.0000000  2
   2055   2054   2056   2057     1  0.0000000  0.0000000  2
   2055   2054   2056   2059     1  0.0000000  0.0000000  2
   2057   2056   2058   2062     1  0.0000000  0.6508444  3
   2057   2056   2058   2060     1  0.0000000  0.6508444  3
   2057   2056   2058   2061     1  0.0000000  0.6508444  3
   2058   2062   2063   2073     1  0.0000000  1.2552000  3
   2058   2062   2063   2074     1  0.0000000  1.2552000  3
   2058   2062   2064   2065     1  0.0000000  1.2552000  3
   2058   2062   2064   2067     1  0.0000000  1.2552000  3
   2059   2056   2058   2062     1  0.0000000  0.6508444  3
   2059   2056   2058   2060     1  0.0000000  0.6508444  3
   2059   2056   2058   2061     1  0.0000000  0.6508444  3
   2060   2058   2062   2063     1  0.0000000  1.2552000  3
   2060   2058   2062   2064     1  0.0000000  1.2552000  3
   2061   2058   2062   2063     1  0.0000000  1.2552000  3
   2061   2058   2062   2064     1  0.0000000  1.2552000  3
   2062   2063   2075   2076     1  0.0000000  0.6508444  3
   2062   2063   2075   2077     1  0.0000000  0.6508444  3
   2062   2064   2066   2068     1  0.0000000  0.6508444  3
   2062   2064   2066   2069     1  0.0000000  0.6508444  3
   2063   2062   2064   2065     1  0.0000000  1.2552000  3
   2063   2062   2064   2067     1  0.0000000  1.2552000  3
   2064   2062   2063   2073     1  0.0000000  1.2552000  3
   2064   2062   2063   2074     1  0.0000000  1.2552000  3
   2065   2064   2066   2070     1  0.0000000  0.6508444  3
   2065   2064   2066   2068     1  0.0000000  0.6508444  3
   2065   2064   2066   2069     1  0.0000000  0.6508444  3
   2067   2064   2066   2070     1  0.0000000  0.6508444  3
   2067   2064   2066   2068     1  0.0000000  0.6508444  3
   2067   2064   2066   2069     1  0.0000000  0.6508444  3
   2068   2066   2070   2071     1  0.0000000  3.3472000  1
   2068   2066   2070   2071     1  0.0000000  0.0000000  2
   2068   2066   2070   2071     1  180.0000771  0.3347200  3
   2068   2066   2070   2072     1  0.0000000  3.3472000  1
   2068   2066   2070   2072     1  0.0000000  0.0000000  2
   2068   2066   2070   2072     1  180.0000771  0.3347200  3
   2069   2066   2070   2071     1  0.0000000  3.3472000  1
   2069   2066   2070   2071     1  0.0000000  0.0000000  2
   2069   2066   2070   2071     1  180.0000771  0.3347200  3
   2069   2066   2070   2072     1  0.0000000  3.3472000  1
   2069   2066   2070   2072     1  0.0000000  0.0000000  2
   2069   2066   2070   2072     1  180.0000771  0.3347200  3
   2073   2063   2075   2078     1  0.0000000  0.6508444  3
   2073   2063   2075   2076     1  0.0000000  0.6508444  3
   2073   2063   2075   2077     1  0.0000000  0.6508444  3
   2074   2063   2075   2078     1  0.0000000  0.6508444  3
   2074   2063   2075   2076     1  0.0000000  0.6508444  3
   2074   2063   2075   2077     1  0.0000000  0.6508444  3
   2076   2075   2078   2079     1  0.0000000  3.3472000  1
   2076   2075   2078   2079     1  0.0000000  0.0000000  2
   2076   2075   2078   2079     1  180.0000771  0.3347200  3
   2076   2075   2078   2080     1  0.0000000  3.3472000  1
   2076   2075   2078   2080     1  0.0000000  0.0000000  2
   2076   2075   2078   2080     1  180.0000771  0.3347200  3
   2077   2075   2078   2079     1  0.0000000  3.3472000  1
   2077   2075   2078   2079     1  0.0000000  0.0000000  2
   2077   2075   2078   2079     1  180.0000771  0.3347200  3
   2077   2075   2078   2080     1  0.0000000  3.3472000  1
   2077   2075   2078   2080     1  0.0000000  0.0000000  2
   2077   2075   2078   2080     1  180.0000771  0.3347200  3
   2081   2083   2085   2087     1  0.0000000  0.6508444  3
   2081   2083   2085   2088     1  0.0000000  0.6508444  3
   2082   2081   2083   2085     1  0.0000000  0.0000000  2
   2082   2081   2083   2084     1  0.0000000  0.0000000  2
   2082   2081   2083   2086     1  0.0000000  0.0000000  2
   2084   2083   2085   2089     1  0.0000000  0.6508444  3
   2084   2083   2085   2087     1  0.0000000  0.6508444  3
   2084   2083   2085   2088     1  0.0000000  0.6508444  3
   2085   2089   2090   2100     1  0.0000000  1.2552000  3
   2085   2089   2090   2101     1  0.0000000  1.2552000  3
   2085   2089   2091   2092     1  0.0000000  1.2552000  3
   2085   2089   2091   2094     1  0.0000000  1.2552000  3
   2086   2083   2085   2089     1  0.0000000  0.6508444  3
   2086   2083   2085   2087     1  0.0000000  0.6508444  3
   2086   2083   2085   2088     1  0.0000000  0.6508444  3
   2087   2085   2089   2090     1  0.0000000  1.2552000  3
   2087   2085   2089   2091     1  0.0000000  1.2552000  3
   2088   2085   2089   2090     1  0.0000000  1.2552000  3
   2088   2085   2089   2091     1  0.0000000  1.2552000  3
   2089   2090   2102   2103     1  0.0000000  0.6508444  3
   2089   2090   2102   2104     1  0.0000000  0.6508444  3
   2089   2091   2093   2095     1  0.0000000  0.6508444  3
   2089   2091   2093   2096     1  0.0000000  0.6508444  3
   2090   2089   2091   2092     1  0.0000000  1.2552000  3
   2090   2089   2091   2094     1  0.0000000  1.2552000  3
   2091   2089   2090   2100     1  0.0000000  1.2552000  3
   2091   2089   2090   2101     1  0.0000000  1.2552000  3
   2092   2091   2093   2097     1  0.0000000  0.6508444  3
   2092   2091   2093   2095     1  0.0000000  0.6508444  3
   2092   2091   2093   2096     1  0.0000000  0.6508444  3
   2094   2091   2093   2097     1  0.0000000  0.6508444  3
   2094   2091   2093   2095     1  0.0000000  0.6508444  3
   2094   2091   2093   2096     1  0.0000000  0.6508444  3
   2095   2093   2097   2098     1  0.0000000  3.3472000  1
   2095   2093   2097   2098     1  0.0000000  0.0000000  2
   2095   2093   2097   2098     1  180.0000771  0.3347200  3
   2095   2093   2097   2099     1  0.0000000  3.3472000  1
   2095   2093   2097   2099     1  0.0000000  0.0000000  2
   2095   2093   2097   2099     1  180.0000771  0.3347200  3
   2096   2093   2097   2098     1  0.0000000  3.3472000  1
   2096   2093   2097   2098     1  0.0000000  0.0000000  2
   2096   2093   2097   2098     1  180.0000771  0.3347200  3
   2096   2093   2097   2099     1  0.0000000  3.3472000  1
   2096   2093   2097   2099     1  0.0000000  0.0000000  2
   2096   2093   2097   2099     1  180.0000771  0.3347200  3
   2100   2090   2102   2105     1  0.0000000  0.6508444  3
   2100   2090   2102   2103     1  0.0000000  0.6508444  3
   2100   2090   2102   2104     1  0.0000000  0.6508444  3
   2101   2090   2102   2105     1  0.0000000  0.6508444  3
   2101   2090   2102   2103     1  0.0000000  0.6508444  3
   2101   2090   2102   2104     1  0.0000000  0.6508444  3
   2103   2102   2105   2106     1  0.0000000  3.3472000  1
   2103   2102   2105   2106     1  0.0000000  0.0000000  2
   2103   2102   2105   2106     1  180.0000771  0.3347200  3
   2103   2102   2105   2107     1  0.0000000  3.3472000  1
   2103   2102   2105   2107     1  0.0000000  0.0000000  2
   2103   2102   2105   2107     1  180.0000771  0.3347200  3
   2104   2102   2105   2106     1  0.0000000  3.3472000  1
   2104   2102   2105   2106     1  0.0000000  0.0000000  2
   2104   2102   2105   2106     1  180.0000771  0.3347200  3
   2104   2102   2105   2107     1  0.0000000  3.3472000  1
   2104   2102   2105   2107     1  0.0000000  0.0000000  2
   2104   2102   2105   2107     1  180.0000771  0.3347200  3
   2108   2110   2112   2114     1  0.0000000  0.6508444  3
   2108   2110   2112   2115     1  0.0000000  0.6508444  3
   2109   2108   2110   2112     1  0.0000000  0.0000000  2
   2109   2108   2110   2111     1  0.0000000  0.0000000  2
   2109   2108   2110   2113     1  0.0000000  0.0000000  2
   2111   2110   2112   2116     1  0.0000000  0.6508444  3
   2111   2110   2112   2114     1  0.0000000  0.6508444  3
   2111   2110   2112   2115     1  0.0000000  0.6508444  3
   2112   2116   2117   2127     1  0.0000000  1.2552000  3
   2112   2116   2117   2128     1  0.0000000  1.2552000  3
   2112   2116   2118   2119     1  0.0000000  1.2552000  3
   2112   2116   2118   2121     1  0.0000000  1.2552000  3
   2113   2110   2112   2116     1  0.0000000  0.6508444  3
   2113   2110   2112   2114     1  0.0000000  0.6508444  3
   2113   2110   2112   2115     1  0.0000000  0.6508444  3
   2114   2112   2116   2117     1  0.0000000  1.2552000  3
   2114   2112   2116   2118     1  0.0000000  1.2552000  3
   2115   2112   2116   2117     1  0.0000000  1.2552000  3
   2115   2112   2116   2118     1  0.0000000  1.2552000  3
   2116   2117   2129   2130     1  0.0000000  0.6508444  3
   2116   2117   2129   2131     1  0.0000000  0.6508444  3
   2116   2118   2120   2122     1  0.0000000  0.6508444  3
   2116   2118   2120   2123     1  0.0000000  0.6508444  3
   2117   2116   2118   2119     1  0.0000000  1.2552000  3
   2117   2116   2118   2121     1  0.0000000  1.2552000  3
   2118   2116   2117   2127     1  0.0000000  1.2552000  3
   2118   2116   2117   2128     1  0.0000000  1.2552000  3
   2119   2118   2120   2124     1  0.0000000  0.6508444  3
   2119   2118   2120   2122     1  0.0000000  0.6508444  3
   2119   2118   2120   2123     1  0.0000000  0.6508444  3
   2121   2118   2120   2124     1  0.0000000  0.6508444  3
   2121   2118   2120   2122     1  0.0000000  0.6508444  3
   2121   2118   2120   2123     1  0.0000000  0.6508444  3
   2122   2120   2124   2125     1  0.0000000  3.3472000  1
   2122   2120   2124   2125     1  0.0000000  0.0000000  2
   2122   2120   2124   2125     1  180.0000771  0.3347200  3
   2122   2120   2124   2126     1  0.0000000  3.3472000  1
   2122   2120   2124   2126     1  0.0000000  0.0000000  2
   2122   2120   2124   2126     1  180.0000771  0.3347200  3
   2123   2120   2124   2125     1  0.0000000  3.3472000  1
   2123   2120   2124   2125     1  0.0000000  0.0000000  2
   2123   2120   2124   2125     1  180.0000771  0.3347200  3
   2123   2120   2124   2126     1  0.0000000  3.3472000  1
   2123   2120   2124   2126     1  0.0000000  0.0000000  2
   2123   2120   2124   2126     1  180.0000771  0.3347200  3
   2127   2117   2129   2132     1  0.0000000  0.6508444  3
   2127   2117   2129   2130     1  0.0000000  0.6508444  3
   2127   2117   2129   2131     1  0.0000000  0.6508444  3
   2128   2117   2129   2132     1  0.0000000  0.6508444  3
   2128   2117   2129   2130     1  0.0000000  0.6508444  3
   2128   2117   2129   2131     1  0.0000000  0.6508444  3
   2130   2129   2132   2133     1  0.0000000  3.3472000  1
   2130   2129   2132   2133     1  0.0000000  0.0000000  2
   2130   2129   2132   2133     1  180.0000771  0.3347200  3
   2130   2129   2132   2134     1  0.0000000  3.3472000  1
   2130   2129   2132   2134     1  0.0000000  0.0000000  2
   2130   2129   2132   2134     1  180.0000771  0.3347200  3
   2131   2129   2132   2133     1  0.0000000  3.3472000  1
   2131   2129   2132   2133     1  0.0000000  0.0000000  2
   2131   2129   2132   2133     1  180.0000771  0.3347200  3
   2131   2129   2132   2134     1  0.0000000  3.3472000  1
   2131   2129   2132   2134     1  0.0000000  0.0000000  2
   2131   2129   2132   2134     1  180.0000771  0.3347200  3
   2135   2137   2139   2141     1  0.0000000  0.6508444  3
   2135   2137   2139   2142     1  0.0000000  0.6508444  3
   2136   2135   2137   2139     1  0.0000000  0.0000000  2
   2136   2135   2137   2138     1  0.0000000  0.0000000  2
   2136   2135   2137   2140     1  0.0000000  0.0000000  2
   2138   2137   2139   2143     1  0.0000000  0.6508444  3
   2138   2137   2139   2141     1  0.0000000  0.6508444  3
   2138   2137   2139   2142     1  0.0000000  0.6508444  3
   2139   2143   2144   2154     1  0.0000000  1.2552000  3
   2139   2143   2144   2155     1  0.0000000  1.2552000  3
   2139   2143   2145   2146     1  0.0000000  1.2552000  3
   2139   2143   2145   2148     1  0.0000000  1.2552000  3
   2140   2137   2139   2143     1  0.0000000  0.6508444  3
   2140   2137   2139   2141     1  0.0000000  0.6508444  3
   2140   2137   2139   2142     1  0.0000000  0.6508444  3
   2141   2139   2143   2144     1  0.0000000  1.2552000  3
   2141   2139   2143   2145     1  0.0000000  1.2552000  3
   2142   2139   2143   2144     1  0.0000000  1.2552000  3
   2142   2139   2143   2145     1  0.0000000  1.2552000  3
   2143   2144   2156   2157     1  0.0000000  0.6508444  3
   2143   2144   2156   2158     1  0.0000000  0.6508444  3
   2143   2145   2147   2149     1  0.0000000  0.6508444  3
   2143   2145   2147   2150     1  0.0000000  0.6508444  3
   2144   2143   2145   2146     1  0.0000000  1.2552000  3
   2144   2143   2145   2148     1  0.0000000  1.2552000  3
   2145   2143   2144   2154     1  0.0000000  1.2552000  3
   2145   2143   2144   2155     1  0.0000000  1.2552000  3
   2146   2145   2147   2151     1  0.0000000  0.6508444  3
   2146   2145   2147   2149     1  0.0000000  0.6508444  3
   2146   2145   2147   2150     1  0.0000000  0.6508444  3
   2148   2145   2147   2151     1  0.0000000  0.6508444  3
   2148   2145   2147   2149     1  0.0000000  0.6508444  3
   2148   2145   2147   2150     1  0.0000000  0.6508444  3
   2149   2147   2151   2152     1  0.0000000  3.3472000  1
   2149   2147   2151   2152     1  0.0000000  0.0000000  2
   2149   2147   2151   2152     1  180.0000771  0.3347200  3
   2149   2147   2151   2153     1  0.0000000  3.3472000  1
   2149   2147   2151   2153     1  0.0000000  0.0000000  2
   2149   2147   2151   2153     1  180.0000771  0.3347200  3
   2150   2147   2151   2152     1  0.0000000  3.3472000  1
   2150   2147   2151   2152     1  0.0000000  0.0000000  2
   2150   2147   2151   2152     1  180.0000771  0.3347200  3
   2150   2147   2151   2153     1  0.0000000  3.3472000  1
   2150   2147   2151   2153     1  0.0000000  0.0000000  2
   2150   2147   2151   2153     1  180.0000771  0.3347200  3
   2154   2144   2156   2159     1  0.0000000  0.6508444  3
   2154   2144   2156   2157     1  0.0000000  0.6508444  3
   2154   2144   2156   2158     1  0.0000000  0.6508444  3
   2155   2144   2156   2159     1  0.0000000  0.6508444  3
   2155   2144   2156   2157     1  0.0000000  0.6508444  3
   2155   2144   2156   2158     1  0.0000000  0.6508444  3
   2157   2156   2159   2160     1  0.0000000  3.3472000  1
   2157   2156   2159   2160     1  0.0000000  0.0000000  2
   2157   2156   2159   2160     1  180.0000771  0.3347200  3
   2157   2156   2159   2161     1  0.0000000  3.3472000  1
   2157   2156   2159   2161     1  0.0000000  0.0000000  2
   2157   2156   2159   2161     1  180.0000771  0.3347200  3
   2158   2156   2159   2160     1  0.0000000  3.3472000  1
   2158   2156   2159   2160     1  0.0000000  0.0000000  2
   2158   2156   2159   2160     1  180.0000771  0.3347200  3
   2158   2156   2159   2161     1  0.0000000  3.3472000  1
   2158   2156   2159   2161     1  0.0000000  0.0000000  2
   2158   2156   2159   2161     1  180.0000771  0.3347200  3
   2162   2164   2166   2168     1  0.0000000  0.6508444  3
   2162   2164   2166   2169     1  0.0000000  0.6508444  3
   2163   2162   2164   2166     1  0.0000000  0.0000000  2
   2163   2162   2164   2165     1  0.0000000  0.0000000  2
   2163   2162   2164   2167     1  0.0000000  0.0000000  2
   2165   2164   2166   2170     1  0.0000000  0.6508444  3
   2165   2164   2166   2168     1  0.0000000  0.6508444  3
   2165   2164   2166   2169     1  0.0000000  0.6508444  3
   2166   2170   2171   2181     1  0.0000000  1.2552000  3
   2166   2170   2171   2182     1  0.0000000  1.2552000  3
   2166   2170   2172   2173     1  0.0000000  1.2552000  3
   2166   2170   2172   2175     1  0.0000000  1.2552000  3
   2167   2164   2166   2170     1  0.0000000  0.6508444  3
   2167   2164   2166   2168     1  0.0000000  0.6508444  3
   2167   2164   2166   2169     1  0.0000000  0.6508444  3
   2168   2166   2170   2171     1  0.0000000  1.2552000  3
   2168   2166   2170   2172     1  0.0000000  1.2552000  3
   2169   2166   2170   2171     1  0.0000000  1.2552000  3
   2169   2166   2170   2172     1  0.0000000  1.2552000  3
   2170   2171   2183   2184     1  0.0000000  0.6508444  3
   2170   2171   2183   2185     1  0.0000000  0.6508444  3
   2170   2172   2174   2176     1  0.0000000  0.6508444  3
   2170   2172   2174   2177     1  0.0000000  0.6508444  3
   2171   2170   2172   2173     1  0.0000000  1.2552000  3
   2171   2170   2172   2175     1  0.0000000  1.2552000  3
   2172   2170   2171   2181     1  0.0000000  1.2552000  3
   2172   2170   2171   2182     1  0.0000000  1.2552000  3
   2173   2172   2174   2178     1  0.0000000  0.6508444  3
   2173   2172   2174   2176     1  0.0000000  0.6508444  3
   2173   2172   2174   2177     1  0.0000000  0.6508444  3
   2175   2172   2174   2178     1  0.0000000  0.6508444  3
   2175   2172   2174   2176     1  0.0000000  0.6508444  3
   2175   2172   2174   2177     1  0.0000000  0.6508444  3
   2176   2174   2178   2179     1  0.0000000  3.3472000  1
   2176   2174   2178   2179     1  0.0000000  0.0000000  2
   2176   2174   2178   2179     1  180.0000771  0.3347200  3
   2176   2174   2178   2180     1  0.0000000  3.3472000  1
   2176   2174   2178   2180     1  0.0000000  0.0000000  2
   2176   2174   2178   2180     1  180.0000771  0.3347200  3
   2177   2174   2178   2179     1  0.0000000  3.3472000  1
   2177   2174   2178   2179     1  0.0000000  0.0000000  2
   2177   2174   2178   2179     1  180.0000771  0.3347200  3
   2177   2174   2178   2180     1  0.0000000  3.3472000  1
   2177   2174   2178   2180     1  0.0000000  0.0000000  2
   2177   2174   2178   2180     1  180.0000771  0.3347200  3
   2181   2171   2183   2186     1  0.0000000  0.6508444  3
   2181   2171   2183   2184     1  0.0000000  0.6508444  3
   2181   2171   2183   2185     1  0.0000000  0.6508444  3
   2182   2171   2183   2186     1  0.0000000  0.6508444  3
   2182   2171   2183   2184     1  0.0000000  0.6508444  3
   2182   2171   2183   2185     1  0.0000000  0.6508444  3
   2184   2183   2186   2187     1  0.0000000  3.3472000  1
   2184   2183   2186   2187     1  0.0000000  0.0000000  2
   2184   2183   2186   2187     1  180.0000771  0.3347200  3
   2184   2183   2186   2188     1  0.0000000  3.3472000  1
   2184   2183   2186   2188     1  0.0000000  0.0000000  2
   2184   2183   2186   2188     1  180.0000771  0.3347200  3
   2185   2183   2186   2187     1  0.0000000  3.3472000  1
   2185   2183   2186   2187     1  0.0000000  0.0000000  2
   2185   2183   2186   2187     1  180.0000771  0.3347200  3
   2185   2183   2186   2188     1  0.0000000  3.3472000  1
   2185   2183   2186   2188     1  0.0000000  0.0000000  2
   2185   2183   2186   2188     1  180.0000771  0.3347200  3
   2189   2191   2193   2195     1  0.0000000  0.6508444  3
   2189   2191   2193   2196     1  0.0000000  0.6508444  3
   2190   2189   2191   2193     1  0.0000000  0.0000000  2
   2190   2189   2191   2192     1  0.0000000  0.0000000  2
   2190   2189   2191   2194     1  0.0000000  0.0000000  2
   2192   2191   2193   2197     1  0.0000000  0.6508444  3
   2192   2191   2193   2195     1  0.0000000  0.6508444  3
   2192   2191   2193   2196     1  0.0000000  0.6508444  3
   2193   2197   2198   2208     1  0.0000000  1.2552000  3
   2193   2197   2198   2209     1  0.0000000  1.2552000  3
   2193   2197   2199   2200     1  0.0000000  1.2552000  3
   2193   2197   2199   2202     1  0.0000000  1.2552000  3
   2194   2191   2193   2197     1  0.0000000  0.6508444  3
   2194   2191   2193   2195     1  0.0000000  0.6508444  3
   2194   2191   2193   2196     1  0.0000000  0.6508444  3
   2195   2193   2197   2198     1  0.0000000  1.2552000  3
   2195   2193   2197   2199     1  0.0000000  1.2552000  3
   2196   2193   2197   2198     1  0.0000000  1.2552000  3
   2196   2193   2197   2199     1  0.0000000  1.2552000  3
   2197   2198   2210   2211     1  0.0000000  0.6508444  3
   2197   2198   2210   2212     1  0.0000000  0.6508444  3
   2197   2199   2201   2203     1  0.0000000  0.6508444  3
   2197   2199   2201   2204     1  0.0000000  0.6508444  3
   2198   2197   2199   2200     1  0.0000000  1.2552000  3
   2198   2197   2199   2202     1  0.0000000  1.2552000  3
   2199   2197   2198   2208     1  0.0000000  1.2552000  3
   2199   2197   2198   2209     1  0.0000000  1.2552000  3
   2200   2199   2201   2205     1  0.0000000  0.6508444  3
   2200   2199   2201   2203     1  0.0000000  0.6508444  3
   2200   2199   2201   2204     1  0.0000000  0.6508444  3
   2202   2199   2201   2205     1  0.0000000  0.6508444  3
   2202   2199   2201   2203     1  0.0000000  0.6508444  3
   2202   2199   2201   2204     1  0.0000000  0.6508444  3
   2203   2201   2205   2206     1  0.0000000  3.3472000  1
   2203   2201   2205   2206     1  0.0000000  0.0000000  2
   2203   2201   2205   2206     1  180.0000771  0.3347200  3
   2203   2201   2205   2207     1  0.0000000  3.3472000  1
   2203   2201   2205   2207     1  0.0000000  0.0000000  2
   2203   2201   2205   2207     1  180.0000771  0.3347200  3
   2204   2201   2205   2206     1  0.0000000  3.3472000  1
   2204   2201   2205   2206     1  0.0000000  0.0000000  2
   2204   2201   2205   2206     1  180.0000771  0.3347200  3
   2204   2201   2205   2207     1  0.0000000  3.3472000  1
   2204   2201   2205   2207     1  0.0000000  0.0000000  2
   2204   2201   2205   2207     1  180.0000771  0.3347200  3
   2208   2198   2210   2213     1  0.0000000  0.6508444  3
   2208   2198   2210   2211     1  0.0000000  0.6508444  3
   2208   2198   2210   2212     1  0.0000000  0.6508444  3
   2209   2198   2210   2213     1  0.0000000  0.6508444  3
   2209   2198   2210   2211     1  0.0000000  0.6508444  3
   2209   2198   2210   2212     1  0.0000000  0.6508444  3
   2211   2210   2213   2214     1  0.0000000  3.3472000  1
   2211   2210   2213   2214     1  0.0000000  0.0000000  2
   2211   2210   2213   2214     1  180.0000771  0.3347200  3
   2211   2210   2213   2215     1  0.0000000  3.3472000  1
   2211   2210   2213   2215     1  0.0000000  0.0000000  2
   2211   2210   2213   2215     1  180.0000771  0.3347200  3
   2212   2210   2213   2214     1  0.0000000  3.3472000  1
   2212   2210   2213   2214     1  0.0000000  0.0000000  2
   2212   2210   2213   2214     1  180.0000771  0.3347200  3
   2212   2210   2213   2215     1  0.0000000  3.3472000  1
   2212   2210   2213   2215     1  0.0000000  0.0000000  2
   2212   2210   2213   2215     1  180.0000771  0.3347200  3
   2216   2218   2220   2222     1  0.0000000  0.6508444  3
   2216   2218   2220   2223     1  0.0000000  0.6508444  3
   2217   2216   2218   2220     1  0.0000000  0.0000000  2
   2217   2216   2218   2219     1  0.0000000  0.0000000  2
   2217   2216   2218   2221     1  0.0000000  0.0000000  2
   2219   2218   2220   2224     1  0.0000000  0.6508444  3
   2219   2218   2220   2222     1  0.0000000  0.6508444  3
   2219   2218   2220   2223     1  0.0000000  0.6508444  3
   2220   2224   2225   2235     1  0.0000000  1.2552000  3
   2220   2224   2225   2236     1  0.0000000  1.2552000  3
   2220   2224   2226   2227     1  0.0000000  1.2552000  3
   2220   2224   2226   2229     1  0.0000000  1.2552000  3
   2221   2218   2220   2224     1  0.0000000  0.6508444  3
   2221   2218   2220   2222     1  0.0000000  0.6508444  3
   2221   2218   2220   2223     1  0.0000000  0.6508444  3
   2222   2220   2224   2225     1  0.0000000  1.2552000  3
   2222   2220   2224   2226     1  0.0000000  1.2552000  3
   2223   2220   2224   2225     1  0.0000000  1.2552000  3
   2223   2220   2224   2226     1  0.0000000  1.2552000  3
   2224   2225   2237   2238     1  0.0000000  0.6508444  3
   2224   2225   2237   2239     1  0.0000000  0.6508444  3
   2224   2226   2228   2230     1  0.0000000  0.6508444  3
   2224   2226   2228   2231     1  0.0000000  0.6508444  3
   2225   2224   2226   2227     1  0.0000000  1.2552000  3
   2225   2224   2226   2229     1  0.0000000  1.2552000  3
   2226   2224   2225   2235     1  0.0000000  1.2552000  3
   2226   2224   2225   2236     1  0.0000000  1.2552000  3
   2227   2226   2228   2232     1  0.0000000  0.6508444  3
   2227   2226   2228   2230     1  0.0000000  0.6508444  3
   2227   2226   2228   2231     1  0.0000000  0.6508444  3
   2229   2226   2228   2232     1  0.0000000  0.6508444  3
   2229   2226   2228   2230     1  0.0000000  0.6508444  3
   2229   2226   2228   2231     1  0.0000000  0.6508444  3
   2230   2228   2232   2233     1  0.0000000  3.3472000  1
   2230   2228   2232   2233     1  0.0000000  0.0000000  2
   2230   2228   2232   2233     1  180.0000771  0.3347200  3
   2230   2228   2232   2234     1  0.0000000  3.3472000  1
   2230   2228   2232   2234     1  0.0000000  0.0000000  2
   2230   2228   2232   2234     1  180.0000771  0.3347200  3
   2231   2228   2232   2233     1  0.0000000  3.3472000  1
   2231   2228   2232   2233     1  0.0000000  0.0000000  2
   2231   2228   2232   2233     1  180.0000771  0.3347200  3
   2231   2228   2232   2234     1  0.0000000  3.3472000  1
   2231   2228   2232   2234     1  0.0000000  0.0000000  2
   2231   2228   2232   2234     1  180.0000771  0.3347200  3
   2235   2225   2237   2240     1  0.0000000  0.6508444  3
   2235   2225   2237   2238     1  0.0000000  0.6508444  3
   2235   2225   2237   2239     1  0.0000000  0.6508444  3
   2236   2225   2237   2240     1  0.0000000  0.6508444  3
   2236   2225   2237   2238     1  0.0000000  0.6508444  3
   2236   2225   2237   2239     1  0.0000000  0.6508444  3
   2238   2237   2240   2241     1  0.0000000  3.3472000  1
   2238   2237   2240   2241     1  0.0000000  0.0000000  2
   2238   2237   2240   2241     1  180.0000771  0.3347200  3
   2238   2237   2240   2242     1  0.0000000  3.3472000  1
   2238   2237   2240   2242     1  0.0000000  0.0000000  2
   2238   2237   2240   2242     1  180.0000771  0.3347200  3
   2239   2237   2240   2241     1  0.0000000  3.3472000  1
   2239   2237   2240   2241     1  0.0000000  0.0000000  2
   2239   2237   2240   2241     1  180.0000771  0.3347200  3
   2239   2237   2240   2242     1  0.0000000  3.3472000  1
   2239   2237   2240   2242     1  0.0000000  0.0000000  2
   2239   2237   2240   2242     1  180.0000771  0.3347200  3
   2243   2245   2247   2249     1  0.0000000  0.6508444  3
   2243   2245   2247   2250     1  0.0000000  0.6508444  3
   2244   2243   2245   2247     1  0.0000000  0.0000000  2
   2244   2243   2245   2246     1  0.0000000  0.0000000  2
   2244   2243   2245   2248     1  0.0000000  0.0000000  2
   2246   2245   2247   2251     1  0.0000000  0.6508444  3
   2246   2245   2247   2249     1  0.0000000  0.6508444  3
   2246   2245   2247   2250     1  0.0000000  0.6508444  3
   2247   2251   2252   2262     1  0.0000000  1.2552000  3
   2247   2251   2252   2263     1  0.0000000  1.2552000  3
   2247   2251   2253   2254     1  0.0000000  1.2552000  3
   2247   2251   2253   2256     1  0.0000000  1.2552000  3
   2248   2245   2247   2251     1  0.0000000  0.6508444  3
   2248   2245   2247   2249     1  0.0000000  0.6508444  3
   2248   2245   2247   2250     1  0.0000000  0.6508444  3
   2249   2247   2251   2252     1  0.0000000  1.2552000  3
   2249   2247   2251   2253     1  0.0000000  1.2552000  3
   2250   2247   2251   2252     1  0.0000000  1.2552000  3
   2250   2247   2251   2253     1  0.0000000  1.2552000  3
   2251   2252   2264   2265     1  0.0000000  0.6508444  3
   2251   2252   2264   2266     1  0.0000000  0.6508444  3
   2251   2253   2255   2257     1  0.0000000  0.6508444  3
   2251   2253   2255   2258     1  0.0000000  0.6508444  3
   2252   2251   2253   2254     1  0.0000000  1.2552000  3
   2252   2251   2253   2256     1  0.0000000  1.2552000  3
   2253   2251   2252   2262     1  0.0000000  1.2552000  3
   2253   2251   2252   2263     1  0.0000000  1.2552000  3
   2254   2253   2255   2259     1  0.0000000  0.6508444  3
   2254   2253   2255   2257     1  0.0000000  0.6508444  3
   2254   2253   2255   2258     1  0.0000000  0.6508444  3
   2256   2253   2255   2259     1  0.0000000  0.6508444  3
   2256   2253   2255   2257     1  0.0000000  0.6508444  3
   2256   2253   2255   2258     1  0.0000000  0.6508444  3
   2257   2255   2259   2260     1  0.0000000  3.3472000  1
   2257   2255   2259   2260     1  0.0000000  0.0000000  2
   2257   2255   2259   2260     1  180.0000771  0.3347200  3
   2257   2255   2259   2261     1  0.0000000  3.3472000  1
   2257   2255   2259   2261     1  0.0000000  0.0000000  2
   2257   2255   2259   2261     1  180.0000771  0.3347200  3
   2258   2255   2259   2260     1  0.0000000  3.3472000  1
   2258   2255   2259   2260     1  0.0000000  0.0000000  2
   2258   2255   2259   2260     1  180.0000771  0.3347200  3
   2258   2255   2259   2261     1  0.0000000  3.3472000  1
   2258   2255   2259   2261     1  0.0000000  0.0000000  2
   2258   2255   2259   2261     1  180.0000771  0.3347200  3
   2262   2252   2264   2267     1  0.0000000  0.6508444  3
   2262   2252   2264   2265     1  0.0000000  0.6508444  3
   2262   2252   2264   2266     1  0.0000000  0.6508444  3
   2263   2252   2264   2267     1  0.0000000  0.6508444  3
   2263   2252   2264   2265     1  0.0000000  0.6508444  3
   2263   2252   2264   2266     1  0.0000000  0.6508444  3
   2265   2264   2267   2268     1  0.0000000  3.3472000  1
   2265   2264   2267   2268     1  0.0000000  0.0000000  2
   2265   2264   2267   2268     1  180.0000771  0.3347200  3
   2265   2264   2267   2269     1  0.0000000  3.3472000  1
   2265   2264   2267   2269     1  0.0000000  0.0000000  2
   2265   2264   2267   2269     1  180.0000771  0.3347200  3
   2266   2264   2267   2268     1  0.0000000  3.3472000  1
   2266   2264   2267   2268     1  0.0000000  0.0000000  2
   2266   2264   2267   2268     1  180.0000771  0.3347200  3
   2266   2264   2267   2269     1  0.0000000  3.3472000  1
   2266   2264   2267   2269     1  0.0000000  0.0000000  2
   2266   2264   2267   2269     1  180.0000771  0.3347200  3
   2270   2272   2274   2276     1  0.0000000  0.6508444  3
   2270   2272   2274   2277     1  0.0000000  0.6508444  3
   2271   2270   2272   2274     1  0.0000000  0.0000000  2
   2271   2270   2272   2273     1  0.0000000  0.0000000  2
   2271   2270   2272   2275     1  0.0000000  0.0000000  2
   2273   2272   2274   2278     1  0.0000000  0.6508444  3
   2273   2272   2274   2276     1  0.0000000  0.6508444  3
   2273   2272   2274   2277     1  0.0000000  0.6508444  3
   2274   2278   2279   2289     1  0.0000000  1.2552000  3
   2274   2278   2279   2290     1  0.0000000  1.2552000  3
   2274   2278   2280   2281     1  0.0000000  1.2552000  3
   2274   2278   2280   2283     1  0.0000000  1.2552000  3
   2275   2272   2274   2278     1  0.0000000  0.6508444  3
   2275   2272   2274   2276     1  0.0000000  0.6508444  3
   2275   2272   2274   2277     1  0.0000000  0.6508444  3
   2276   2274   2278   2279     1  0.0000000  1.2552000  3
   2276   2274   2278   2280     1  0.0000000  1.2552000  3
   2277   2274   2278   2279     1  0.0000000  1.2552000  3
   2277   2274   2278   2280     1  0.0000000  1.2552000  3
   2278   2279   2291   2292     1  0.0000000  0.6508444  3
   2278   2279   2291   2293     1  0.0000000  0.6508444  3
   2278   2280   2282   2284     1  0.0000000  0.6508444  3
   2278   2280   2282   2285     1  0.0000000  0.6508444  3
   2279   2278   2280   2281     1  0.0000000  1.2552000  3
   2279   2278   2280   2283     1  0.0000000  1.2552000  3
   2280   2278   2279   2289     1  0.0000000  1.2552000  3
   2280   2278   2279   2290     1  0.0000000  1.2552000  3
   2281   2280   2282   2286     1  0.0000000  0.6508444  3
   2281   2280   2282   2284     1  0.0000000  0.6508444  3
   2281   2280   2282   2285     1  0.0000000  0.6508444  3
   2283   2280   2282   2286     1  0.0000000  0.6508444  3
   2283   2280   2282   2284     1  0.0000000  0.6508444  3
   2283   2280   2282   2285     1  0.0000000  0.6508444  3
   2284   2282   2286   2287     1  0.0000000  3.3472000  1
   2284   2282   2286   2287     1  0.0000000  0.0000000  2
   2284   2282   2286   2287     1  180.0000771  0.3347200  3
   2284   2282   2286   2288     1  0.0000000  3.3472000  1
   2284   2282   2286   2288     1  0.0000000  0.0000000  2
   2284   2282   2286   2288     1  180.0000771  0.3347200  3
   2285   2282   2286   2287     1  0.0000000  3.3472000  1
   2285   2282   2286   2287     1  0.0000000  0.0000000  2
   2285   2282   2286   2287     1  180.0000771  0.3347200  3
   2285   2282   2286   2288     1  0.0000000  3.3472000  1
   2285   2282   2286   2288     1  0.0000000  0.0000000  2
   2285   2282   2286   2288     1  180.0000771  0.3347200  3
   2289   2279   2291   2294     1  0.0000000  0.6508444  3
   2289   2279   2291   2292     1  0.0000000  0.6508444  3
   2289   2279   2291   2293     1  0.0000000  0.6508444  3
   2290   2279   2291   2294     1  0.0000000  0.6508444  3
   2290   2279   2291   2292     1  0.0000000  0.6508444  3
   2290   2279   2291   2293     1  0.0000000  0.6508444  3
   2292   2291   2294   2295     1  0.0000000  3.3472000  1
   2292   2291   2294   2295     1  0.0000000  0.0000000  2
   2292   2291   2294   2295     1  180.0000771  0.3347200  3
   2292   2291   2294   2296     1  0.0000000  3.3472000  1
   2292   2291   2294   2296     1  0.0000000  0.0000000  2
   2292   2291   2294   2296     1  180.0000771  0.3347200  3
   2293   2291   2294   2295     1  0.0000000  3.3472000  1
   2293   2291   2294   2295     1  0.0000000  0.0000000  2
   2293   2291   2294   2295     1  180.0000771  0.3347200  3
   2293   2291   2294   2296     1  0.0000000  3.3472000  1
   2293   2291   2294   2296     1  0.0000000  0.0000000  2
   2293   2291   2294   2296     1  180.0000771  0.3347200  3
   2297   2299   2301   2303     1  0.0000000  0.6508444  3
   2297   2299   2301   2304     1  0.0000000  0.6508444  3
   2298   2297   2299   2301     1  0.0000000  0.0000000  2
   2298   2297   2299   2300     1  0.0000000  0.0000000  2
   2298   2297   2299   2302     1  0.0000000  0.0000000  2
   2300   2299   2301   2305     1  0.0000000  0.6508444  3
   2300   2299   2301   2303     1  0.0000000  0.6508444  3
   2300   2299   2301   2304     1  0.0000000  0.6508444  3
   2301   2305   2306   2316     1  0.0000000  1.2552000  3
   2301   2305   2306   2317     1  0.0000000  1.2552000  3
   2301   2305   2307   2308     1  0.0000000  1.2552000  3
   2301   2305   2307   2310     1  0.0000000  1.2552000  3
   2302   2299   2301   2305     1  0.0000000  0.6508444  3
   2302   2299   2301   2303     1  0.0000000  0.6508444  3
   2302   2299   2301   2304     1  0.0000000  0.6508444  3
   2303   2301   2305   2306     1  0.0000000  1.2552000  3
   2303   2301   2305   2307     1  0.0000000  1.2552000  3
   2304   2301   2305   2306     1  0.0000000  1.2552000  3
   2304   2301   2305   2307     1  0.0000000  1.2552000  3
   2305   2306   2318   2319     1  0.0000000  0.6508444  3
   2305   2306   2318   2320     1  0.0000000  0.6508444  3
   2305   2307   2309   2311     1  0.0000000  0.6508444  3
   2305   2307   2309   2312     1  0.0000000  0.6508444  3
   2306   2305   2307   2308     1  0.0000000  1.2552000  3
   2306   2305   2307   2310     1  0.0000000  1.2552000  3
   2307   2305   2306   2316     1  0.0000000  1.2552000  3
   2307   2305   2306   2317     1  0.0000000  1.2552000  3
   2308   2307   2309   2313     1  0.0000000  0.6508444  3
   2308   2307   2309   2311     1  0.0000000  0.6508444  3
   2308   2307   2309   2312     1  0.0000000  0.6508444  3
   2310   2307   2309   2313     1  0.0000000  0.6508444  3
   2310   2307   2309   2311     1  0.0000000  0.6508444  3
   2310   2307   2309   2312     1  0.0000000  0.6508444  3
   2311   2309   2313   2314     1  0.0000000  3.3472000  1
   2311   2309   2313   2314     1  0.0000000  0.0000000  2
   2311   2309   2313   2314     1  180.0000771  0.3347200  3
   2311   2309   2313   2315     1  0.0000000  3.3472000  1
   2311   2309   2313   2315     1  0.0000000  0.0000000  2
   2311   2309   2313   2315     1  180.0000771  0.3347200  3
   2312   2309   2313   2314     1  0.0000000  3.3472000  1
   2312   2309   2313   2314     1  0.0000000  0.0000000  2
   2312   2309   2313   2314     1  180.0000771  0.3347200  3
   2312   2309   2313   2315     1  0.0000000  3.3472000  1
   2312   2309   2313   2315     1  0.0000000  0.0000000  2
   2312   2309   2313   2315     1  180.0000771  0.3347200  3
   2316   2306   2318   2321     1  0.0000000  0.6508444  3
   2316   2306   2318   2319     1  0.0000000  0.6508444  3
   2316   2306   2318   2320     1  0.0000000  0.6508444  3
   2317   2306   2318   2321     1  0.0000000  0.6508444  3
   2317   2306   2318   2319     1  0.0000000  0.6508444  3
   2317   2306   2318   2320     1  0.0000000  0.6508444  3
   2319   2318   2321   2322     1  0.0000000  3.3472000  1
   2319   2318   2321   2322     1  0.0000000  0.0000000  2
   2319   2318   2321   2322     1  180.0000771  0.3347200  3
   2319   2318   2321   2323     1  0.0000000  3.3472000  1
   2319   2318   2321   2323     1  0.0000000  0.0000000  2
   2319   2318   2321   2323     1  180.0000771  0.3347200  3
   2320   2318   2321   2322     1  0.0000000  3.3472000  1
   2320   2318   2321   2322     1  0.0000000  0.0000000  2
   2320   2318   2321   2322     1  180.0000771  0.3347200  3
   2320   2318   2321   2323     1  0.0000000  3.3472000  1
   2320   2318   2321   2323     1  0.0000000  0.0000000  2
   2320   2318   2321   2323     1  180.0000771  0.3347200  3
   2324   2326   2328   2330     1  0.0000000  0.6508444  3
   2324   2326   2328   2331     1  0.0000000  0.6508444  3
   2325   2324   2326   2328     1  0.0000000  0.0000000  2
   2325   2324   2326   2327     1  0.0000000  0.0000000  2
   2325   2324   2326   2329     1  0.0000000  0.0000000  2
   2327   2326   2328   2332     1  0.0000000  0.6508444  3
   2327   2326   2328   2330     1  0.0000000  0.6508444  3
   2327   2326   2328   2331     1  0.0000000  0.6508444  3
   2328   2332   2333   2343     1  0.0000000  1.2552000  3
   2328   2332   2333   2344     1  0.0000000  1.2552000  3
   2328   2332   2334   2335     1  0.0000000  1.2552000  3
   2328   2332   2334   2337     1  0.0000000  1.2552000  3
   2329   2326   2328   2332     1  0.0000000  0.6508444  3
   2329   2326   2328   2330     1  0.0000000  0.6508444  3
   2329   2326   2328   2331     1  0.0000000  0.6508444  3
   2330   2328   2332   2333     1  0.0000000  1.2552000  3
   2330   2328   2332   2334     1  0.0000000  1.2552000  3
   2331   2328   2332   2333     1  0.0000000  1.2552000  3
   2331   2328   2332   2334     1  0.0000000  1.2552000  3
   2332   2333   2345   2346     1  0.0000000  0.6508444  3
   2332   2333   2345   2347     1  0.0000000  0.6508444  3
   2332   2334   2336   2338     1  0.0000000  0.6508444  3
   2332   2334   2336   2339     1  0.0000000  0.6508444  3
   2333   2332   2334   2335     1  0.0000000  1.2552000  3
   2333   2332   2334   2337     1  0.0000000  1.2552000  3
   2334   2332   2333   2343     1  0.0000000  1.2552000  3
   2334   2332   2333   2344     1  0.0000000  1.2552000  3
   2335   2334   2336   2340     1  0.0000000  0.6508444  3
   2335   2334   2336   2338     1  0.0000000  0.6508444  3
   2335   2334   2336   2339     1  0.0000000  0.6508444  3
   2337   2334   2336   2340     1  0.0000000  0.6508444  3
   2337   2334   2336   2338     1  0.0000000  0.6508444  3
   2337   2334   2336   2339     1  0.0000000  0.6508444  3
   2338   2336   2340   2341     1  0.0000000  3.3472000  1
   2338   2336   2340   2341     1  0.0000000  0.0000000  2
   2338   2336   2340   2341     1  180.0000771  0.3347200  3
   2338   2336   2340   2342     1  0.0000000  3.3472000  1
   2338   2336   2340   2342     1  0.0000000  0.0000000  2
   2338   2336   2340   2342     1  180.0000771  0.3347200  3
   2339   2336   2340   2341     1  0.0000000  3.3472000  1
   2339   2336   2340   2341     1  0.0000000  0.0000000  2
   2339   2336   2340   2341     1  180.0000771  0.3347200  3
   2339   2336   2340   2342     1  0.0000000  3.3472000  1
   2339   2336   2340   2342     1  0.0000000  0.0000000  2
   2339   2336   2340   2342     1  180.0000771  0.3347200  3
   2343   2333   2345   2348     1  0.0000000  0.6508444  3
   2343   2333   2345   2346     1  0.0000000  0.6508444  3
   2343   2333   2345   2347     1  0.0000000  0.6508444  3
   2344   2333   2345   2348     1  0.0000000  0.6508444  3
   2344   2333   2345   2346     1  0.0000000  0.6508444  3
   2344   2333   2345   2347     1  0.0000000  0.6508444  3
   2346   2345   2348   2349     1  0.0000000  3.3472000  1
   2346   2345   2348   2349     1  0.0000000  0.0000000  2
   2346   2345   2348   2349     1  180.0000771  0.3347200  3
   2346   2345   2348   2350     1  0.0000000  3.3472000  1
   2346   2345   2348   2350     1  0.0000000  0.0000000  2
   2346   2345   2348   2350     1  180.0000771  0.3347200  3
   2347   2345   2348   2349     1  0.0000000  3.3472000  1
   2347   2345   2348   2349     1  0.0000000  0.0000000  2
   2347   2345   2348   2349     1  180.0000771  0.3347200  3
   2347   2345   2348   2350     1  0.0000000  3.3472000  1
   2347   2345   2348   2350     1  0.0000000  0.0000000  2
   2347   2345   2348   2350     1  180.0000771  0.3347200  3
   2351   2353   2355   2357     1  0.0000000  0.6508444  3
   2351   2353   2355   2358     1  0.0000000  0.6508444  3
   2352   2351   2353   2355     1  0.0000000  0.0000000  2
   2352   2351   2353   2354     1  0.0000000  0.0000000  2
   2352   2351   2353   2356     1  0.0000000  0.0000000  2
   2354   2353   2355   2359     1  0.0000000  0.6508444  3
   2354   2353   2355   2357     1  0.0000000  0.6508444  3
   2354   2353   2355   2358     1  0.0000000  0.6508444  3
   2355   2359   2360   2370     1  0.0000000  1.2552000  3
   2355   2359   2360   2371     1  0.0000000  1.2552000  3
   2355   2359   2361   2362     1  0.0000000  1.2552000  3
   2355   2359   2361   2364     1  0.0000000  1.2552000  3
   2356   2353   2355   2359     1  0.0000000  0.6508444  3
   2356   2353   2355   2357     1  0.0000000  0.6508444  3
   2356   2353   2355   2358     1  0.0000000  0.6508444  3
   2357   2355   2359   2360     1  0.0000000  1.2552000  3
   2357   2355   2359   2361     1  0.0000000  1.2552000  3
   2358   2355   2359   2360     1  0.0000000  1.2552000  3
   2358   2355   2359   2361     1  0.0000000  1.2552000  3
   2359   2360   2372   2373     1  0.0000000  0.6508444  3
   2359   2360   2372   2374     1  0.0000000  0.6508444  3
   2359   2361   2363   2365     1  0.0000000  0.6508444  3
   2359   2361   2363   2366     1  0.0000000  0.6508444  3
   2360   2359   2361   2362     1  0.0000000  1.2552000  3
   2360   2359   2361   2364     1  0.0000000  1.2552000  3
   2361   2359   2360   2370     1  0.0000000  1.2552000  3
   2361   2359   2360   2371     1  0.0000000  1.2552000  3
   2362   2361   2363   2367     1  0.0000000  0.6508444  3
   2362   2361   2363   2365     1  0.0000000  0.6508444  3
   2362   2361   2363   2366     1  0.0000000  0.6508444  3
   2364   2361   2363   2367     1  0.0000000  0.6508444  3
   2364   2361   2363   2365     1  0.0000000  0.6508444  3
   2364   2361   2363   2366     1  0.0000000  0.6508444  3
   2365   2363   2367   2368     1  0.0000000  3.3472000  1
   2365   2363   2367   2368     1  0.0000000  0.0000000  2
   2365   2363   2367   2368     1  180.0000771  0.3347200  3
   2365   2363   2367   2369     1  0.0000000  3.3472000  1
   2365   2363   2367   2369     1  0.0000000  0.0000000  2
   2365   2363   2367   2369     1  180.0000771  0.3347200  3
   2366   2363   2367   2368     1  0.0000000  3.3472000  1
   2366   2363   2367   2368     1  0.0000000  0.0000000  2
   2366   2363   2367   2368     1  180.0000771  0.3347200  3
   2366   2363   2367   2369     1  0.0000000  3.3472000  1
   2366   2363   2367   2369     1  0.0000000  0.0000000  2
   2366   2363   2367   2369     1  180.0000771  0.3347200  3
   2370   2360   2372   2375     1  0.0000000  0.6508444  3
   2370   2360   2372   2373     1  0.0000000  0.6508444  3
   2370   2360   2372   2374     1  0.0000000  0.6508444  3
   2371   2360   2372   2375     1  0.0000000  0.6508444  3
   2371   2360   2372   2373     1  0.0000000  0.6508444  3
   2371   2360   2372   2374     1  0.0000000  0.6508444  3
   2373   2372   2375   2376     1  0.0000000  3.3472000  1
   2373   2372   2375   2376     1  0.0000000  0.0000000  2
   2373   2372   2375   2376     1  180.0000771  0.3347200  3
   2373   2372   2375   2377     1  0.0000000  3.3472000  1
   2373   2372   2375   2377     1  0.0000000  0.0000000  2
   2373   2372   2375   2377     1  180.0000771  0.3347200  3
   2374   2372   2375   2376     1  0.0000000  3.3472000  1
   2374   2372   2375   2376     1  0.0000000  0.0000000  2
   2374   2372   2375   2376     1  180.0000771  0.3347200  3
   2374   2372   2375   2377     1  0.0000000  3.3472000  1
   2374   2372   2375   2377     1  0.0000000  0.0000000  2
   2374   2372   2375   2377     1  180.0000771  0.3347200  3
   2378   2380   2382   2384     1  0.0000000  0.6508444  3
   2378   2380   2382   2385     1  0.0000000  0.6508444  3
   2379   2378   2380   2382     1  0.0000000  0.0000000  2
   2379   2378   2380   2381     1  0.0000000  0.0000000  2
   2379   2378   2380   2383     1  0.0000000  0.0000000  2
   2381   2380   2382   2386     1  0.0000000  0.6508444  3
   2381   2380   2382   2384     1  0.0000000  0.6508444  3
   2381   2380   2382   2385     1  0.0000000  0.6508444  3
   2382   2386   2387   2397     1  0.0000000  1.2552000  3
   2382   2386   2387   2398     1  0.0000000  1.2552000  3
   2382   2386   2388   2389     1  0.0000000  1.2552000  3
   2382   2386   2388   2391     1  0.0000000  1.2552000  3
   2383   2380   2382   2386     1  0.0000000  0.6508444  3
   2383   2380   2382   2384     1  0.0000000  0.6508444  3
   2383   2380   2382   2385     1  0.0000000  0.6508444  3
   2384   2382   2386   2387     1  0.0000000  1.2552000  3
   2384   2382   2386   2388     1  0.0000000  1.2552000  3
   2385   2382   2386   2387     1  0.0000000  1.2552000  3
   2385   2382   2386   2388     1  0.0000000  1.2552000  3
   2386   2387   2399   2400     1  0.0000000  0.6508444  3
   2386   2387   2399   2401     1  0.0000000  0.6508444  3
   2386   2388   2390   2392     1  0.0000000  0.6508444  3
   2386   2388   2390   2393     1  0.0000000  0.6508444  3
   2387   2386   2388   2389     1  0.0000000  1.2552000  3
   2387   2386   2388   2391     1  0.0000000  1.2552000  3
   2388   2386   2387   2397     1  0.0000000  1.2552000  3
   2388   2386   2387   2398     1  0.0000000  1.2552000  3
   2389   2388   2390   2394     1  0.0000000  0.6508444  3
   2389   2388   2390   2392     1  0.0000000  0.6508444  3
   2389   2388   2390   2393     1  0.0000000  0.6508444  3
   2391   2388   2390   2394     1  0.0000000  0.6508444  3
   2391   2388   2390   2392     1  0.0000000  0.6508444  3
   2391   2388   2390   2393     1  0.0000000  0.6508444  3
   2392   2390   2394   2395     1  0.0000000  3.3472000  1
   2392   2390   2394   2395     1  0.0000000  0.0000000  2
   2392   2390   2394   2395     1  180.0000771  0.3347200  3
   2392   2390   2394   2396     1  0.0000000  3.3472000  1
   2392   2390   2394   2396     1  0.0000000  0.0000000  2
   2392   2390   2394   2396     1  180.0000771  0.3347200  3
   2393   2390   2394   2395     1  0.0000000  3.3472000  1
   2393   2390   2394   2395     1  0.0000000  0.0000000  2
   2393   2390   2394   2395     1  180.0000771  0.3347200  3
   2393   2390   2394   2396     1  0.0000000  3.3472000  1
   2393   2390   2394   2396     1  0.0000000  0.0000000  2
   2393   2390   2394   2396     1  180.0000771  0.3347200  3
   2397   2387   2399   2402     1  0.0000000  0.6508444  3
   2397   2387   2399   2400     1  0.0000000  0.6508444  3
   2397   2387   2399   2401     1  0.0000000  0.6508444  3
   2398   2387   2399   2402     1  0.0000000  0.6508444  3
   2398   2387   2399   2400     1  0.0000000  0.6508444  3
   2398   2387   2399   2401     1  0.0000000  0.6508444  3
   2400   2399   2402   2403     1  0.0000000  3.3472000  1
   2400   2399   2402   2403     1  0.0000000  0.0000000  2
   2400   2399   2402   2403     1  180.0000771  0.3347200  3
   2400   2399   2402   2404     1  0.0000000  3.3472000  1
   2400   2399   2402   2404     1  0.0000000  0.0000000  2
   2400   2399   2402   2404     1  180.0000771  0.3347200  3
   2401   2399   2402   2403     1  0.0000000  3.3472000  1
   2401   2399   2402   2403     1  0.0000000  0.0000000  2
   2401   2399   2402   2403     1  180.0000771  0.3347200  3
   2401   2399   2402   2404     1  0.0000000  3.3472000  1
   2401   2399   2402   2404     1  0.0000000  0.0000000  2
   2401   2399   2402   2404     1  180.0000771  0.3347200  3
   2405   2407   2409   2411     1  0.0000000  0.6508444  3
   2405   2407   2409   2412     1  0.0000000  0.6508444  3
   2406   2405   2407   2409     1  0.0000000  0.0000000  2
   2406   2405   2407   2408     1  0.0000000  0.0000000  2
   2406   2405   2407   2410     1  0.0000000  0.0000000  2
   2408   2407   2409   2413     1  0.0000000  0.6508444  3
   2408   2407   2409   2411     1  0.0000000  0.6508444  3
   2408   2407   2409   2412     1  0.0000000  0.6508444  3
   2409   2413   2414   2424     1  0.0000000  1.2552000  3
   2409   2413   2414   2425     1  0.0000000  1.2552000  3
   2409   2413   2415   2416     1  0.0000000  1.2552000  3
   2409   2413   2415   2418     1  0.0000000  1.2552000  3
   2410   2407   2409   2413     1  0.0000000  0.6508444  3
   2410   2407   2409   2411     1  0.0000000  0.6508444  3
   2410   2407   2409   2412     1  0.0000000  0.6508444  3
   2411   2409   2413   2414     1  0.0000000  1.2552000  3
   2411   2409   2413   2415     1  0.0000000  1.2552000  3
   2412   2409   2413   2414     1  0.0000000  1.2552000  3
   2412   2409   2413   2415     1  0.0000000  1.2552000  3
   2413   2414   2426   2427     1  0.0000000  0.6508444  3
   2413   2414   2426   2428     1  0.0000000  0.6508444  3
   2413   2415   2417   2419     1  0.0000000  0.6508444  3
   2413   2415   2417   2420     1  0.0000000  0.6508444  3
   2414   2413   2415   2416     1  0.0000000  1.2552000  3
   2414   2413   2415   2418     1  0.0000000  1.2552000  3
   2415   2413   2414   2424     1  0.0000000  1.2552000  3
   2415   2413   2414   2425     1  0.0000000  1.2552000  3
   2416   2415   2417   2421     1  0.0000000  0.6508444  3
   2416   2415   2417   2419     1  0.0000000  0.6508444  3
   2416   2415   2417   2420     1  0.0000000  0.6508444  3
   2418   2415   2417   2421     1  0.0000000  0.6508444  3
   2418   2415   2417   2419     1  0.0000000  0.6508444  3
   2418   2415   2417   2420     1  0.0000000  0.6508444  3
   2419   2417   2421   2422     1  0.0000000  3.3472000  1
   2419   2417   2421   2422     1  0.0000000  0.0000000  2
   2419   2417   2421   2422     1  180.0000771  0.3347200  3
   2419   2417   2421   2423     1  0.0000000  3.3472000  1
   2419   2417   2421   2423     1  0.0000000  0.0000000  2
   2419   2417   2421   2423     1  180.0000771  0.3347200  3
   2420   2417   2421   2422     1  0.0000000  3.3472000  1
   2420   2417   2421   2422     1  0.0000000  0.0000000  2
   2420   2417   2421   2422     1  180.0000771  0.3347200  3
   2420   2417   2421   2423     1  0.0000000  3.3472000  1
   2420   2417   2421   2423     1  0.0000000  0.0000000  2
   2420   2417   2421   2423     1  180.0000771  0.3347200  3
   2424   2414   2426   2429     1  0.0000000  0.6508444  3
   2424   2414   2426   2427     1  0.0000000  0.6508444  3
   2424   2414   2426   2428     1  0.0000000  0.6508444  3
   2425   2414   2426   2429     1  0.0000000  0.6508444  3
   2425   2414   2426   2427     1  0.0000000  0.6508444  3
   2425   2414   2426   2428     1  0.0000000  0.6508444  3
   2427   2426   2429   2430     1  0.0000000  3.3472000  1
   2427   2426   2429   2430     1  0.0000000  0.0000000  2
   2427   2426   2429   2430     1  180.0000771  0.3347200  3
   2427   2426   2429   2431     1  0.0000000  3.3472000  1
   2427   2426   2429   2431     1  0.0000000  0.0000000  2
   2427   2426   2429   2431     1  180.0000771  0.3347200  3
   2428   2426   2429   2430     1  0.0000000  3.3472000  1
   2428   2426   2429   2430     1  0.0000000  0.0000000  2
   2428   2426   2429   2430     1  180.0000771  0.3347200  3
   2428   2426   2429   2431     1  0.0000000  3.3472000  1
   2428   2426   2429   2431     1  0.0000000  0.0000000  2
   2428   2426   2429   2431     1  180.0000771  0.3347200  3
   2432   2434   2436   2438     1  0.0000000  0.6508444  3
   2432   2434   2436   2439     1  0.0000000  0.6508444  3
   2433   2432   2434   2436     1  0.0000000  0.0000000  2
   2433   2432   2434   2435     1  0.0000000  0.0000000  2
   2433   2432   2434   2437     1  0.0000000  0.0000000  2
   2435   2434   2436   2440     1  0.0000000  0.6508444  3
   2435   2434   2436   2438     1  0.0000000  0.6508444  3
   2435   2434   2436   2439     1  0.0000000  0.6508444  3
   2436   2440   2441   2451     1  0.0000000  1.2552000  3
   2436   2440   2441   2452     1  0.0000000  1.2552000  3
   2436   2440   2442   2443     1  0.0000000  1.2552000  3
   2436   2440   2442   2445     1  0.0000000  1.2552000  3
   2437   2434   2436   2440     1  0.0000000  0.6508444  3
   2437   2434   2436   2438     1  0.0000000  0.6508444  3
   2437   2434   2436   2439     1  0.0000000  0.6508444  3
   2438   2436   2440   2441     1  0.0000000  1.2552000  3
   2438   2436   2440   2442     1  0.0000000  1.2552000  3
   2439   2436   2440   2441     1  0.0000000  1.2552000  3
   2439   2436   2440   2442     1  0.0000000  1.2552000  3
   2440   2441   2453   2454     1  0.0000000  0.6508444  3
   2440   2441   2453   2455     1  0.0000000  0.6508444  3
   2440   2442   2444   2446     1  0.0000000  0.6508444  3
   2440   2442   2444   2447     1  0.0000000  0.6508444  3
   2441   2440   2442   2443     1  0.0000000  1.2552000  3
   2441   2440   2442   2445     1  0.0000000  1.2552000  3
   2442   2440   2441   2451     1  0.0000000  1.2552000  3
   2442   2440   2441   2452     1  0.0000000  1.2552000  3
   2443   2442   2444   2448     1  0.0000000  0.6508444  3
   2443   2442   2444   2446     1  0.0000000  0.6508444  3
   2443   2442   2444   2447     1  0.0000000  0.6508444  3
   2445   2442   2444   2448     1  0.0000000  0.6508444  3
   2445   2442   2444   2446     1  0.0000000  0.6508444  3
   2445   2442   2444   2447     1  0.0000000  0.6508444  3
   2446   2444   2448   2449     1  0.0000000  3.3472000  1
   2446   2444   2448   2449     1  0.0000000  0.0000000  2
   2446   2444   2448   2449     1  180.0000771  0.3347200  3
   2446   2444   2448   2450     1  0.0000000  3.3472000  1
   2446   2444   2448   2450     1  0.0000000  0.0000000  2
   2446   2444   2448   2450     1  180.0000771  0.3347200  3
   2447   2444   2448   2449     1  0.0000000  3.3472000  1
   2447   2444   2448   2449     1  0.0000000  0.0000000  2
   2447   2444   2448   2449     1  180.0000771  0.3347200  3
   2447   2444   2448   2450     1  0.0000000  3.3472000  1
   2447   2444   2448   2450     1  0.0000000  0.0000000  2
   2447   2444   2448   2450     1  180.0000771  0.3347200  3
   2451   2441   2453   2456     1  0.0000000  0.6508444  3
   2451   2441   2453   2454     1  0.0000000  0.6508444  3
   2451   2441   2453   2455     1  0.0000000  0.6508444  3
   2452   2441   2453   2456     1  0.0000000  0.6508444  3
   2452   2441   2453   2454     1  0.0000000  0.6508444  3
   2452   2441   2453   2455     1  0.0000000  0.6508444  3
   2454   2453   2456   2457     1  0.0000000  3.3472000  1
   2454   2453   2456   2457     1  0.0000000  0.0000000  2
   2454   2453   2456   2457     1  180.0000771  0.3347200  3
   2454   2453   2456   2458     1  0.0000000  3.3472000  1
   2454   2453   2456   2458     1  0.0000000  0.0000000  2
   2454   2453   2456   2458     1  180.0000771  0.3347200  3
   2455   2453   2456   2457     1  0.0000000  3.3472000  1
   2455   2453   2456   2457     1  0.0000000  0.0000000  2
   2455   2453   2456   2457     1  180.0000771  0.3347200  3
   2455   2453   2456   2458     1  0.0000000  3.3472000  1
   2455   2453   2456   2458     1  0.0000000  0.0000000  2
   2455   2453   2456   2458     1  180.0000771  0.3347200  3
   2459   2461   2463   2465     1  0.0000000  0.6508444  3
   2459   2461   2463   2466     1  0.0000000  0.6508444  3
   2460   2459   2461   2463     1  0.0000000  0.0000000  2
   2460   2459   2461   2462     1  0.0000000  0.0000000  2
   2460   2459   2461   2464     1  0.0000000  0.0000000  2
   2462   2461   2463   2467     1  0.0000000  0.6508444  3
   2462   2461   2463   2465     1  0.0000000  0.6508444  3
   2462   2461   2463   2466     1  0.0000000  0.6508444  3
   2463   2467   2468   2478     1  0.0000000  1.2552000  3
   2463   2467   2468   2479     1  0.0000000  1.2552000  3
   2463   2467   2469   2470     1  0.0000000  1.2552000  3
   2463   2467   2469   2472     1  0.0000000  1.2552000  3
   2464   2461   2463   2467     1  0.0000000  0.6508444  3
   2464   2461   2463   2465     1  0.0000000  0.6508444  3
   2464   2461   2463   2466     1  0.0000000  0.6508444  3
   2465   2463   2467   2468     1  0.0000000  1.2552000  3
   2465   2463   2467   2469     1  0.0000000  1.2552000  3
   2466   2463   2467   2468     1  0.0000000  1.2552000  3
   2466   2463   2467   2469     1  0.0000000  1.2552000  3
   2467   2468   2480   2481     1  0.0000000  0.6508444  3
   2467   2468   2480   2482     1  0.0000000  0.6508444  3
   2467   2469   2471   2473     1  0.0000000  0.6508444  3
   2467   2469   2471   2474     1  0.0000000  0.6508444  3
   2468   2467   2469   2470     1  0.0000000  1.2552000  3
   2468   2467   2469   2472     1  0.0000000  1.2552000  3
   2469   2467   2468   2478     1  0.0000000  1.2552000  3
   2469   2467   2468   2479     1  0.0000000  1.2552000  3
   2470   2469   2471   2475     1  0.0000000  0.6508444  3
   2470   2469   2471   2473     1  0.0000000  0.6508444  3
   2470   2469   2471   2474     1  0.0000000  0.6508444  3
   2472   2469   2471   2475     1  0.0000000  0.6508444  3
   2472   2469   2471   2473     1  0.0000000  0.6508444  3
   2472   2469   2471   2474     1  0.0000000  0.6508444  3
   2473   2471   2475   2476     1  0.0000000  3.3472000  1
   2473   2471   2475   2476     1  0.0000000  0.0000000  2
   2473   2471   2475   2476     1  180.0000771  0.3347200  3
   2473   2471   2475   2477     1  0.0000000  3.3472000  1
   2473   2471   2475   2477     1  0.0000000  0.0000000  2
   2473   2471   2475   2477     1  180.0000771  0.3347200  3
   2474   2471   2475   2476     1  0.0000000  3.3472000  1
   2474   2471   2475   2476     1  0.0000000  0.0000000  2
   2474   2471   2475   2476     1  180.0000771  0.3347200  3
   2474   2471   2475   2477     1  0.0000000  3.3472000  1
   2474   2471   2475   2477     1  0.0000000  0.0000000  2
   2474   2471   2475   2477     1  180.0000771  0.3347200  3
   2478   2468   2480   2483     1  0.0000000  0.6508444  3
   2478   2468   2480   2481     1  0.0000000  0.6508444  3
   2478   2468   2480   2482     1  0.0000000  0.6508444  3
   2479   2468   2480   2483     1  0.0000000  0.6508444  3
   2479   2468   2480   2481     1  0.0000000  0.6508444  3
   2479   2468   2480   2482     1  0.0000000  0.6508444  3
   2481   2480   2483   2484     1  0.0000000  3.3472000  1
   2481   2480   2483   2484     1  0.0000000  0.0000000  2
   2481   2480   2483   2484     1  180.0000771  0.3347200  3
   2481   2480   2483   2485     1  0.0000000  3.3472000  1
   2481   2480   2483   2485     1  0.0000000  0.0000000  2
   2481   2480   2483   2485     1  180.0000771  0.3347200  3
   2482   2480   2483   2484     1  0.0000000  3.3472000  1
   2482   2480   2483   2484     1  0.0000000  0.0000000  2
   2482   2480   2483   2484     1  180.0000771  0.3347200  3
   2482   2480   2483   2485     1  0.0000000  3.3472000  1
   2482   2480   2483   2485     1  0.0000000  0.0000000  2
   2482   2480   2483   2485     1  180.0000771  0.3347200  3
   2486   2488   2490   2492     1  0.0000000  0.6508444  3
   2486   2488   2490   2493     1  0.0000000  0.6508444  3
   2487   2486   2488   2490     1  0.0000000  0.0000000  2
   2487   2486   2488   2489     1  0.0000000  0.0000000  2
   2487   2486   2488   2491     1  0.0000000  0.0000000  2
   2489   2488   2490   2494     1  0.0000000  0.6508444  3
   2489   2488   2490   2492     1  0.0000000  0.6508444  3
   2489   2488   2490   2493     1  0.0000000  0.6508444  3
   2490   2494   2495   2505     1  0.0000000  1.2552000  3
   2490   2494   2495   2506     1  0.0000000  1.2552000  3
   2490   2494   2496   2497     1  0.0000000  1.2552000  3
   2490   2494   2496   2499     1  0.0000000  1.2552000  3
   2491   2488   2490   2494     1  0.0000000  0.6508444  3
   2491   2488   2490   2492     1  0.0000000  0.6508444  3
   2491   2488   2490   2493     1  0.0000000  0.6508444  3
   2492   2490   2494   2495     1  0.0000000  1.2552000  3
   2492   2490   2494   2496     1  0.0000000  1.2552000  3
   2493   2490   2494   2495     1  0.0000000  1.2552000  3
   2493   2490   2494   2496     1  0.0000000  1.2552000  3
   2494   2495   2507   2508     1  0.0000000  0.6508444  3
   2494   2495   2507   2509     1  0.0000000  0.6508444  3
   2494   2496   2498   2500     1  0.0000000  0.6508444  3
   2494   2496   2498   2501     1  0.0000000  0.6508444  3
   2495   2494   2496   2497     1  0.0000000  1.2552000  3
   2495   2494   2496   2499     1  0.0000000  1.2552000  3
   2496   2494   2495   2505     1  0.0000000  1.2552000  3
   2496   2494   2495   2506     1  0.0000000  1.2552000  3
   2497   2496   2498   2502     1  0.0000000  0.6508444  3
   2497   2496   2498   2500     1  0.0000000  0.6508444  3
   2497   2496   2498   2501     1  0.0000000  0.6508444  3
   2499   2496   2498   2502     1  0.0000000  0.6508444  3
   2499   2496   2498   2500     1  0.0000000  0.6508444  3
   2499   2496   2498   2501     1  0.0000000  0.6508444  3
   2500   2498   2502   2503     1  0.0000000  3.3472000  1
   2500   2498   2502   2503     1  0.0000000  0.0000000  2
   2500   2498   2502   2503     1  180.0000771  0.3347200  3
   2500   2498   2502   2504     1  0.0000000  3.3472000  1
   2500   2498   2502   2504     1  0.0000000  0.0000000  2
   2500   2498   2502   2504     1  180.0000771  0.3347200  3
   2501   2498   2502   2503     1  0.0000000  3.3472000  1
   2501   2498   2502   2503     1  0.0000000  0.0000000  2
   2501   2498   2502   2503     1  180.0000771  0.3347200  3
   2501   2498   2502   2504     1  0.0000000  3.3472000  1
   2501   2498   2502   2504     1  0.0000000  0.0000000  2
   2501   2498   2502   2504     1  180.0000771  0.3347200  3
   2505   2495   2507   2510     1  0.0000000  0.6508444  3
   2505   2495   2507   2508     1  0.0000000  0.6508444  3
   2505   2495   2507   2509     1  0.0000000  0.6508444  3
   2506   2495   2507   2510     1  0.0000000  0.6508444  3
   2506   2495   2507   2508     1  0.0000000  0.6508444  3
   2506   2495   2507   2509     1  0.0000000  0.6508444  3
   2508   2507   2510   2511     1  0.0000000  3.3472000  1
   2508   2507   2510   2511     1  0.0000000  0.0000000  2
   2508   2507   2510   2511     1  180.0000771  0.3347200  3
   2508   2507   2510   2512     1  0.0000000  3.3472000  1
   2508   2507   2510   2512     1  0.0000000  0.0000000  2
   2508   2507   2510   2512     1  180.0000771  0.3347200  3
   2509   2507   2510   2511     1  0.0000000  3.3472000  1
   2509   2507   2510   2511     1  0.0000000  0.0000000  2
   2509   2507   2510   2511     1  180.0000771  0.3347200  3
   2509   2507   2510   2512     1  0.0000000  3.3472000  1
   2509   2507   2510   2512     1  0.0000000  0.0000000  2
   2509   2507   2510   2512     1  180.0000771  0.3347200  3
   2513   2515   2517   2519     1  0.0000000  0.6508444  3
   2513   2515   2517   2520     1  0.0000000  0.6508444  3
   2514   2513   2515   2517     1  0.0000000  0.0000000  2
   2514   2513   2515   2516     1  0.0000000  0.0000000  2
   2514   2513   2515   2518     1  0.0000000  0.0000000  2
   2516   2515   2517   2521     1  0.0000000  0.6508444  3
   2516   2515   2517   2519     1  0.0000000  0.6508444  3
   2516   2515   2517   2520     1  0.0000000  0.6508444  3
   2517   2521   2522   2532     1  0.0000000  1.2552000  3
   2517   2521   2522   2533     1  0.0000000  1.2552000  3
   2517   2521   2523   2524     1  0.0000000  1.2552000  3
   2517   2521   2523   2526     1  0.0000000  1.2552000  3
   2518   2515   2517   2521     1  0.0000000  0.6508444  3
   2518   2515   2517   2519     1  0.0000000  0.6508444  3
   2518   2515   2517   2520     1  0.0000000  0.6508444  3
   2519   2517   2521   2522     1  0.0000000  1.2552000  3
   2519   2517   2521   2523     1  0.0000000  1.2552000  3
   2520   2517   2521   2522     1  0.0000000  1.2552000  3
   2520   2517   2521   2523     1  0.0000000  1.2552000  3
   2521   2522   2534   2535     1  0.0000000  0.6508444  3
   2521   2522   2534   2536     1  0.0000000  0.6508444  3
   2521   2523   2525   2527     1  0.0000000  0.6508444  3
   2521   2523   2525   2528     1  0.0000000  0.6508444  3
   2522   2521   2523   2524     1  0.0000000  1.2552000  3
   2522   2521   2523   2526     1  0.0000000  1.2552000  3
   2523   2521   2522   2532     1  0.0000000  1.2552000  3
   2523   2521   2522   2533     1  0.0000000  1.2552000  3
   2524   2523   2525   2529     1  0.0000000  0.6508444  3
   2524   2523   2525   2527     1  0.0000000  0.6508444  3
   2524   2523   2525   2528     1  0.0000000  0.6508444  3
   2526   2523   2525   2529     1  0.0000000  0.6508444  3
   2526   2523   2525   2527     1  0.0000000  0.6508444  3
   2526   2523   2525   2528     1  0.0000000  0.6508444  3
   2527   2525   2529   2530     1  0.0000000  3.3472000  1
   2527   2525   2529   2530     1  0.0000000  0.0000000  2
   2527   2525   2529   2530     1  180.0000771  0.3347200  3
   2527   2525   2529   2531     1  0.0000000  3.3472000  1
   2527   2525   2529   2531     1  0.0000000  0.0000000  2
   2527   2525   2529   2531     1  180.0000771  0.3347200  3
   2528   2525   2529   2530     1  0.0000000  3.3472000  1
   2528   2525   2529   2530     1  0.0000000  0.0000000  2
   2528   2525   2529   2530     1  180.0000771  0.3347200  3
   2528   2525   2529   2531     1  0.0000000  3.3472000  1
   2528   2525   2529   2531     1  0.0000000  0.0000000  2
   2528   2525   2529   2531     1  180.0000771  0.3347200  3
   2532   2522   2534   2537     1  0.0000000  0.6508444  3
   2532   2522   2534   2535     1  0.0000000  0.6508444  3
   2532   2522   2534   2536     1  0.0000000  0.6508444  3
   2533   2522   2534   2537     1  0.0000000  0.6508444  3
   2533   2522   2534   2535     1  0.0000000  0.6508444  3
   2533   2522   2534   2536     1  0.0000000  0.6508444  3
   2535   2534   2537   2538     1  0.0000000  3.3472000  1
   2535   2534   2537   2538     1  0.0000000  0.0000000  2
   2535   2534   2537   2538     1  180.0000771  0.3347200  3
   2535   2534   2537   2539     1  0.0000000  3.3472000  1
   2535   2534   2537   2539     1  0.0000000  0.0000000  2
   2535   2534   2537   2539     1  180.0000771  0.3347200  3
   2536   2534   2537   2538     1  0.0000000  3.3472000  1
   2536   2534   2537   2538     1  0.0000000  0.0000000  2
   2536   2534   2537   2538     1  180.0000771  0.3347200  3
   2536   2534   2537   2539     1  0.0000000  3.3472000  1
   2536   2534   2537   2539     1  0.0000000  0.0000000  2
   2536   2534   2537   2539     1  180.0000771  0.3347200  3
   2540   2542   2544   2546     1  0.0000000  0.6508444  3
   2540   2542   2544   2547     1  0.0000000  0.6508444  3
   2541   2540   2542   2544     1  0.0000000  0.0000000  2
   2541   2540   2542   2543     1  0.0000000  0.0000000  2
   2541   2540   2542   2545     1  0.0000000  0.0000000  2
   2543   2542   2544   2548     1  0.0000000  0.6508444  3
   2543   2542   2544   2546     1  0.0000000  0.6508444  3
   2543   2542   2544   2547     1  0.0000000  0.6508444  3
   2544   2548   2549   2559     1  0.0000000  1.2552000  3
   2544   2548   2549   2560     1  0.0000000  1.2552000  3
   2544   2548   2550   2551     1  0.0000000  1.2552000  3
   2544   2548   2550   2553     1  0.0000000  1.2552000  3
   2545   2542   2544   2548     1  0.0000000  0.6508444  3
   2545   2542   2544   2546     1  0.0000000  0.6508444  3
   2545   2542   2544   2547     1  0.0000000  0.6508444  3
   2546   2544   2548   2549     1  0.0000000  1.2552000  3
   2546   2544   2548   2550     1  0.0000000  1.2552000  3
   2547   2544   2548   2549     1  0.0000000  1.2552000  3
   2547   2544   2548   2550     1  0.0000000  1.2552000  3
   2548   2549   2561   2562     1  0.0000000  0.6508444  3
   2548   2549   2561   2563     1  0.0000000  0.6508444  3
   2548   2550   2552   2554     1  0.0000000  0.6508444  3
   2548   2550   2552   2555     1  0.0000000  0.6508444  3
   2549   2548   2550   2551     1  0.0000000  1.2552000  3
   2549   2548   2550   2553     1  0.0000000  1.2552000  3
   2550   2548   2549   2559     1  0.0000000  1.2552000  3
   2550   2548   2549   2560     1  0.0000000  1.2552000  3
   2551   2550   2552   2556     1  0.0000000  0.6508444  3
   2551   2550   2552   2554     1  0.0000000  0.6508444  3
   2551   2550   2552   2555     1  0.0000000  0.6508444  3
   2553   2550   2552   2556     1  0.0000000  0.6508444  3
   2553   2550   2552   2554     1  0.0000000  0.6508444  3
   2553   2550   2552   2555     1  0.0000000  0.6508444  3
   2554   2552   2556   2557     1  0.0000000  3.3472000  1
   2554   2552   2556   2557     1  0.0000000  0.0000000  2
   2554   2552   2556   2557     1  180.0000771  0.3347200  3
   2554   2552   2556   2558     1  0.0000000  3.3472000  1
   2554   2552   2556   2558     1  0.0000000  0.0000000  2
   2554   2552   2556   2558     1  180.0000771  0.3347200  3
   2555   2552   2556   2557     1  0.0000000  3.3472000  1
   2555   2552   2556   2557     1  0.0000000  0.0000000  2
   2555   2552   2556   2557     1  180.0000771  0.3347200  3
   2555   2552   2556   2558     1  0.0000000  3.3472000  1
   2555   2552   2556   2558     1  0.0000000  0.0000000  2
   2555   2552   2556   2558     1  180.0000771  0.3347200  3
   2559   2549   2561   2564     1  0.0000000  0.6508444  3
   2559   2549   2561   2562     1  0.0000000  0.6508444  3
   2559   2549   2561   2563     1  0.0000000  0.6508444  3
   2560   2549   2561   2564     1  0.0000000  0.6508444  3
   2560   2549   2561   2562     1  0.0000000  0.6508444  3
   2560   2549   2561   2563     1  0.0000000  0.6508444  3
   2562   2561   2564   2565     1  0.0000000  3.3472000  1
   2562   2561   2564   2565     1  0.0000000  0.0000000  2
   2562   2561   2564   2565     1  180.0000771  0.3347200  3
   2562   2561   2564   2566     1  0.0000000  3.3472000  1
   2562   2561   2564   2566     1  0.0000000  0.0000000  2
   2562   2561   2564   2566     1  180.0000771  0.3347200  3
   2563   2561   2564   2565     1  0.0000000  3.3472000  1
   2563   2561   2564   2565     1  0.0000000  0.0000000  2
   2563   2561   2564   2565     1  180.0000771  0.3347200  3
   2563   2561   2564   2566     1  0.0000000  3.3472000  1
   2563   2561   2564   2566     1  0.0000000  0.0000000  2
   2563   2561   2564   2566     1  180.0000771  0.3347200  3
   2567   2569   2571   2573     1  0.0000000  0.6508444  3
   2567   2569   2571   2574     1  0.0000000  0.6508444  3
   2568   2567   2569   2571     1  0.0000000  0.0000000  2
   2568   2567   2569   2570     1  0.0000000  0.0000000  2
   2568   2567   2569   2572     1  0.0000000  0.0000000  2
   2570   2569   2571   2575     1  0.0000000  0.6508444  3
   2570   2569   2571   2573     1  0.0000000  0.6508444  3
   2570   2569   2571   2574     1  0.0000000  0.6508444  3
   2571   2575   2576   2586     1  0.0000000  1.2552000  3
   2571   2575   2576   2587     1  0.0000000  1.2552000  3
   2571   2575   2577   2578     1  0.0000000  1.2552000  3
   2571   2575   2577   2580     1  0.0000000  1.2552000  3
   2572   2569   2571   2575     1  0.0000000  0.6508444  3
   2572   2569   2571   2573     1  0.0000000  0.6508444  3
   2572   2569   2571   2574     1  0.0000000  0.6508444  3
   2573   2571   2575   2576     1  0.0000000  1.2552000  3
   2573   2571   2575   2577     1  0.0000000  1.2552000  3
   2574   2571   2575   2576     1  0.0000000  1.2552000  3
   2574   2571   2575   2577     1  0.0000000  1.2552000  3
   2575   2576   2588   2589     1  0.0000000  0.6508444  3
   2575   2576   2588   2590     1  0.0000000  0.6508444  3
   2575   2577   2579   2581     1  0.0000000  0.6508444  3
   2575   2577   2579   2582     1  0.0000000  0.6508444  3
   2576   2575   2577   2578     1  0.0000000  1.2552000  3
   2576   2575   2577   2580     1  0.0000000  1.2552000  3
   2577   2575   2576   2586     1  0.0000000  1.2552000  3
   2577   2575   2576   2587     1  0.0000000  1.2552000  3
   2578   2577   2579   2583     1  0.0000000  0.6508444  3
   2578   2577   2579   2581     1  0.0000000  0.6508444  3
   2578   2577   2579   2582     1  0.0000000  0.6508444  3
   2580   2577   2579   2583     1  0.0000000  0.6508444  3
   2580   2577   2579   2581     1  0.0000000  0.6508444  3
   2580   2577   2579   2582     1  0.0000000  0.6508444  3
   2581   2579   2583   2584     1  0.0000000  3.3472000  1
   2581   2579   2583   2584     1  0.0000000  0.0000000  2
   2581   2579   2583   2584     1  180.0000771  0.3347200  3
   2581   2579   2583   2585     1  0.0000000  3.3472000  1
   2581   2579   2583   2585     1  0.0000000  0.0000000  2
   2581   2579   2583   2585     1  180.0000771  0.3347200  3
   2582   2579   2583   2584     1  0.0000000  3.3472000  1
   2582   2579   2583   2584     1  0.0000000  0.0000000  2
   2582   2579   2583   2584     1  180.0000771  0.3347200  3
   2582   2579   2583   2585     1  0.0000000  3.3472000  1
   2582   2579   2583   2585     1  0.0000000  0.0000000  2
   2582   2579   2583   2585     1  180.0000771  0.3347200  3
   2586   2576   2588   2591     1  0.0000000  0.6508444  3
   2586   2576   2588   2589     1  0.0000000  0.6508444  3
   2586   2576   2588   2590     1  0.0000000  0.6508444  3
   2587   2576   2588   2591     1  0.0000000  0.6508444  3
   2587   2576   2588   2589     1  0.0000000  0.6508444  3
   2587   2576   2588   2590     1  0.0000000  0.6508444  3
   2589   2588   2591   2592     1  0.0000000  3.3472000  1
   2589   2588   2591   2592     1  0.0000000  0.0000000  2
   2589   2588   2591   2592     1  180.0000771  0.3347200  3
   2589   2588   2591   2593     1  0.0000000  3.3472000  1
   2589   2588   2591   2593     1  0.0000000  0.0000000  2
   2589   2588   2591   2593     1  180.0000771  0.3347200  3
   2590   2588   2591   2592     1  0.0000000  3.3472000  1
   2590   2588   2591   2592     1  0.0000000  0.0000000  2
   2590   2588   2591   2592     1  180.0000771  0.3347200  3
   2590   2588   2591   2593     1  0.0000000  3.3472000  1
   2590   2588   2591   2593     1  0.0000000  0.0000000  2
   2590   2588   2591   2593     1  180.0000771  0.3347200  3
   2594   2596   2598   2600     1  0.0000000  0.6508444  3
   2594   2596   2598   2601     1  0.0000000  0.6508444  3
   2595   2594   2596   2598     1  0.0000000  0.0000000  2
   2595   2594   2596   2597     1  0.0000000  0.0000000  2
   2595   2594   2596   2599     1  0.0000000  0.0000000  2
   2597   2596   2598   2602     1  0.0000000  0.6508444  3
   2597   2596   2598   2600     1  0.0000000  0.6508444  3
   2597   2596   2598   2601     1  0.0000000  0.6508444  3
   2598   2602   2603   2613     1  0.0000000  1.2552000  3
   2598   2602   2603   2614     1  0.0000000  1.2552000  3
   2598   2602   2604   2605     1  0.0000000  1.2552000  3
   2598   2602   2604   2607     1  0.0000000  1.2552000  3
   2599   2596   2598   2602     1  0.0000000  0.6508444  3
   2599   2596   2598   2600     1  0.0000000  0.6508444  3
   2599   2596   2598   2601     1  0.0000000  0.6508444  3
   2600   2598   2602   2603     1  0.0000000  1.2552000  3
   2600   2598   2602   2604     1  0.0000000  1.2552000  3
   2601   2598   2602   2603     1  0.0000000  1.2552000  3
   2601   2598   2602   2604     1  0.0000000  1.2552000  3
   2602   2603   2615   2616     1  0.0000000  0.6508444  3
   2602   2603   2615   2617     1  0.0000000  0.6508444  3
   2602   2604   2606   2608     1  0.0000000  0.6508444  3
   2602   2604   2606   2609     1  0.0000000  0.6508444  3
   2603   2602   2604   2605     1  0.0000000  1.2552000  3
   2603   2602   2604   2607     1  0.0000000  1.2552000  3
   2604   2602   2603   2613     1  0.0000000  1.2552000  3
   2604   2602   2603   2614     1  0.0000000  1.2552000  3
   2605   2604   2606   2610     1  0.0000000  0.6508444  3
   2605   2604   2606   2608     1  0.0000000  0.6508444  3
   2605   2604   2606   2609     1  0.0000000  0.6508444  3
   2607   2604   2606   2610     1  0.0000000  0.6508444  3
   2607   2604   2606   2608     1  0.0000000  0.6508444  3
   2607   2604   2606   2609     1  0.0000000  0.6508444  3
   2608   2606   2610   2611     1  0.0000000  3.3472000  1
   2608   2606   2610   2611     1  0.0000000  0.0000000  2
   2608   2606   2610   2611     1  180.0000771  0.3347200  3
   2608   2606   2610   2612     1  0.0000000  3.3472000  1
   2608   2606   2610   2612     1  0.0000000  0.0000000  2
   2608   2606   2610   2612     1  180.0000771  0.3347200  3
   2609   2606   2610   2611     1  0.0000000  3.3472000  1
   2609   2606   2610   2611     1  0.0000000  0.0000000  2
   2609   2606   2610   2611     1  180.0000771  0.3347200  3
   2609   2606   2610   2612     1  0.0000000  3.3472000  1
   2609   2606   2610   2612     1  0.0000000  0.0000000  2
   2609   2606   2610   2612     1  180.0000771  0.3347200  3
   2613   2603   2615   2618     1  0.0000000  0.6508444  3
   2613   2603   2615   2616     1  0.0000000  0.6508444  3
   2613   2603   2615   2617     1  0.0000000  0.6508444  3
   2614   2603   2615   2618     1  0.0000000  0.6508444  3
   2614   2603   2615   2616     1  0.0000000  0.6508444  3
   2614   2603   2615   2617     1  0.0000000  0.6508444  3
   2616   2615   2618   2619     1  0.0000000  3.3472000  1
   2616   2615   2618   2619     1  0.0000000  0.0000000  2
   2616   2615   2618   2619     1  180.0000771  0.3347200  3
   2616   2615   2618   2620     1  0.0000000  3.3472000  1
   2616   2615   2618   2620     1  0.0000000  0.0000000  2
   2616   2615   2618   2620     1  180.0000771  0.3347200  3
   2617   2615   2618   2619     1  0.0000000  3.3472000  1
   2617   2615   2618   2619     1  0.0000000  0.0000000  2
   2617   2615   2618   2619     1  180.0000771  0.3347200  3
   2617   2615   2618   2620     1  0.0000000  3.3472000  1
   2617   2615   2618   2620     1  0.0000000  0.0000000  2
   2617   2615   2618   2620     1  180.0000771  0.3347200  3
   2621   2623   2625   2627     1  0.0000000  0.6508444  3
   2621   2623   2625   2628     1  0.0000000  0.6508444  3
   2622   2621   2623   2625     1  0.0000000  0.0000000  2
   2622   2621   2623   2624     1  0.0000000  0.0000000  2
   2622   2621   2623   2626     1  0.0000000  0.0000000  2
   2624   2623   2625   2629     1  0.0000000  0.6508444  3
   2624   2623   2625   2627     1  0.0000000  0.6508444  3
   2624   2623   2625   2628     1  0.0000000  0.6508444  3
   2625   2629   2630   2640     1  0.0000000  1.2552000  3
   2625   2629   2630   2641     1  0.0000000  1.2552000  3
   2625   2629   2631   2632     1  0.0000000  1.2552000  3
   2625   2629   2631   2634     1  0.0000000  1.2552000  3
   2626   2623   2625   2629     1  0.0000000  0.6508444  3
   2626   2623   2625   2627     1  0.0000000  0.6508444  3
   2626   2623   2625   2628     1  0.0000000  0.6508444  3
   2627   2625   2629   2630     1  0.0000000  1.2552000  3
   2627   2625   2629   2631     1  0.0000000  1.2552000  3
   2628   2625   2629   2630     1  0.0000000  1.2552000  3
   2628   2625   2629   2631     1  0.0000000  1.2552000  3
   2629   2630   2642   2643     1  0.0000000  0.6508444  3
   2629   2630   2642   2644     1  0.0000000  0.6508444  3
   2629   2631   2633   2635     1  0.0000000  0.6508444  3
   2629   2631   2633   2636     1  0.0000000  0.6508444  3
   2630   2629   2631   2632     1  0.0000000  1.2552000  3
   2630   2629   2631   2634     1  0.0000000  1.2552000  3
   2631   2629   2630   2640     1  0.0000000  1.2552000  3
   2631   2629   2630   2641     1  0.0000000  1.2552000  3
   2632   2631   2633   2637     1  0.0000000  0.6508444  3
   2632   2631   2633   2635     1  0.0000000  0.6508444  3
   2632   2631   2633   2636     1  0.0000000  0.6508444  3
   2634   2631   2633   2637     1  0.0000000  0.6508444  3
   2634   2631   2633   2635     1  0.0000000  0.6508444  3
   2634   2631   2633   2636     1  0.0000000  0.6508444  3
   2635   2633   2637   2638     1  0.0000000  3.3472000  1
   2635   2633   2637   2638     1  0.0000000  0.0000000  2
   2635   2633   2637   2638     1  180.0000771  0.3347200  3
   2635   2633   2637   2639     1  0.0000000  3.3472000  1
   2635   2633   2637   2639     1  0.0000000  0.0000000  2
   2635   2633   2637   2639     1  180.0000771  0.3347200  3
   2636   2633   2637   2638     1  0.0000000  3.3472000  1
   2636   2633   2637   2638     1  0.0000000  0.0000000  2
   2636   2633   2637   2638     1  180.0000771  0.3347200  3
   2636   2633   2637   2639     1  0.0000000  3.3472000  1
   2636   2633   2637   2639     1  0.0000000  0.0000000  2
   2636   2633   2637   2639     1  180.0000771  0.3347200  3
   2640   2630   2642   2645     1  0.0000000  0.6508444  3
   2640   2630   2642   2643     1  0.0000000  0.6508444  3
   2640   2630   2642   2644     1  0.0000000  0.6508444  3
   2641   2630   2642   2645     1  0.0000000  0.6508444  3
   2641   2630   2642   2643     1  0.0000000  0.6508444  3
   2641   2630   2642   2644     1  0.0000000  0.6508444  3
   2643   2642   2645   2646     1  0.0000000  3.3472000  1
   2643   2642   2645   2646     1  0.0000000  0.0000000  2
   2643   2642   2645   2646     1  180.0000771  0.3347200  3
   2643   2642   2645   2647     1  0.0000000  3.3472000  1
   2643   2642   2645   2647     1  0.0000000  0.0000000  2
   2643   2642   2645   2647     1  180.0000771  0.3347200  3
   2644   2642   2645   2646     1  0.0000000  3.3472000  1
   2644   2642   2645   2646     1  0.0000000  0.0000000  2
   2644   2642   2645   2646     1  180.0000771  0.3347200  3
   2644   2642   2645   2647     1  0.0000000  3.3472000  1
   2644   2642   2645   2647     1  0.0000000  0.0000000  2
   2644   2642   2645   2647     1  180.0000771  0.3347200  3
   2648   2650   2652   2654     1  0.0000000  0.6508444  3
   2648   2650   2652   2655     1  0.0000000  0.6508444  3
   2649   2648   2650   2652     1  0.0000000  0.0000000  2
   2649   2648   2650   2651     1  0.0000000  0.0000000  2
   2649   2648   2650   2653     1  0.0000000  0.0000000  2
   2651   2650   2652   2656     1  0.0000000  0.6508444  3
   2651   2650   2652   2654     1  0.0000000  0.6508444  3
   2651   2650   2652   2655     1  0.0000000  0.6508444  3
   2652   2656   2657   2667     1  0.0000000  1.2552000  3
   2652   2656   2657   2668     1  0.0000000  1.2552000  3
   2652   2656   2658   2659     1  0.0000000  1.2552000  3
   2652   2656   2658   2661     1  0.0000000  1.2552000  3
   2653   2650   2652   2656     1  0.0000000  0.6508444  3
   2653   2650   2652   2654     1  0.0000000  0.6508444  3
   2653   2650   2652   2655     1  0.0000000  0.6508444  3
   2654   2652   2656   2657     1  0.0000000  1.2552000  3
   2654   2652   2656   2658     1  0.0000000  1.2552000  3
   2655   2652   2656   2657     1  0.0000000  1.2552000  3
   2655   2652   2656   2658     1  0.0000000  1.2552000  3
   2656   2657   2669   2670     1  0.0000000  0.6508444  3
   2656   2657   2669   2671     1  0.0000000  0.6508444  3
   2656   2658   2660   2662     1  0.0000000  0.6508444  3
   2656   2658   2660   2663     1  0.0000000  0.6508444  3
   2657   2656   2658   2659     1  0.0000000  1.2552000  3
   2657   2656   2658   2661     1  0.0000000  1.2552000  3
   2658   2656   2657   2667     1  0.0000000  1.2552000  3
   2658   2656   2657   2668     1  0.0000000  1.2552000  3
   2659   2658   2660   2664     1  0.0000000  0.6508444  3
   2659   2658   2660   2662     1  0.0000000  0.6508444  3
   2659   2658   2660   2663     1  0.0000000  0.6508444  3
   2661   2658   2660   2664     1  0.0000000  0.6508444  3
   2661   2658   2660   2662     1  0.0000000  0.6508444  3
   2661   2658   2660   2663     1  0.0000000  0.6508444  3
   2662   2660   2664   2665     1  0.0000000  3.3472000  1
   2662   2660   2664   2665     1  0.0000000  0.0000000  2
   2662   2660   2664   2665     1  180.0000771  0.3347200  3
   2662   2660   2664   2666     1  0.0000000  3.3472000  1
   2662   2660   2664   2666     1  0.0000000  0.0000000  2
   2662   2660   2664   2666     1  180.0000771  0.3347200  3
   2663   2660   2664   2665     1  0.0000000  3.3472000  1
   2663   2660   2664   2665     1  0.0000000  0.0000000  2
   2663   2660   2664   2665     1  180.0000771  0.3347200  3
   2663   2660   2664   2666     1  0.0000000  3.3472000  1
   2663   2660   2664   2666     1  0.0000000  0.0000000  2
   2663   2660   2664   2666     1  180.0000771  0.3347200  3
   2667   2657   2669   2672     1  0.0000000  0.6508444  3
   2667   2657   2669   2670     1  0.0000000  0.6508444  3
   2667   2657   2669   2671     1  0.0000000  0.6508444  3
   2668   2657   2669   2672     1  0.0000000  0.6508444  3
   2668   2657   2669   2670     1  0.0000000  0.6508444  3
   2668   2657   2669   2671     1  0.0000000  0.6508444  3
   2670   2669   2672   2673     1  0.0000000  3.3472000  1
   2670   2669   2672   2673     1  0.0000000  0.0000000  2
   2670   2669   2672   2673     1  180.0000771  0.3347200  3
   2670   2669   2672   2674     1  0.0000000  3.3472000  1
   2670   2669   2672   2674     1  0.0000000  0.0000000  2
   2670   2669   2672   2674     1  180.0000771  0.3347200  3
   2671   2669   2672   2673     1  0.0000000  3.3472000  1
   2671   2669   2672   2673     1  0.0000000  0.0000000  2
   2671   2669   2672   2673     1  180.0000771  0.3347200  3
   2671   2669   2672   2674     1  0.0000000  3.3472000  1
   2671   2669   2672   2674     1  0.0000000  0.0000000  2
   2671   2669   2672   2674     1  180.0000771  0.3347200  3
   2675   2677   2679   2681     1  0.0000000  0.6508444  3
   2675   2677   2679   2682     1  0.0000000  0.6508444  3
   2676   2675   2677   2679     1  0.0000000  0.0000000  2
   2676   2675   2677   2678     1  0.0000000  0.0000000  2
   2676   2675   2677   2680     1  0.0000000  0.0000000  2
   2678   2677   2679   2683     1  0.0000000  0.6508444  3
   2678   2677   2679   2681     1  0.0000000  0.6508444  3
   2678   2677   2679   2682     1  0.0000000  0.6508444  3
   2679   2683   2684   2694     1  0.0000000  1.2552000  3
   2679   2683   2684   2695     1  0.0000000  1.2552000  3
   2679   2683   2685   2686     1  0.0000000  1.2552000  3
   2679   2683   2685   2688     1  0.0000000  1.2552000  3
   2680   2677   2679   2683     1  0.0000000  0.6508444  3
   2680   2677   2679   2681     1  0.0000000  0.6508444  3
   2680   2677   2679   2682     1  0.0000000  0.6508444  3
   2681   2679   2683   2684     1  0.0000000  1.2552000  3
   2681   2679   2683   2685     1  0.0000000  1.2552000  3
   2682   2679   2683   2684     1  0.0000000  1.2552000  3
   2682   2679   2683   2685     1  0.0000000  1.2552000  3
   2683   2684   2696   2697     1  0.0000000  0.6508444  3
   2683   2684   2696   2698     1  0.0000000  0.6508444  3
   2683   2685   2687   2689     1  0.0000000  0.6508444  3
   2683   2685   2687   2690     1  0.0000000  0.6508444  3
   2684   2683   2685   2686     1  0.0000000  1.2552000  3
   2684   2683   2685   2688     1  0.0000000  1.2552000  3
   2685   2683   2684   2694     1  0.0000000  1.2552000  3
   2685   2683   2684   2695     1  0.0000000  1.2552000  3
   2686   2685   2687   2691     1  0.0000000  0.6508444  3
   2686   2685   2687   2689     1  0.0000000  0.6508444  3
   2686   2685   2687   2690     1  0.0000000  0.6508444  3
   2688   2685   2687   2691     1  0.0000000  0.6508444  3
   2688   2685   2687   2689     1  0.0000000  0.6508444  3
   2688   2685   2687   2690     1  0.0000000  0.6508444  3
   2689   2687   2691   2692     1  0.0000000  3.3472000  1
   2689   2687   2691   2692     1  0.0000000  0.0000000  2
   2689   2687   2691   2692     1  180.0000771  0.3347200  3
   2689   2687   2691   2693     1  0.0000000  3.3472000  1
   2689   2687   2691   2693     1  0.0000000  0.0000000  2
   2689   2687   2691   2693     1  180.0000771  0.3347200  3
   2690   2687   2691   2692     1  0.0000000  3.3472000  1
   2690   2687   2691   2692     1  0.0000000  0.0000000  2
   2690   2687   2691   2692     1  180.0000771  0.3347200  3
   2690   2687   2691   2693     1  0.0000000  3.3472000  1
   2690   2687   2691   2693     1  0.0000000  0.0000000  2
   2690   2687   2691   2693     1  180.0000771  0.3347200  3
   2694   2684   2696   2699     1  0.0000000  0.6508444  3
   2694   2684   2696   2697     1  0.0000000  0.6508444  3
   2694   2684   2696   2698     1  0.0000000  0.6508444  3
   2695   2684   2696   2699     1  0.0000000  0.6508444  3
   2695   2684   2696   2697     1  0.0000000  0.6508444  3
   2695   2684   2696   2698     1  0.0000000  0.6508444  3
   2697   2696   2699   2700     1  0.0000000  3.3472000  1
   2697   2696   2699   2700     1  0.0000000  0.0000000  2
   2697   2696   2699   2700     1  180.0000771  0.3347200  3
   2697   2696   2699   2701     1  0.0000000  3.3472000  1
   2697   2696   2699   2701     1  0.0000000  0.0000000  2
   2697   2696   2699   2701     1  180.0000771  0.3347200  3
   2698   2696   2699   2700     1  0.0000000  3.3472000  1
   2698   2696   2699   2700     1  0.0000000  0.0000000  2
   2698   2696   2699   2700     1  180.0000771  0.3347200  3
   2698   2696   2699   2701     1  0.0000000  3.3472000  1
   2698   2696   2699   2701     1  0.0000000  0.0000000  2
   2698   2696   2699   2701     1  180.0000771  0.3347200  3
   2702   2704   2706   2708     1  0.0000000  0.6508444  3
   2702   2704   2706   2709     1  0.0000000  0.6508444  3
   2703   2702   2704   2706     1  0.0000000  0.0000000  2
   2703   2702   2704   2705     1  0.0000000  0.0000000  2
   2703   2702   2704   2707     1  0.0000000  0.0000000  2
   2705   2704   2706   2710     1  0.0000000  0.6508444  3
   2705   2704   2706   2708     1  0.0000000  0.6508444  3
   2705   2704   2706   2709     1  0.0000000  0.6508444  3
   2706   2710   2711   2721     1  0.0000000  1.2552000  3
   2706   2710   2711   2722     1  0.0000000  1.2552000  3
   2706   2710   2712   2713     1  0.0000000  1.2552000  3
   2706   2710   2712   2715     1  0.0000000  1.2552000  3
   2707   2704   2706   2710     1  0.0000000  0.6508444  3
   2707   2704   2706   2708     1  0.0000000  0.6508444  3
   2707   2704   2706   2709     1  0.0000000  0.6508444  3
   2708   2706   2710   2711     1  0.0000000  1.2552000  3
   2708   2706   2710   2712     1  0.0000000  1.2552000  3
   2709   2706   2710   2711     1  0.0000000  1.2552000  3
   2709   2706   2710   2712     1  0.0000000  1.2552000  3
   2710   2711   2723   2724     1  0.0000000  0.6508444  3
   2710   2711   2723   2725     1  0.0000000  0.6508444  3
   2710   2712   2714   2716     1  0.0000000  0.6508444  3
   2710   2712   2714   2717     1  0.0000000  0.6508444  3
   2711   2710   2712   2713     1  0.0000000  1.2552000  3
   2711   2710   2712   2715     1  0.0000000  1.2552000  3
   2712   2710   2711   2721     1  0.0000000  1.2552000  3
   2712   2710   2711   2722     1  0.0000000  1.2552000  3
   2713   2712   2714   2718     1  0.0000000  0.6508444  3
   2713   2712   2714   2716     1  0.0000000  0.6508444  3
   2713   2712   2714   2717     1  0.0000000  0.6508444  3
   2715   2712   2714   2718     1  0.0000000  0.6508444  3
   2715   2712   2714   2716     1  0.0000000  0.6508444  3
   2715   2712   2714   2717     1  0.0000000  0.6508444  3
   2716   2714   2718   2719     1  0.0000000  3.3472000  1
   2716   2714   2718   2719     1  0.0000000  0.0000000  2
   2716   2714   2718   2719     1  180.0000771  0.3347200  3
   2716   2714   2718   2720     1  0.0000000  3.3472000  1
   2716   2714   2718   2720     1  0.0000000  0.0000000  2
   2716   2714   2718   2720     1  180.0000771  0.3347200  3
   2717   2714   2718   2719     1  0.0000000  3.3472000  1
   2717   2714   2718   2719     1  0.0000000  0.0000000  2
   2717   2714   2718   2719     1  180.0000771  0.3347200  3
   2717   2714   2718   2720     1  0.0000000  3.3472000  1
   2717   2714   2718   2720     1  0.0000000  0.0000000  2
   2717   2714   2718   2720     1  180.0000771  0.3347200  3
   2721   2711   2723   2726     1  0.0000000  0.6508444  3
   2721   2711   2723   2724     1  0.0000000  0.6508444  3
   2721   2711   2723   2725     1  0.0000000  0.6508444  3
   2722   2711   2723   2726     1  0.0000000  0.6508444  3
   2722   2711   2723   2724     1  0.0000000  0.6508444  3
   2722   2711   2723   2725     1  0.0000000  0.6508444  3
   2724   2723   2726   2727     1  0.0000000  3.3472000  1
   2724   2723   2726   2727     1  0.0000000  0.0000000  2
   2724   2723   2726   2727     1  180.0000771  0.3347200  3
   2724   2723   2726   2728     1  0.0000000  3.3472000  1
   2724   2723   2726   2728     1  0.0000000  0.0000000  2
   2724   2723   2726   2728     1  180.0000771  0.3347200  3
   2725   2723   2726   2727     1  0.0000000  3.3472000  1
   2725   2723   2726   2727     1  0.0000000  0.0000000  2
   2725   2723   2726   2727     1  180.0000771  0.3347200  3
   2725   2723   2726   2728     1  0.0000000  3.3472000  1
   2725   2723   2726   2728     1  0.0000000  0.0000000  2
   2725   2723   2726   2728     1  180.0000771  0.3347200  3
   2729   2731   2733   2735     1  0.0000000  0.6508444  3
   2729   2731   2733   2736     1  0.0000000  0.6508444  3
   2730   2729   2731   2733     1  0.0000000  0.0000000  2
   2730   2729   2731   2732     1  0.0000000  0.0000000  2
   2730   2729   2731   2734     1  0.0000000  0.0000000  2
   2732   2731   2733   2737     1  0.0000000  0.6508444  3
   2732   2731   2733   2735     1  0.0000000  0.6508444  3
   2732   2731   2733   2736     1  0.0000000  0.6508444  3
   2733   2737   2738   2748     1  0.0000000  1.2552000  3
   2733   2737   2738   2749     1  0.0000000  1.2552000  3
   2733   2737   2739   2740     1  0.0000000  1.2552000  3
   2733   2737   2739   2742     1  0.0000000  1.2552000  3
   2734   2731   2733   2737     1  0.0000000  0.6508444  3
   2734   2731   2733   2735     1  0.0000000  0.6508444  3
   2734   2731   2733   2736     1  0.0000000  0.6508444  3
   2735   2733   2737   2738     1  0.0000000  1.2552000  3
   2735   2733   2737   2739     1  0.0000000  1.2552000  3
   2736   2733   2737   2738     1  0.0000000  1.2552000  3
   2736   2733   2737   2739     1  0.0000000  1.2552000  3
   2737   2738   2750   2751     1  0.0000000  0.6508444  3
   2737   2738   2750   2752     1  0.0000000  0.6508444  3
   2737   2739   2741   2743     1  0.0000000  0.6508444  3
   2737   2739   2741   2744     1  0.0000000  0.6508444  3
   2738   2737   2739   2740     1  0.0000000  1.2552000  3
   2738   2737   2739   2742     1  0.0000000  1.2552000  3
   2739   2737   2738   2748     1  0.0000000  1.2552000  3
   2739   2737   2738   2749     1  0.0000000  1.2552000  3
   2740   2739   2741   2745     1  0.0000000  0.6508444  3
   2740   2739   2741   2743     1  0.0000000  0.6508444  3
   2740   2739   2741   2744     1  0.0000000  0.6508444  3
   2742   2739   2741   2745     1  0.0000000  0.6508444  3
   2742   2739   2741   2743     1  0.0000000  0.6508444  3
   2742   2739   2741   2744     1  0.0000000  0.6508444  3
   2743   2741   2745   2746     1  0.0000000  3.3472000  1
   2743   2741   2745   2746     1  0.0000000  0.0000000  2
   2743   2741   2745   2746     1  180.0000771  0.3347200  3
   2743   2741   2745   2747     1  0.0000000  3.3472000  1
   2743   2741   2745   2747     1  0.0000000  0.0000000  2
   2743   2741   2745   2747     1  180.0000771  0.3347200  3
   2744   2741   2745   2746     1  0.0000000  3.3472000  1
   2744   2741   2745   2746     1  0.0000000  0.0000000  2
   2744   2741   2745   2746     1  180.0000771  0.3347200  3
   2744   2741   2745   2747     1  0.0000000  3.3472000  1
   2744   2741   2745   2747     1  0.0000000  0.0000000  2
   2744   2741   2745   2747     1  180.0000771  0.3347200  3
   2748   2738   2750   2753     1  0.0000000  0.6508444  3
   2748   2738   2750   2751     1  0.0000000  0.6508444  3
   2748   2738   2750   2752     1  0.0000000  0.6508444  3
   2749   2738   2750   2753     1  0.0000000  0.6508444  3
   2749   2738   2750   2751     1  0.0000000  0.6508444  3
   2749   2738   2750   2752     1  0.0000000  0.6508444  3
   2751   2750   2753   2754     1  0.0000000  3.3472000  1
   2751   2750   2753   2754     1  0.0000000  0.0000000  2
   2751   2750   2753   2754     1  180.0000771  0.3347200  3
   2751   2750   2753   2755     1  0.0000000  3.3472000  1
   2751   2750   2753   2755     1  0.0000000  0.0000000  2
   2751   2750   2753   2755     1  180.0000771  0.3347200  3
   2752   2750   2753   2754     1  0.0000000  3.3472000  1
   2752   2750   2753   2754     1  0.0000000  0.0000000  2
   2752   2750   2753   2754     1  180.0000771  0.3347200  3
   2752   2750   2753   2755     1  0.0000000  3.3472000  1
   2752   2750   2753   2755     1  0.0000000  0.0000000  2
   2752   2750   2753   2755     1  180.0000771  0.3347200  3
   2756   2758   2760   2762     1  0.0000000  0.6508444  3
   2756   2758   2760   2763     1  0.0000000  0.6508444  3
   2757   2756   2758   2760     1  0.0000000  0.0000000  2
   2757   2756   2758   2759     1  0.0000000  0.0000000  2
   2757   2756   2758   2761     1  0.0000000  0.0000000  2
   2759   2758   2760   2764     1  0.0000000  0.6508444  3
   2759   2758   2760   2762     1  0.0000000  0.6508444  3
   2759   2758   2760   2763     1  0.0000000  0.6508444  3
   2760   2764   2765   2775     1  0.0000000  1.2552000  3
   2760   2764   2765   2776     1  0.0000000  1.2552000  3
   2760   2764   2766   2767     1  0.0000000  1.2552000  3
   2760   2764   2766   2769     1  0.0000000  1.2552000  3
   2761   2758   2760   2764     1  0.0000000  0.6508444  3
   2761   2758   2760   2762     1  0.0000000  0.6508444  3
   2761   2758   2760   2763     1  0.0000000  0.6508444  3
   2762   2760   2764   2765     1  0.0000000  1.2552000  3
   2762   2760   2764   2766     1  0.0000000  1.2552000  3
   2763   2760   2764   2765     1  0.0000000  1.2552000  3
   2763   2760   2764   2766     1  0.0000000  1.2552000  3
   2764   2765   2777   2778     1  0.0000000  0.6508444  3
   2764   2765   2777   2779     1  0.0000000  0.6508444  3
   2764   2766   2768   2770     1  0.0000000  0.6508444  3
   2764   2766   2768   2771     1  0.0000000  0.6508444  3
   2765   2764   2766   2767     1  0.0000000  1.2552000  3
   2765   2764   2766   2769     1  0.0000000  1.2552000  3
   2766   2764   2765   2775     1  0.0000000  1.2552000  3
   2766   2764   2765   2776     1  0.0000000  1.2552000  3
   2767   2766   2768   2772     1  0.0000000  0.6508444  3
   2767   2766   2768   2770     1  0.0000000  0.6508444  3
   2767   2766   2768   2771     1  0.0000000  0.6508444  3
   2769   2766   2768   2772     1  0.0000000  0.6508444  3
   2769   2766   2768   2770     1  0.0000000  0.6508444  3
   2769   2766   2768   2771     1  0.0000000  0.6508444  3
   2770   2768   2772   2773     1  0.0000000  3.3472000  1
   2770   2768   2772   2773     1  0.0000000  0.0000000  2
   2770   2768   2772   2773     1  180.0000771  0.3347200  3
   2770   2768   2772   2774     1  0.0000000  3.3472000  1
   2770   2768   2772   2774     1  0.0000000  0.0000000  2
   2770   2768   2772   2774     1  180.0000771  0.3347200  3
   2771   2768   2772   2773     1  0.0000000  3.3472000  1
   2771   2768   2772   2773     1  0.0000000  0.0000000  2
   2771   2768   2772   2773     1  180.0000771  0.3347200  3
   2771   2768   2772   2774     1  0.0000000  3.3472000  1
   2771   2768   2772   2774     1  0.0000000  0.0000000  2
   2771   2768   2772   2774     1  180.0000771  0.3347200  3
   2775   2765   2777   2780     1  0.0000000  0.6508444  3
   2775   2765   2777   2778     1  0.0000000  0.6508444  3
   2775   2765   2777   2779     1  0.0000000  0.6508444  3
   2776   2765   2777   2780     1  0.0000000  0.6508444  3
   2776   2765   2777   2778     1  0.0000000  0.6508444  3
   2776   2765   2777   2779     1  0.0000000  0.6508444  3
   2778   2777   2780   2781     1  0.0000000  3.3472000  1
   2778   2777   2780   2781     1  0.0000000  0.0000000  2
   2778   2777   2780   2781     1  180.0000771  0.3347200  3
   2778   2777   2780   2782     1  0.0000000  3.3472000  1
   2778   2777   2780   2782     1  0.0000000  0.0000000  2
   2778   2777   2780   2782     1  180.0000771  0.3347200  3
   2779   2777   2780   2781     1  0.0000000  3.3472000  1
   2779   2777   2780   2781     1  0.0000000  0.0000000  2
   2779   2777   2780   2781     1  180.0000771  0.3347200  3
   2779   2777   2780   2782     1  0.0000000  3.3472000  1
   2779   2777   2780   2782     1  0.0000000  0.0000000  2
   2779   2777   2780   2782     1  180.0000771  0.3347200  3
   2783   2785   2787   2789     1  0.0000000  0.6508444  3
   2783   2785   2787   2790     1  0.0000000  0.6508444  3
   2784   2783   2785   2787     1  0.0000000  0.0000000  2
   2784   2783   2785   2786     1  0.0000000  0.0000000  2
   2784   2783   2785   2788     1  0.0000000  0.0000000  2
   2786   2785   2787   2791     1  0.0000000  0.6508444  3
   2786   2785   2787   2789     1  0.0000000  0.6508444  3
   2786   2785   2787   2790     1  0.0000000  0.6508444  3
   2787   2791   2792   2802     1  0.0000000  1.2552000  3
   2787   2791   2792   2803     1  0.0000000  1.2552000  3
   2787   2791   2793   2794     1  0.0000000  1.2552000  3
   2787   2791   2793   2796     1  0.0000000  1.2552000  3
   2788   2785   2787   2791     1  0.0000000  0.6508444  3
   2788   2785   2787   2789     1  0.0000000  0.6508444  3
   2788   2785   2787   2790     1  0.0000000  0.6508444  3
   2789   2787   2791   2792     1  0.0000000  1.2552000  3
   2789   2787   2791   2793     1  0.0000000  1.2552000  3
   2790   2787   2791   2792     1  0.0000000  1.2552000  3
   2790   2787   2791   2793     1  0.0000000  1.2552000  3
   2791   2792   2804   2805     1  0.0000000  0.6508444  3
   2791   2792   2804   2806     1  0.0000000  0.6508444  3
   2791   2793   2795   2797     1  0.0000000  0.6508444  3
   2791   2793   2795   2798     1  0.0000000  0.6508444  3
   2792   2791   2793   2794     1  0.0000000  1.2552000  3
   2792   2791   2793   2796     1  0.0000000  1.2552000  3
   2793   2791   2792   2802     1  0.0000000  1.2552000  3
   2793   2791   2792   2803     1  0.0000000  1.2552000  3
   2794   2793   2795   2799     1  0.0000000  0.6508444  3
   2794   2793   2795   2797     1  0.0000000  0.6508444  3
   2794   2793   2795   2798     1  0.0000000  0.6508444  3
   2796   2793   2795   2799     1  0.0000000  0.6508444  3
   2796   2793   2795   2797     1  0.0000000  0.6508444  3
   2796   2793   2795   2798     1  0.0000000  0.6508444  3
   2797   2795   2799   2800     1  0.0000000  3.3472000  1
   2797   2795   2799   2800     1  0.0000000  0.0000000  2
   2797   2795   2799   2800     1  180.0000771  0.3347200  3
   2797   2795   2799   2801     1  0.0000000  3.3472000  1
   2797   2795   2799   2801     1  0.0000000  0.0000000  2
   2797   2795   2799   2801     1  180.0000771  0.3347200  3
   2798   2795   2799   2800     1  0.0000000  3.3472000  1
   2798   2795   2799   2800     1  0.0000000  0.0000000  2
   2798   2795   2799   2800     1  180.0000771  0.3347200  3
   2798   2795   2799   2801     1  0.0000000  3.3472000  1
   2798   2795   2799   2801     1  0.0000000  0.0000000  2
   2798   2795   2799   2801     1  180.0000771  0.3347200  3
   2802   2792   2804   2807     1  0.0000000  0.6508444  3
   2802   2792   2804   2805     1  0.0000000  0.6508444  3
   2802   2792   2804   2806     1  0.0000000  0.6508444  3
   2803   2792   2804   2807     1  0.0000000  0.6508444  3
   2803   2792   2804   2805     1  0.0000000  0.6508444  3
   2803   2792   2804   2806     1  0.0000000  0.6508444  3
   2805   2804   2807   2808     1  0.0000000  3.3472000  1
   2805   2804   2807   2808     1  0.0000000  0.0000000  2
   2805   2804   2807   2808     1  180.0000771  0.3347200  3
   2805   2804   2807   2809     1  0.0000000  3.3472000  1
   2805   2804   2807   2809     1  0.0000000  0.0000000  2
   2805   2804   2807   2809     1  180.0000771  0.3347200  3
   2806   2804   2807   2808     1  0.0000000  3.3472000  1
   2806   2804   2807   2808     1  0.0000000  0.0000000  2
   2806   2804   2807   2808     1  180.0000771  0.3347200  3
   2806   2804   2807   2809     1  0.0000000  3.3472000  1
   2806   2804   2807   2809     1  0.0000000  0.0000000  2
   2806   2804   2807   2809     1  180.0000771  0.3347200  3
   2810   2812   2814   2816     1  0.0000000  0.6508444  3
   2810   2812   2814   2817     1  0.0000000  0.6508444  3
   2811   2810   2812   2814     1  0.0000000  0.0000000  2
   2811   2810   2812   2813     1  0.0000000  0.0000000  2
   2811   2810   2812   2815     1  0.0000000  0.0000000  2
   2813   2812   2814   2818     1  0.0000000  0.6508444  3
   2813   2812   2814   2816     1  0.0000000  0.6508444  3
   2813   2812   2814   2817     1  0.0000000  0.6508444  3
   2814   2818   2819   2829     1  0.0000000  1.2552000  3
   2814   2818   2819   2830     1  0.0000000  1.2552000  3
   2814   2818   2820   2821     1  0.0000000  1.2552000  3
   2814   2818   2820   2823     1  0.0000000  1.2552000  3
   2815   2812   2814   2818     1  0.0000000  0.6508444  3
   2815   2812   2814   2816     1  0.0000000  0.6508444  3
   2815   2812   2814   2817     1  0.0000000  0.6508444  3
   2816   2814   2818   2819     1  0.0000000  1.2552000  3
   2816   2814   2818   2820     1  0.0000000  1.2552000  3
   2817   2814   2818   2819     1  0.0000000  1.2552000  3
   2817   2814   2818   2820     1  0.0000000  1.2552000  3
   2818   2819   2831   2832     1  0.0000000  0.6508444  3
   2818   2819   2831   2833     1  0.0000000  0.6508444  3
   2818   2820   2822   2824     1  0.0000000  0.6508444  3
   2818   2820   2822   2825     1  0.0000000  0.6508444  3
   2819   2818   2820   2821     1  0.0000000  1.2552000  3
   2819   2818   2820   2823     1  0.0000000  1.2552000  3
   2820   2818   2819   2829     1  0.0000000  1.2552000  3
   2820   2818   2819   2830     1  0.0000000  1.2552000  3
   2821   2820   2822   2826     1  0.0000000  0.6508444  3
   2821   2820   2822   2824     1  0.0000000  0.6508444  3
   2821   2820   2822   2825     1  0.0000000  0.6508444  3
   2823   2820   2822   2826     1  0.0000000  0.6508444  3
   2823   2820   2822   2824     1  0.0000000  0.6508444  3
   2823   2820   2822   2825     1  0.0000000  0.6508444  3
   2824   2822   2826   2827     1  0.0000000  3.3472000  1
   2824   2822   2826   2827     1  0.0000000  0.0000000  2
   2824   2822   2826   2827     1  180.0000771  0.3347200  3
   2824   2822   2826   2828     1  0.0000000  3.3472000  1
   2824   2822   2826   2828     1  0.0000000  0.0000000  2
   2824   2822   2826   2828     1  180.0000771  0.3347200  3
   2825   2822   2826   2827     1  0.0000000  3.3472000  1
   2825   2822   2826   2827     1  0.0000000  0.0000000  2
   2825   2822   2826   2827     1  180.0000771  0.3347200  3
   2825   2822   2826   2828     1  0.0000000  3.3472000  1
   2825   2822   2826   2828     1  0.0000000  0.0000000  2
   2825   2822   2826   2828     1  180.0000771  0.3347200  3
   2829   2819   2831   2834     1  0.0000000  0.6508444  3
   2829   2819   2831   2832     1  0.0000000  0.6508444  3
   2829   2819   2831   2833     1  0.0000000  0.6508444  3
   2830   2819   2831   2834     1  0.0000000  0.6508444  3
   2830   2819   2831   2832     1  0.0000000  0.6508444  3
   2830   2819   2831   2833     1  0.0000000  0.6508444  3
   2832   2831   2834   2835     1  0.0000000  3.3472000  1
   2832   2831   2834   2835     1  0.0000000  0.0000000  2
   2832   2831   2834   2835     1  180.0000771  0.3347200  3
   2832   2831   2834   2836     1  0.0000000  3.3472000  1
   2832   2831   2834   2836     1  0.0000000  0.0000000  2
   2832   2831   2834   2836     1  180.0000771  0.3347200  3
   2833   2831   2834   2835     1  0.0000000  3.3472000  1
   2833   2831   2834   2835     1  0.0000000  0.0000000  2
   2833   2831   2834   2835     1  180.0000771  0.3347200  3
   2833   2831   2834   2836     1  0.0000000  3.3472000  1
   2833   2831   2834   2836     1  0.0000000  0.0000000  2
   2833   2831   2834   2836     1  180.0000771  0.3347200  3
   2837   2839   2841   2843     1  0.0000000  0.6508444  3
   2837   2839   2841   2844     1  0.0000000  0.6508444  3
   2838   2837   2839   2841     1  0.0000000  0.0000000  2
   2838   2837   2839   2840     1  0.0000000  0.0000000  2
   2838   2837   2839   2842     1  0.0000000  0.0000000  2
   2840   2839   2841   2845     1  0.0000000  0.6508444  3
   2840   2839   2841   2843     1  0.0000000  0.6508444  3
   2840   2839   2841   2844     1  0.0000000  0.6508444  3
   2841   2845   2846   2856     1  0.0000000  1.2552000  3
   2841   2845   2846   2857     1  0.0000000  1.2552000  3
   2841   2845   2847   2848     1  0.0000000  1.2552000  3
   2841   2845   2847   2850     1  0.0000000  1.2552000  3
   2842   2839   2841   2845     1  0.0000000  0.6508444  3
   2842   2839   2841   2843     1  0.0000000  0.6508444  3
   2842   2839   2841   2844     1  0.0000000  0.6508444  3
   2843   2841   2845   2846     1  0.0000000  1.2552000  3
   2843   2841   2845   2847     1  0.0000000  1.2552000  3
   2844   2841   2845   2846     1  0.0000000  1.2552000  3
   2844   2841   2845   2847     1  0.0000000  1.2552000  3
   2845   2846   2858   2859     1  0.0000000  0.6508444  3
   2845   2846   2858   2860     1  0.0000000  0.6508444  3
   2845   2847   2849   2851     1  0.0000000  0.6508444  3
   2845   2847   2849   2852     1  0.0000000  0.6508444  3
   2846   2845   2847   2848     1  0.0000000  1.2552000  3
   2846   2845   2847   2850     1  0.0000000  1.2552000  3
   2847   2845   2846   2856     1  0.0000000  1.2552000  3
   2847   2845   2846   2857     1  0.0000000  1.2552000  3
   2848   2847   2849   2853     1  0.0000000  0.6508444  3
   2848   2847   2849   2851     1  0.0000000  0.6508444  3
   2848   2847   2849   2852     1  0.0000000  0.6508444  3
   2850   2847   2849   2853     1  0.0000000  0.6508444  3
   2850   2847   2849   2851     1  0.0000000  0.6508444  3
   2850   2847   2849   2852     1  0.0000000  0.6508444  3
   2851   2849   2853   2854     1  0.0000000  3.3472000  1
   2851   2849   2853   2854     1  0.0000000  0.0000000  2
   2851   2849   2853   2854     1  180.0000771  0.3347200  3
   2851   2849   2853   2855     1  0.0000000  3.3472000  1
   2851   2849   2853   2855     1  0.0000000  0.0000000  2
   2851   2849   2853   2855     1  180.0000771  0.3347200  3
   2852   2849   2853   2854     1  0.0000000  3.3472000  1
   2852   2849   2853   2854     1  0.0000000  0.0000000  2
   2852   2849   2853   2854     1  180.0000771  0.3347200  3
   2852   2849   2853   2855     1  0.0000000  3.3472000  1
   2852   2849   2853   2855     1  0.0000000  0.0000000  2
   2852   2849   2853   2855     1  180.0000771  0.3347200  3
   2856   2846   2858   2861     1  0.0000000  0.6508444  3
   2856   2846   2858   2859     1  0.0000000  0.6508444  3
   2856   2846   2858   2860     1  0.0000000  0.6508444  3
   2857   2846   2858   2861     1  0.0000000  0.6508444  3
   2857   2846   2858   2859     1  0.0000000  0.6508444  3
   2857   2846   2858   2860     1  0.0000000  0.6508444  3
   2859   2858   2861   2862     1  0.0000000  3.3472000  1
   2859   2858   2861   2862     1  0.0000000  0.0000000  2
   2859   2858   2861   2862     1  180.0000771  0.3347200  3
   2859   2858   2861   2863     1  0.0000000  3.3472000  1
   2859   2858   2861   2863     1  0.0000000  0.0000000  2
   2859   2858   2861   2863     1  180.0000771  0.3347200  3
   2860   2858   2861   2862     1  0.0000000  3.3472000  1
   2860   2858   2861   2862     1  0.0000000  0.0000000  2
   2860   2858   2861   2862     1  180.0000771  0.3347200  3
   2860   2858   2861   2863     1  0.0000000  3.3472000  1
   2860   2858   2861   2863     1  0.0000000  0.0000000  2
   2860   2858   2861   2863     1  180.0000771  0.3347200  3
   2864   2866   2868   2870     1  0.0000000  0.6508444  3
   2864   2866   2868   2871     1  0.0000000  0.6508444  3
   2865   2864   2866   2868     1  0.0000000  0.0000000  2
   2865   2864   2866   2867     1  0.0000000  0.0000000  2
   2865   2864   2866   2869     1  0.0000000  0.0000000  2
   2867   2866   2868   2872     1  0.0000000  0.6508444  3
   2867   2866   2868   2870     1  0.0000000  0.6508444  3
   2867   2866   2868   2871     1  0.0000000  0.6508444  3
   2868   2872   2873   2883     1  0.0000000  1.2552000  3
   2868   2872   2873   2884     1  0.0000000  1.2552000  3
   2868   2872   2874   2875     1  0.0000000  1.2552000  3
   2868   2872   2874   2877     1  0.0000000  1.2552000  3
   2869   2866   2868   2872     1  0.0000000  0.6508444  3
   2869   2866   2868   2870     1  0.0000000  0.6508444  3
   2869   2866   2868   2871     1  0.0000000  0.6508444  3
   2870   2868   2872   2873     1  0.0000000  1.2552000  3
   2870   2868   2872   2874     1  0.0000000  1.2552000  3
   2871   2868   2872   2873     1  0.0000000  1.2552000  3
   2871   2868   2872   2874     1  0.0000000  1.2552000  3
   2872   2873   2885   2886     1  0.0000000  0.6508444  3
   2872   2873   2885   2887     1  0.0000000  0.6508444  3
   2872   2874   2876   2878     1  0.0000000  0.6508444  3
   2872   2874   2876   2879     1  0.0000000  0.6508444  3
   2873   2872   2874   2875     1  0.0000000  1.2552000  3
   2873   2872   2874   2877     1  0.0000000  1.2552000  3
   2874   2872   2873   2883     1  0.0000000  1.2552000  3
   2874   2872   2873   2884     1  0.0000000  1.2552000  3
   2875   2874   2876   2880     1  0.0000000  0.6508444  3
   2875   2874   2876   2878     1  0.0000000  0.6508444  3
   2875   2874   2876   2879     1  0.0000000  0.6508444  3
   2877   2874   2876   2880     1  0.0000000  0.6508444  3
   2877   2874   2876   2878     1  0.0000000  0.6508444  3
   2877   2874   2876   2879     1  0.0000000  0.6508444  3
   2878   2876   2880   2881     1  0.0000000  3.3472000  1
   2878   2876   2880   2881     1  0.0000000  0.0000000  2
   2878   2876   2880   2881     1  180.0000771  0.3347200  3
   2878   2876   2880   2882     1  0.0000000  3.3472000  1
   2878   2876   2880   2882     1  0.0000000  0.0000000  2
   2878   2876   2880   2882     1  180.0000771  0.3347200  3
   2879   2876   2880   2881     1  0.0000000  3.3472000  1
   2879   2876   2880   2881     1  0.0000000  0.0000000  2
   2879   2876   2880   2881     1  180.0000771  0.3347200  3
   2879   2876   2880   2882     1  0.0000000  3.3472000  1
   2879   2876   2880   2882     1  0.0000000  0.0000000  2
   2879   2876   2880   2882     1  180.0000771  0.3347200  3
   2883   2873   2885   2888     1  0.0000000  0.6508444  3
   2883   2873   2885   2886     1  0.0000000  0.6508444  3
   2883   2873   2885   2887     1  0.0000000  0.6508444  3
   2884   2873   2885   2888     1  0.0000000  0.6508444  3
   2884   2873   2885   2886     1  0.0000000  0.6508444  3
   2884   2873   2885   2887     1  0.0000000  0.6508444  3
   2886   2885   2888   2889     1  0.0000000  3.3472000  1
   2886   2885   2888   2889     1  0.0000000  0.0000000  2
   2886   2885   2888   2889     1  180.0000771  0.3347200  3
   2886   2885   2888   2890     1  0.0000000  3.3472000  1
   2886   2885   2888   2890     1  0.0000000  0.0000000  2
   2886   2885   2888   2890     1  180.0000771  0.3347200  3
   2887   2885   2888   2889     1  0.0000000  3.3472000  1
   2887   2885   2888   2889     1  0.0000000  0.0000000  2
   2887   2885   2888   2889     1  180.0000771  0.3347200  3
   2887   2885   2888   2890     1  0.0000000  3.3472000  1
   2887   2885   2888   2890     1  0.0000000  0.0000000  2
   2887   2885   2888   2890     1  180.0000771  0.3347200  3
   2891   2893   2895   2897     1  0.0000000  0.6508444  3
   2891   2893   2895   2898     1  0.0000000  0.6508444  3
   2892   2891   2893   2895     1  0.0000000  0.0000000  2
   2892   2891   2893   2894     1  0.0000000  0.0000000  2
   2892   2891   2893   2896     1  0.0000000  0.0000000  2
   2894   2893   2895   2899     1  0.0000000  0.6508444  3
   2894   2893   2895   2897     1  0.0000000  0.6508444  3
   2894   2893   2895   2898     1  0.0000000  0.6508444  3
   2895   2899   2900   2910     1  0.0000000  1.2552000  3
   2895   2899   2900   2911     1  0.0000000  1.2552000  3
   2895   2899   2901   2902     1  0.0000000  1.2552000  3
   2895   2899   2901   2904     1  0.0000000  1.2552000  3
   2896   2893   2895   2899     1  0.0000000  0.6508444  3
   2896   2893   2895   2897     1  0.0000000  0.6508444  3
   2896   2893   2895   2898     1  0.0000000  0.6508444  3
   2897   2895   2899   2900     1  0.0000000  1.2552000  3
   2897   2895   2899   2901     1  0.0000000  1.2552000  3
   2898   2895   2899   2900     1  0.0000000  1.2552000  3
   2898   2895   2899   2901     1  0.0000000  1.2552000  3
   2899   2900   2912   2913     1  0.0000000  0.6508444  3
   2899   2900   2912   2914     1  0.0000000  0.6508444  3
   2899   2901   2903   2905     1  0.0000000  0.6508444  3
   2899   2901   2903   2906     1  0.0000000  0.6508444  3
   2900   2899   2901   2902     1  0.0000000  1.2552000  3
   2900   2899   2901   2904     1  0.0000000  1.2552000  3
   2901   2899   2900   2910     1  0.0000000  1.2552000  3
   2901   2899   2900   2911     1  0.0000000  1.2552000  3
   2902   2901   2903   2907     1  0.0000000  0.6508444  3
   2902   2901   2903   2905     1  0.0000000  0.6508444  3
   2902   2901   2903   2906     1  0.0000000  0.6508444  3
   2904   2901   2903   2907     1  0.0000000  0.6508444  3
   2904   2901   2903   2905     1  0.0000000  0.6508444  3
   2904   2901   2903   2906     1  0.0000000  0.6508444  3
   2905   2903   2907   2908     1  0.0000000  3.3472000  1
   2905   2903   2907   2908     1  0.0000000  0.0000000  2
   2905   2903   2907   2908     1  180.0000771  0.3347200  3
   2905   2903   2907   2909     1  0.0000000  3.3472000  1
   2905   2903   2907   2909     1  0.0000000  0.0000000  2
   2905   2903   2907   2909     1  180.0000771  0.3347200  3
   2906   2903   2907   2908     1  0.0000000  3.3472000  1
   2906   2903   2907   2908     1  0.0000000  0.0000000  2
   2906   2903   2907   2908     1  180.0000771  0.3347200  3
   2906   2903   2907   2909     1  0.0000000  3.3472000  1
   2906   2903   2907   2909     1  0.0000000  0.0000000  2
   2906   2903   2907   2909     1  180.0000771  0.3347200  3
   2910   2900   2912   2915     1  0.0000000  0.6508444  3
   2910   2900   2912   2913     1  0.0000000  0.6508444  3
   2910   2900   2912   2914     1  0.0000000  0.6508444  3
   2911   2900   2912   2915     1  0.0000000  0.6508444  3
   2911   2900   2912   2913     1  0.0000000  0.6508444  3
   2911   2900   2912   2914     1  0.0000000  0.6508444  3
   2913   2912   2915   2916     1  0.0000000  3.3472000  1
   2913   2912   2915   2916     1  0.0000000  0.0000000  2
   2913   2912   2915   2916     1  180.0000771  0.3347200  3
   2913   2912   2915   2917     1  0.0000000  3.3472000  1
   2913   2912   2915   2917     1  0.0000000  0.0000000  2
   2913   2912   2915   2917     1  180.0000771  0.3347200  3
   2914   2912   2915   2916     1  0.0000000  3.3472000  1
   2914   2912   2915   2916     1  0.0000000  0.0000000  2
   2914   2912   2915   2916     1  180.0000771  0.3347200  3
   2914   2912   2915   2917     1  0.0000000  3.3472000  1
   2914   2912   2915   2917     1  0.0000000  0.0000000  2
   2914   2912   2915   2917     1  180.0000771  0.3347200  3
   2918   2920   2922   2924     1  0.0000000  0.6508444  3
   2918   2920   2922   2925     1  0.0000000  0.6508444  3
   2919   2918   2920   2922     1  0.0000000  0.0000000  2
   2919   2918   2920   2921     1  0.0000000  0.0000000  2
   2919   2918   2920   2923     1  0.0000000  0.0000000  2
   2921   2920   2922   2926     1  0.0000000  0.6508444  3
   2921   2920   2922   2924     1  0.0000000  0.6508444  3
   2921   2920   2922   2925     1  0.0000000  0.6508444  3
   2922   2926   2927   2937     1  0.0000000  1.2552000  3
   2922   2926   2927   2938     1  0.0000000  1.2552000  3
   2922   2926   2928   2929     1  0.0000000  1.2552000  3
   2922   2926   2928   2931     1  0.0000000  1.2552000  3
   2923   2920   2922   2926     1  0.0000000  0.6508444  3
   2923   2920   2922   2924     1  0.0000000  0.6508444  3
   2923   2920   2922   2925     1  0.0000000  0.6508444  3
   2924   2922   2926   2927     1  0.0000000  1.2552000  3
   2924   2922   2926   2928     1  0.0000000  1.2552000  3
   2925   2922   2926   2927     1  0.0000000  1.2552000  3
   2925   2922   2926   2928     1  0.0000000  1.2552000  3
   2926   2927   2939   2940     1  0.0000000  0.6508444  3
   2926   2927   2939   2941     1  0.0000000  0.6508444  3
   2926   2928   2930   2932     1  0.0000000  0.6508444  3
   2926   2928   2930   2933     1  0.0000000  0.6508444  3
   2927   2926   2928   2929     1  0.0000000  1.2552000  3
   2927   2926   2928   2931     1  0.0000000  1.2552000  3
   2928   2926   2927   2937     1  0.0000000  1.2552000  3
   2928   2926   2927   2938     1  0.0000000  1.2552000  3
   2929   2928   2930   2934     1  0.0000000  0.6508444  3
   2929   2928   2930   2932     1  0.0000000  0.6508444  3
   2929   2928   2930   2933     1  0.0000000  0.6508444  3
   2931   2928   2930   2934     1  0.0000000  0.6508444  3
   2931   2928   2930   2932     1  0.0000000  0.6508444  3
   2931   2928   2930   2933     1  0.0000000  0.6508444  3
   2932   2930   2934   2935     1  0.0000000  3.3472000  1
   2932   2930   2934   2935     1  0.0000000  0.0000000  2
   2932   2930   2934   2935     1  180.0000771  0.3347200  3
   2932   2930   2934   2936     1  0.0000000  3.3472000  1
   2932   2930   2934   2936     1  0.0000000  0.0000000  2
   2932   2930   2934   2936     1  180.0000771  0.3347200  3
   2933   2930   2934   2935     1  0.0000000  3.3472000  1
   2933   2930   2934   2935     1  0.0000000  0.0000000  2
   2933   2930   2934   2935     1  180.0000771  0.3347200  3
   2933   2930   2934   2936     1  0.0000000  3.3472000  1
   2933   2930   2934   2936     1  0.0000000  0.0000000  2
   2933   2930   2934   2936     1  180.0000771  0.3347200  3
   2937   2927   2939   2942     1  0.0000000  0.6508444  3
   2937   2927   2939   2940     1  0.0000000  0.6508444  3
   2937   2927   2939   2941     1  0.0000000  0.6508444  3
   2938   2927   2939   2942     1  0.0000000  0.6508444  3
   2938   2927   2939   2940     1  0.0000000  0.6508444  3
   2938   2927   2939   2941     1  0.0000000  0.6508444  3
   2940   2939   2942   2943     1  0.0000000  3.3472000  1
   2940   2939   2942   2943     1  0.0000000  0.0000000  2
   2940   2939   2942   2943     1  180.0000771  0.3347200  3
   2940   2939   2942   2944     1  0.0000000  3.3472000  1
   2940   2939   2942   2944     1  0.0000000  0.0000000  2
   2940   2939   2942   2944     1  180.0000771  0.3347200  3
   2941   2939   2942   2943     1  0.0000000  3.3472000  1
   2941   2939   2942   2943     1  0.0000000  0.0000000  2
   2941   2939   2942   2943     1  180.0000771  0.3347200  3
   2941   2939   2942   2944     1  0.0000000  3.3472000  1
   2941   2939   2942   2944     1  0.0000000  0.0000000  2
   2941   2939   2942   2944     1  180.0000771  0.3347200  3
   2945   2947   2949   2951     1  0.0000000  0.6508444  3
   2945   2947   2949   2952     1  0.0000000  0.6508444  3
   2946   2945   2947   2949     1  0.0000000  0.0000000  2
   2946   2945   2947   2948     1  0.0000000  0.0000000  2
   2946   2945   2947   2950     1  0.0000000  0.0000000  2
   2948   2947   2949   2953     1  0.0000000  0.6508444  3
   2948   2947   2949   2951     1  0.0000000  0.6508444  3
   2948   2947   2949   2952     1  0.0000000  0.6508444  3
   2949   2953   2954   2964     1  0.0000000  1.2552000  3
   2949   2953   2954   2965     1  0.0000000  1.2552000  3
   2949   2953   2955   2956     1  0.0000000  1.2552000  3
   2949   2953   2955   2958     1  0.0000000  1.2552000  3
   2950   2947   2949   2953     1  0.0000000  0.6508444  3
   2950   2947   2949   2951     1  0.0000000  0.6508444  3
   2950   2947   2949   2952     1  0.0000000  0.6508444  3
   2951   2949   2953   2954     1  0.0000000  1.2552000  3
   2951   2949   2953   2955     1  0.0000000  1.2552000  3
   2952   2949   2953   2954     1  0.0000000  1.2552000  3
   2952   2949   2953   2955     1  0.0000000  1.2552000  3
   2953   2954   2966   2967     1  0.0000000  0.6508444  3
   2953   2954   2966   2968     1  0.0000000  0.6508444  3
   2953   2955   2957   2959     1  0.0000000  0.6508444  3
   2953   2955   2957   2960     1  0.0000000  0.6508444  3
   2954   2953   2955   2956     1  0.0000000  1.2552000  3
   2954   2953   2955   2958     1  0.0000000  1.2552000  3
   2955   2953   2954   2964     1  0.0000000  1.2552000  3
   2955   2953   2954   2965     1  0.0000000  1.2552000  3
   2956   2955   2957   2961     1  0.0000000  0.6508444  3
   2956   2955   2957   2959     1  0.0000000  0.6508444  3
   2956   2955   2957   2960     1  0.0000000  0.6508444  3
   2958   2955   2957   2961     1  0.0000000  0.6508444  3
   2958   2955   2957   2959     1  0.0000000  0.6508444  3
   2958   2955   2957   2960     1  0.0000000  0.6508444  3
   2959   2957   2961   2962     1  0.0000000  3.3472000  1
   2959   2957   2961   2962     1  0.0000000  0.0000000  2
   2959   2957   2961   2962     1  180.0000771  0.3347200  3
   2959   2957   2961   2963     1  0.0000000  3.3472000  1
   2959   2957   2961   2963     1  0.0000000  0.0000000  2
   2959   2957   2961   2963     1  180.0000771  0.3347200  3
   2960   2957   2961   2962     1  0.0000000  3.3472000  1
   2960   2957   2961   2962     1  0.0000000  0.0000000  2
   2960   2957   2961   2962     1  180.0000771  0.3347200  3
   2960   2957   2961   2963     1  0.0000000  3.3472000  1
   2960   2957   2961   2963     1  0.0000000  0.0000000  2
   2960   2957   2961   2963     1  180.0000771  0.3347200  3
   2964   2954   2966   2969     1  0.0000000  0.6508444  3
   2964   2954   2966   2967     1  0.0000000  0.6508444  3
   2964   2954   2966   2968     1  0.0000000  0.6508444  3
   2965   2954   2966   2969     1  0.0000000  0.6508444  3
   2965   2954   2966   2967     1  0.0000000  0.6508444  3
   2965   2954   2966   2968     1  0.0000000  0.6508444  3
   2967   2966   2969   2970     1  0.0000000  3.3472000  1
   2967   2966   2969   2970     1  0.0000000  0.0000000  2
   2967   2966   2969   2970     1  180.0000771  0.3347200  3
   2967   2966   2969   2971     1  0.0000000  3.3472000  1
   2967   2966   2969   2971     1  0.0000000  0.0000000  2
   2967   2966   2969   2971     1  180.0000771  0.3347200  3
   2968   2966   2969   2970     1  0.0000000  3.3472000  1
   2968   2966   2969   2970     1  0.0000000  0.0000000  2
   2968   2966   2969   2970     1  180.0000771  0.3347200  3
   2968   2966   2969   2971     1  0.0000000  3.3472000  1
   2968   2966   2969   2971     1  0.0000000  0.0000000  2
   2968   2966   2969   2971     1  180.0000771  0.3347200  3
   2972   2974   2976   2978     1  0.0000000  0.6508444  3
   2972   2974   2976   2979     1  0.0000000  0.6508444  3
   2973   2972   2974   2976     1  0.0000000  0.0000000  2
   2973   2972   2974   2975     1  0.0000000  0.0000000  2
   2973   2972   2974   2977     1  0.0000000  0.0000000  2
   2975   2974   2976   2980     1  0.0000000  0.6508444  3
   2975   2974   2976   2978     1  0.0000000  0.6508444  3
   2975   2974   2976   2979     1  0.0000000  0.6508444  3
   2976   2980   2981   2991     1  0.0000000  1.2552000  3
   2976   2980   2981   2992     1  0.0000000  1.2552000  3
   2976   2980   2982   2983     1  0.0000000  1.2552000  3
   2976   2980   2982   2985     1  0.0000000  1.2552000  3
   2977   2974   2976   2980     1  0.0000000  0.6508444  3
   2977   2974   2976   2978     1  0.0000000  0.6508444  3
   2977   2974   2976   2979     1  0.0000000  0.6508444  3
   2978   2976   2980   2981     1  0.0000000  1.2552000  3
   2978   2976   2980   2982     1  0.0000000  1.2552000  3
   2979   2976   2980   2981     1  0.0000000  1.2552000  3
   2979   2976   2980   2982     1  0.0000000  1.2552000  3
   2980   2981   2993   2994     1  0.0000000  0.6508444  3
   2980   2981   2993   2995     1  0.0000000  0.6508444  3
   2980   2982   2984   2986     1  0.0000000  0.6508444  3
   2980   2982   2984   2987     1  0.0000000  0.6508444  3
   2981   2980   2982   2983     1  0.0000000  1.2552000  3
   2981   2980   2982   2985     1  0.0000000  1.2552000  3
   2982   2980   2981   2991     1  0.0000000  1.2552000  3
   2982   2980   2981   2992     1  0.0000000  1.2552000  3
   2983   2982   2984   2988     1  0.0000000  0.6508444  3
   2983   2982   2984   2986     1  0.0000000  0.6508444  3
   2983   2982   2984   2987     1  0.0000000  0.6508444  3
   2985   2982   2984   2988     1  0.0000000  0.6508444  3
   2985   2982   2984   2986     1  0.0000000  0.6508444  3
   2985   2982   2984   2987     1  0.0000000  0.6508444  3
   2986   2984   2988   2989     1  0.0000000  3.3472000  1
   2986   2984   2988   2989     1  0.0000000  0.0000000  2
   2986   2984   2988   2989     1  180.0000771  0.3347200  3
   2986   2984   2988   2990     1  0.0000000  3.3472000  1
   2986   2984   2988   2990     1  0.0000000  0.0000000  2
   2986   2984   2988   2990     1  180.0000771  0.3347200  3
   2987   2984   2988   2989     1  0.0000000  3.3472000  1
   2987   2984   2988   2989     1  0.0000000  0.0000000  2
   2987   2984   2988   2989     1  180.0000771  0.3347200  3
   2987   2984   2988   2990     1  0.0000000  3.3472000  1
   2987   2984   2988   2990     1  0.0000000  0.0000000  2
   2987   2984   2988   2990     1  180.0000771  0.3347200  3
   2991   2981   2993   2996     1  0.0000000  0.6508444  3
   2991   2981   2993   2994     1  0.0000000  0.6508444  3
   2991   2981   2993   2995     1  0.0000000  0.6508444  3
   2992   2981   2993   2996     1  0.0000000  0.6508444  3
   2992   2981   2993   2994     1  0.0000000  0.6508444  3
   2992   2981   2993   2995     1  0.0000000  0.6508444  3
   2994   2993   2996   2997     1  0.0000000  3.3472000  1
   2994   2993   2996   2997     1  0.0000000  0.0000000  2
   2994   2993   2996   2997     1  180.0000771  0.3347200  3
   2994   2993   2996   2998     1  0.0000000  3.3472000  1
   2994   2993   2996   2998     1  0.0000000  0.0000000  2
   2994   2993   2996   2998     1  180.0000771  0.3347200  3
   2995   2993   2996   2997     1  0.0000000  3.3472000  1
   2995   2993   2996   2997     1  0.0000000  0.0000000  2
   2995   2993   2996   2997     1  180.0000771  0.3347200  3
   2995   2993   2996   2998     1  0.0000000  3.3472000  1
   2995   2993   2996   2998     1  0.0000000  0.0000000  2
   2995   2993   2996   2998     1  180.0000771  0.3347200  3
   2999   3001   3003   3005     1  0.0000000  0.6508444  3
   2999   3001   3003   3006     1  0.0000000  0.6508444  3
   3000   2999   3001   3003     1  0.0000000  0.0000000  2
   3000   2999   3001   3002     1  0.0000000  0.0000000  2
   3000   2999   3001   3004     1  0.0000000  0.0000000  2
   3002   3001   3003   3007     1  0.0000000  0.6508444  3
   3002   3001   3003   3005     1  0.0000000  0.6508444  3
   3002   3001   3003   3006     1  0.0000000  0.6508444  3
   3003   3007   3008   3018     1  0.0000000  1.2552000  3
   3003   3007   3008   3019     1  0.0000000  1.2552000  3
   3003   3007   3009   3010     1  0.0000000  1.2552000  3
   3003   3007   3009   3012     1  0.0000000  1.2552000  3
   3004   3001   3003   3007     1  0.0000000  0.6508444  3
   3004   3001   3003   3005     1  0.0000000  0.6508444  3
   3004   3001   3003   3006     1  0.0000000  0.6508444  3
   3005   3003   3007   3008     1  0.0000000  1.2552000  3
   3005   3003   3007   3009     1  0.0000000  1.2552000  3
   3006   3003   3007   3008     1  0.0000000  1.2552000  3
   3006   3003   3007   3009     1  0.0000000  1.2552000  3
   3007   3008   3020   3021     1  0.0000000  0.6508444  3
   3007   3008   3020   3022     1  0.0000000  0.6508444  3
   3007   3009   3011   3013     1  0.0000000  0.6508444  3
   3007   3009   3011   3014     1  0.0000000  0.6508444  3
   3008   3007   3009   3010     1  0.0000000  1.2552000  3
   3008   3007   3009   3012     1  0.0000000  1.2552000  3
   3009   3007   3008   3018     1  0.0000000  1.2552000  3
   3009   3007   3008   3019     1  0.0000000  1.2552000  3
   3010   3009   3011   3015     1  0.0000000  0.6508444  3
   3010   3009   3011   3013     1  0.0000000  0.6508444  3
   3010   3009   3011   3014     1  0.0000000  0.6508444  3
   3012   3009   3011   3015     1  0.0000000  0.6508444  3
   3012   3009   3011   3013     1  0.0000000  0.6508444  3
   3012   3009   3011   3014     1  0.0000000  0.6508444  3
   3013   3011   3015   3016     1  0.0000000  3.3472000  1
   3013   3011   3015   3016     1  0.0000000  0.0000000  2
   3013   3011   3015   3016     1  180.0000771  0.3347200  3
   3013   3011   3015   3017     1  0.0000000  3.3472000  1
   3013   3011   3015   3017     1  0.0000000  0.0000000  2
   3013   3011   3015   3017     1  180.0000771  0.3347200  3
   3014   3011   3015   3016     1  0.0000000  3.3472000  1
   3014   3011   3015   3016     1  0.0000000  0.0000000  2
   3014   3011   3015   3016     1  180.0000771  0.3347200  3
   3014   3011   3015   3017     1  0.0000000  3.3472000  1
   3014   3011   3015   3017     1  0.0000000  0.0000000  2
   3014   3011   3015   3017     1  180.0000771  0.3347200  3
   3018   3008   3020   3023     1  0.0000000  0.6508444  3
   3018   3008   3020   3021     1  0.0000000  0.6508444  3
   3018   3008   3020   3022     1  0.0000000  0.6508444  3
   3019   3008   3020   3023     1  0.0000000  0.6508444  3
   3019   3008   3020   3021     1  0.0000000  0.6508444  3
   3019   3008   3020   3022     1  0.0000000  0.6508444  3
   3021   3020   3023   3024     1  0.0000000  3.3472000  1
   3021   3020   3023   3024     1  0.0000000  0.0000000  2
   3021   3020   3023   3024     1  180.0000771  0.3347200  3
   3021   3020   3023   3025     1  0.0000000  3.3472000  1
   3021   3020   3023   3025     1  0.0000000  0.0000000  2
   3021   3020   3023   3025     1  180.0000771  0.3347200  3
   3022   3020   3023   3024     1  0.0000000  3.3472000  1
   3022   3020   3023   3024     1  0.0000000  0.0000000  2
   3022   3020   3023   3024     1  180.0000771  0.3347200  3
   3022   3020   3023   3025     1  0.0000000  3.3472000  1
   3022   3020   3023   3025     1  0.0000000  0.0000000  2
   3022   3020   3023   3025     1  180.0000771  0.3347200  3
   3026   3028   3030   3032     1  0.0000000  0.6508444  3
   3026   3028   3030   3033     1  0.0000000  0.6508444  3
   3027   3026   3028   3030     1  0.0000000  0.0000000  2
   3027   3026   3028   3029     1  0.0000000  0.0000000  2
   3027   3026   3028   3031     1  0.0000000  0.0000000  2
   3029   3028   3030   3034     1  0.0000000  0.6508444  3
   3029   3028   3030   3032     1  0.0000000  0.6508444  3
   3029   3028   3030   3033     1  0.0000000  0.6508444  3
   3030   3034   3035   3045     1  0.0000000  1.2552000  3
   3030   3034   3035   3046     1  0.0000000  1.2552000  3
   3030   3034   3036   3037     1  0.0000000  1.2552000  3
   3030   3034   3036   3039     1  0.0000000  1.2552000  3
   3031   3028   3030   3034     1  0.0000000  0.6508444  3
   3031   3028   3030   3032     1  0.0000000  0.6508444  3
   3031   3028   3030   3033     1  0.0000000  0.6508444  3
   3032   3030   3034   3035     1  0.0000000  1.2552000  3
   3032   3030   3034   3036     1  0.0000000  1.2552000  3
   3033   3030   3034   3035     1  0.0000000  1.2552000  3
   3033   3030   3034   3036     1  0.0000000  1.2552000  3
   3034   3035   3047   3048     1  0.0000000  0.6508444  3
   3034   3035   3047   3049     1  0.0000000  0.6508444  3
   3034   3036   3038   3040     1  0.0000000  0.6508444  3
   3034   3036   3038   3041     1  0.0000000  0.6508444  3
   3035   3034   3036   3037     1  0.0000000  1.2552000  3
   3035   3034   3036   3039     1  0.0000000  1.2552000  3
   3036   3034   3035   3045     1  0.0000000  1.2552000  3
   3036   3034   3035   3046     1  0.0000000  1.2552000  3
   3037   3036   3038   3042     1  0.0000000  0.6508444  3
   3037   3036   3038   3040     1  0.0000000  0.6508444  3
   3037   3036   3038   3041     1  0.0000000  0.6508444  3
   3039   3036   3038   3042     1  0.0000000  0.6508444  3
   3039   3036   3038   3040     1  0.0000000  0.6508444  3
   3039   3036   3038   3041     1  0.0000000  0.6508444  3
   3040   3038   3042   3043     1  0.0000000  3.3472000  1
   3040   3038   3042   3043     1  0.0000000  0.0000000  2
   3040   3038   3042   3043     1  180.0000771  0.3347200  3
   3040   3038   3042   3044     1  0.0000000  3.3472000  1
   3040   3038   3042   3044     1  0.0000000  0.0000000  2
   3040   3038   3042   3044     1  180.0000771  0.3347200  3
   3041   3038   3042   3043     1  0.0000000  3.3472000  1
   3041   3038   3042   3043     1  0.0000000  0.0000000  2
   3041   3038   3042   3043     1  180.0000771  0.3347200  3
   3041   3038   3042   3044     1  0.0000000  3.3472000  1
   3041   3038   3042   3044     1  0.0000000  0.0000000  2
   3041   3038   3042   3044     1  180.0000771  0.3347200  3
   3045   3035   3047   3050     1  0.0000000  0.6508444  3
   3045   3035   3047   3048     1  0.0000000  0.6508444  3
   3045   3035   3047   3049     1  0.0000000  0.6508444  3
   3046   3035   3047   3050     1  0.0000000  0.6508444  3
   3046   3035   3047   3048     1  0.0000000  0.6508444  3
   3046   3035   3047   3049     1  0.0000000  0.6508444  3
   3048   3047   3050   3051     1  0.0000000  3.3472000  1
   3048   3047   3050   3051     1  0.0000000  0.0000000  2
   3048   3047   3050   3051     1  180.0000771  0.3347200  3
   3048   3047   3050   3052     1  0.0000000  3.3472000  1
   3048   3047   3050   3052     1  0.0000000  0.0000000  2
   3048   3047   3050   3052     1  180.0000771  0.3347200  3
   3049   3047   3050   3051     1  0.0000000  3.3472000  1
   3049   3047   3050   3051     1  0.0000000  0.0000000  2
   3049   3047   3050   3051     1  180.0000771  0.3347200  3
   3049   3047   3050   3052     1  0.0000000  3.3472000  1
   3049   3047   3050   3052     1  0.0000000  0.0000000  2
   3049   3047   3050   3052     1  180.0000771  0.3347200  3
   3053   3055   3057   3059     1  0.0000000  0.6508444  3
   3053   3055   3057   3060     1  0.0000000  0.6508444  3
   3054   3053   3055   3057     1  0.0000000  0.0000000  2
   3054   3053   3055   3056     1  0.0000000  0.0000000  2
   3054   3053   3055   3058     1  0.0000000  0.0000000  2
   3056   3055   3057   3061     1  0.0000000  0.6508444  3
   3056   3055   3057   3059     1  0.0000000  0.6508444  3
   3056   3055   3057   3060     1  0.0000000  0.6508444  3
   3057   3061   3062   3072     1  0.0000000  1.2552000  3
   3057   3061   3062   3073     1  0.0000000  1.2552000  3
   3057   3061   3063   3064     1  0.0000000  1.2552000  3
   3057   3061   3063   3066     1  0.0000000  1.2552000  3
   3058   3055   3057   3061     1  0.0000000  0.6508444  3
   3058   3055   3057   3059     1  0.0000000  0.6508444  3
   3058   3055   3057   3060     1  0.0000000  0.6508444  3
   3059   3057   3061   3062     1  0.0000000  1.2552000  3
   3059   3057   3061   3063     1  0.0000000  1.2552000  3
   3060   3057   3061   3062     1  0.0000000  1.2552000  3
   3060   3057   3061   3063     1  0.0000000  1.2552000  3
   3061   3062   3074   3075     1  0.0000000  0.6508444  3
   3061   3062   3074   3076     1  0.0000000  0.6508444  3
   3061   3063   3065   3067     1  0.0000000  0.6508444  3
   3061   3063   3065   3068     1  0.0000000  0.6508444  3
   3062   3061   3063   3064     1  0.0000000  1.2552000  3
   3062   3061   3063   3066     1  0.0000000  1.2552000  3
   3063   3061   3062   3072     1  0.0000000  1.2552000  3
   3063   3061   3062   3073     1  0.0000000  1.2552000  3
   3064   3063   3065   3069     1  0.0000000  0.6508444  3
   3064   3063   3065   3067     1  0.0000000  0.6508444  3
   3064   3063   3065   3068     1  0.0000000  0.6508444  3
   3066   3063   3065   3069     1  0.0000000  0.6508444  3
   3066   3063   3065   3067     1  0.0000000  0.6508444  3
   3066   3063   3065   3068     1  0.0000000  0.6508444  3
   3067   3065   3069   3070     1  0.0000000  3.3472000  1
   3067   3065   3069   3070     1  0.0000000  0.0000000  2
   3067   3065   3069   3070     1  180.0000771  0.3347200  3
   3067   3065   3069   3071     1  0.0000000  3.3472000  1
   3067   3065   3069   3071     1  0.0000000  0.0000000  2
   3067   3065   3069   3071     1  180.0000771  0.3347200  3
   3068   3065   3069   3070     1  0.0000000  3.3472000  1
   3068   3065   3069   3070     1  0.0000000  0.0000000  2
   3068   3065   3069   3070     1  180.0000771  0.3347200  3
   3068   3065   3069   3071     1  0.0000000  3.3472000  1
   3068   3065   3069   3071     1  0.0000000  0.0000000  2
   3068   3065   3069   3071     1  180.0000771  0.3347200  3
   3072   3062   3074   3077     1  0.0000000  0.6508444  3
   3072   3062   3074   3075     1  0.0000000  0.6508444  3
   3072   3062   3074   3076     1  0.0000000  0.6508444  3
   3073   3062   3074   3077     1  0.0000000  0.6508444  3
   3073   3062   3074   3075     1  0.0000000  0.6508444  3
   3073   3062   3074   3076     1  0.0000000  0.6508444  3
   3075   3074   3077   3078     1  0.0000000  3.3472000  1
   3075   3074   3077   3078     1  0.0000000  0.0000000  2
   3075   3074   3077   3078     1  180.0000771  0.3347200  3
   3075   3074   3077   3079     1  0.0000000  3.3472000  1
   3075   3074   3077   3079     1  0.0000000  0.0000000  2
   3075   3074   3077   3079     1  180.0000771  0.3347200  3
   3076   3074   3077   3078     1  0.0000000  3.3472000  1
   3076   3074   3077   3078     1  0.0000000  0.0000000  2
   3076   3074   3077   3078     1  180.0000771  0.3347200  3
   3076   3074   3077   3079     1  0.0000000  3.3472000  1
   3076   3074   3077   3079     1  0.0000000  0.0000000  2
   3076   3074   3077   3079     1  180.0000771  0.3347200  3
   3080   3082   3084   3086     1  0.0000000  0.6508444  3
   3080   3082   3084   3087     1  0.0000000  0.6508444  3
   3081   3080   3082   3084     1  0.0000000  0.0000000  2
   3081   3080   3082   3083     1  0.0000000  0.0000000  2
   3081   3080   3082   3085     1  0.0000000  0.0000000  2
   3083   3082   3084   3088     1  0.0000000  0.6508444  3
   3083   3082   3084   3086     1  0.0000000  0.6508444  3
   3083   3082   3084   3087     1  0.0000000  0.6508444  3
   3084   3088   3089   3099     1  0.0000000  1.2552000  3
   3084   3088   3089   3100     1  0.0000000  1.2552000  3
   3084   3088   3090   3091     1  0.0000000  1.2552000  3
   3084   3088   3090   3093     1  0.0000000  1.2552000  3
   3085   3082   3084   3088     1  0.0000000  0.6508444  3
   3085   3082   3084   3086     1  0.0000000  0.6508444  3
   3085   3082   3084   3087     1  0.0000000  0.6508444  3
   3086   3084   3088   3089     1  0.0000000  1.2552000  3
   3086   3084   3088   3090     1  0.0000000  1.2552000  3
   3087   3084   3088   3089     1  0.0000000  1.2552000  3
   3087   3084   3088   3090     1  0.0000000  1.2552000  3
   3088   3089   3101   3102     1  0.0000000  0.6508444  3
   3088   3089   3101   3103     1  0.0000000  0.6508444  3
   3088   3090   3092   3094     1  0.0000000  0.6508444  3
   3088   3090   3092   3095     1  0.0000000  0.6508444  3
   3089   3088   3090   3091     1  0.0000000  1.2552000  3
   3089   3088   3090   3093     1  0.0000000  1.2552000  3
   3090   3088   3089   3099     1  0.0000000  1.2552000  3
   3090   3088   3089   3100     1  0.0000000  1.2552000  3
   3091   3090   3092   3096     1  0.0000000  0.6508444  3
   3091   3090   3092   3094     1  0.0000000  0.6508444  3
   3091   3090   3092   3095     1  0.0000000  0.6508444  3
   3093   3090   3092   3096     1  0.0000000  0.6508444  3
   3093   3090   3092   3094     1  0.0000000  0.6508444  3
   3093   3090   3092   3095     1  0.0000000  0.6508444  3
   3094   3092   3096   3097     1  0.0000000  3.3472000  1
   3094   3092   3096   3097     1  0.0000000  0.0000000  2
   3094   3092   3096   3097     1  180.0000771  0.3347200  3
   3094   3092   3096   3098     1  0.0000000  3.3472000  1
   3094   3092   3096   3098     1  0.0000000  0.0000000  2
   3094   3092   3096   3098     1  180.0000771  0.3347200  3
   3095   3092   3096   3097     1  0.0000000  3.3472000  1
   3095   3092   3096   3097     1  0.0000000  0.0000000  2
   3095   3092   3096   3097     1  180.0000771  0.3347200  3
   3095   3092   3096   3098     1  0.0000000  3.3472000  1
   3095   3092   3096   3098     1  0.0000000  0.0000000  2
   3095   3092   3096   3098     1  180.0000771  0.3347200  3
   3099   3089   3101   3104     1  0.0000000  0.6508444  3
   3099   3089   3101   3102     1  0.0000000  0.6508444  3
   3099   3089   3101   3103     1  0.0000000  0.6508444  3
   3100   3089   3101   3104     1  0.0000000  0.6508444  3
   3100   3089   3101   3102     1  0.0000000  0.6508444  3
   3100   3089   3101   3103     1  0.0000000  0.6508444  3
   3102   3101   3104   3105     1  0.0000000  3.3472000  1
   3102   3101   3104   3105     1  0.0000000  0.0000000  2
   3102   3101   3104   3105     1  180.0000771  0.3347200  3
   3102   3101   3104   3106     1  0.0000000  3.3472000  1
   3102   3101   3104   3106     1  0.0000000  0.0000000  2
   3102   3101   3104   3106     1  180.0000771  0.3347200  3
   3103   3101   3104   3105     1  0.0000000  3.3472000  1
   3103   3101   3104   3105     1  0.0000000  0.0000000  2
   3103   3101   3104   3105     1  180.0000771  0.3347200  3
   3103   3101   3104   3106     1  0.0000000  3.3472000  1
   3103   3101   3104   3106     1  0.0000000  0.0000000  2
   3103   3101   3104   3106     1  180.0000771  0.3347200  3
   3107   3109   3111   3113     1  0.0000000  0.6508444  3
   3107   3109   3111   3114     1  0.0000000  0.6508444  3
   3108   3107   3109   3111     1  0.0000000  0.0000000  2
   3108   3107   3109   3110     1  0.0000000  0.0000000  2
   3108   3107   3109   3112     1  0.0000000  0.0000000  2
   3110   3109   3111   3115     1  0.0000000  0.6508444  3
   3110   3109   3111   3113     1  0.0000000  0.6508444  3
   3110   3109   3111   3114     1  0.0000000  0.6508444  3
   3111   3115   3116   3126     1  0.0000000  1.2552000  3
   3111   3115   3116   3127     1  0.0000000  1.2552000  3
   3111   3115   3117   3118     1  0.0000000  1.2552000  3
   3111   3115   3117   3120     1  0.0000000  1.2552000  3
   3112   3109   3111   3115     1  0.0000000  0.6508444  3
   3112   3109   3111   3113     1  0.0000000  0.6508444  3
   3112   3109   3111   3114     1  0.0000000  0.6508444  3
   3113   3111   3115   3116     1  0.0000000  1.2552000  3
   3113   3111   3115   3117     1  0.0000000  1.2552000  3
   3114   3111   3115   3116     1  0.0000000  1.2552000  3
   3114   3111   3115   3117     1  0.0000000  1.2552000  3
   3115   3116   3128   3129     1  0.0000000  0.6508444  3
   3115   3116   3128   3130     1  0.0000000  0.6508444  3
   3115   3117   3119   3121     1  0.0000000  0.6508444  3
   3115   3117   3119   3122     1  0.0000000  0.6508444  3
   3116   3115   3117   3118     1  0.0000000  1.2552000  3
   3116   3115   3117   3120     1  0.0000000  1.2552000  3
   3117   3115   3116   3126     1  0.0000000  1.2552000  3
   3117   3115   3116   3127     1  0.0000000  1.2552000  3
   3118   3117   3119   3123     1  0.0000000  0.6508444  3
   3118   3117   3119   3121     1  0.0000000  0.6508444  3
   3118   3117   3119   3122     1  0.0000000  0.6508444  3
   3120   3117   3119   3123     1  0.0000000  0.6508444  3
   3120   3117   3119   3121     1  0.0000000  0.6508444  3
   3120   3117   3119   3122     1  0.0000000  0.6508444  3
   3121   3119   3123   3124     1  0.0000000  3.3472000  1
   3121   3119   3123   3124     1  0.0000000  0.0000000  2
   3121   3119   3123   3124     1  180.0000771  0.3347200  3
   3121   3119   3123   3125     1  0.0000000  3.3472000  1
   3121   3119   3123   3125     1  0.0000000  0.0000000  2
   3121   3119   3123   3125     1  180.0000771  0.3347200  3
   3122   3119   3123   3124     1  0.0000000  3.3472000  1
   3122   3119   3123   3124     1  0.0000000  0.0000000  2
   3122   3119   3123   3124     1  180.0000771  0.3347200  3
   3122   3119   3123   3125     1  0.0000000  3.3472000  1
   3122   3119   3123   3125     1  0.0000000  0.0000000  2
   3122   3119   3123   3125     1  180.0000771  0.3347200  3
   3126   3116   3128   3131     1  0.0000000  0.6508444  3
   3126   3116   3128   3129     1  0.0000000  0.6508444  3
   3126   3116   3128   3130     1  0.0000000  0.6508444  3
   3127   3116   3128   3131     1  0.0000000  0.6508444  3
   3127   3116   3128   3129     1  0.0000000  0.6508444  3
   3127   3116   3128   3130     1  0.0000000  0.6508444  3
   3129   3128   3131   3132     1  0.0000000  3.3472000  1
   3129   3128   3131   3132     1  0.0000000  0.0000000  2
   3129   3128   3131   3132     1  180.0000771  0.3347200  3
   3129   3128   3131   3133     1  0.0000000  3.3472000  1
   3129   3128   3131   3133     1  0.0000000  0.0000000  2
   3129   3128   3131   3133     1  180.0000771  0.3347200  3
   3130   3128   3131   3132     1  0.0000000  3.3472000  1
   3130   3128   3131   3132     1  0.0000000  0.0000000  2
   3130   3128   3131   3132     1  180.0000771  0.3347200  3
   3130   3128   3131   3133     1  0.0000000  3.3472000  1
   3130   3128   3131   3133     1  0.0000000  0.0000000  2
   3130   3128   3131   3133     1  180.0000771  0.3347200  3
   3134   3136   3138   3140     1  0.0000000  0.6508444  3
   3134   3136   3138   3141     1  0.0000000  0.6508444  3
   3135   3134   3136   3138     1  0.0000000  0.0000000  2
   3135   3134   3136   3137     1  0.0000000  0.0000000  2
   3135   3134   3136   3139     1  0.0000000  0.0000000  2
   3137   3136   3138   3142     1  0.0000000  0.6508444  3
   3137   3136   3138   3140     1  0.0000000  0.6508444  3
   3137   3136   3138   3141     1  0.0000000  0.6508444  3
   3138   3142   3143   3153     1  0.0000000  1.2552000  3
   3138   3142   3143   3154     1  0.0000000  1.2552000  3
   3138   3142   3144   3145     1  0.0000000  1.2552000  3
   3138   3142   3144   3147     1  0.0000000  1.2552000  3
   3139   3136   3138   3142     1  0.0000000  0.6508444  3
   3139   3136   3138   3140     1  0.0000000  0.6508444  3
   3139   3136   3138   3141     1  0.0000000  0.6508444  3
   3140   3138   3142   3143     1  0.0000000  1.2552000  3
   3140   3138   3142   3144     1  0.0000000  1.2552000  3
   3141   3138   3142   3143     1  0.0000000  1.2552000  3
   3141   3138   3142   3144     1  0.0000000  1.2552000  3
   3142   3143   3155   3156     1  0.0000000  0.6508444  3
   3142   3143   3155   3157     1  0.0000000  0.6508444  3
   3142   3144   3146   3148     1  0.0000000  0.6508444  3
   3142   3144   3146   3149     1  0.0000000  0.6508444  3
   3143   3142   3144   3145     1  0.0000000  1.2552000  3
   3143   3142   3144   3147     1  0.0000000  1.2552000  3
   3144   3142   3143   3153     1  0.0000000  1.2552000  3
   3144   3142   3143   3154     1  0.0000000  1.2552000  3
   3145   3144   3146   3150     1  0.0000000  0.6508444  3
   3145   3144   3146   3148     1  0.0000000  0.6508444  3
   3145   3144   3146   3149     1  0.0000000  0.6508444  3
   3147   3144   3146   3150     1  0.0000000  0.6508444  3
   3147   3144   3146   3148     1  0.0000000  0.6508444  3
   3147   3144   3146   3149     1  0.0000000  0.6508444  3
   3148   3146   3150   3151     1  0.0000000  3.3472000  1
   3148   3146   3150   3151     1  0.0000000  0.0000000  2
   3148   3146   3150   3151     1  180.0000771  0.3347200  3
   3148   3146   3150   3152     1  0.0000000  3.3472000  1
   3148   3146   3150   3152     1  0.0000000  0.0000000  2
   3148   3146   3150   3152     1  180.0000771  0.3347200  3
   3149   3146   3150   3151     1  0.0000000  3.3472000  1
   3149   3146   3150   3151     1  0.0000000  0.0000000  2
   3149   3146   3150   3151     1  180.0000771  0.3347200  3
   3149   3146   3150   3152     1  0.0000000  3.3472000  1
   3149   3146   3150   3152     1  0.0000000  0.0000000  2
   3149   3146   3150   3152     1  180.0000771  0.3347200  3
   3153   3143   3155   3158     1  0.0000000  0.6508444  3
   3153   3143   3155   3156     1  0.0000000  0.6508444  3
   3153   3143   3155   3157     1  0.0000000  0.6508444  3
   3154   3143   3155   3158     1  0.0000000  0.6508444  3
   3154   3143   3155   3156     1  0.0000000  0.6508444  3
   3154   3143   3155   3157     1  0.0000000  0.6508444  3
   3156   3155   3158   3159     1  0.0000000  3.3472000  1
   3156   3155   3158   3159     1  0.0000000  0.0000000  2
   3156   3155   3158   3159     1  180.0000771  0.3347200  3
   3156   3155   3158   3160     1  0.0000000  3.3472000  1
   3156   3155   3158   3160     1  0.0000000  0.0000000  2
   3156   3155   3158   3160     1  180.0000771  0.3347200  3
   3157   3155   3158   3159     1  0.0000000  3.3472000  1
   3157   3155   3158   3159     1  0.0000000  0.0000000  2
   3157   3155   3158   3159     1  180.0000771  0.3347200  3
   3157   3155   3158   3160     1  0.0000000  3.3472000  1
   3157   3155   3158   3160     1  0.0000000  0.0000000  2
   3157   3155   3158   3160     1  180.0000771  0.3347200  3
   3161   3163   3165   3167     1  0.0000000  0.6508444  3
   3161   3163   3165   3168     1  0.0000000  0.6508444  3
   3162   3161   3163   3165     1  0.0000000  0.0000000  2
   3162   3161   3163   3164     1  0.0000000  0.0000000  2
   3162   3161   3163   3166     1  0.0000000  0.0000000  2
   3164   3163   3165   3169     1  0.0000000  0.6508444  3
   3164   3163   3165   3167     1  0.0000000  0.6508444  3
   3164   3163   3165   3168     1  0.0000000  0.6508444  3
   3165   3169   3170   3180     1  0.0000000  1.2552000  3
   3165   3169   3170   3181     1  0.0000000  1.2552000  3
   3165   3169   3171   3172     1  0.0000000  1.2552000  3
   3165   3169   3171   3174     1  0.0000000  1.2552000  3
   3166   3163   3165   3169     1  0.0000000  0.6508444  3
   3166   3163   3165   3167     1  0.0000000  0.6508444  3
   3166   3163   3165   3168     1  0.0000000  0.6508444  3
   3167   3165   3169   3170     1  0.0000000  1.2552000  3
   3167   3165   3169   3171     1  0.0000000  1.2552000  3
   3168   3165   3169   3170     1  0.0000000  1.2552000  3
   3168   3165   3169   3171     1  0.0000000  1.2552000  3
   3169   3170   3182   3183     1  0.0000000  0.6508444  3
   3169   3170   3182   3184     1  0.0000000  0.6508444  3
   3169   3171   3173   3175     1  0.0000000  0.6508444  3
   3169   3171   3173   3176     1  0.0000000  0.6508444  3
   3170   3169   3171   3172     1  0.0000000  1.2552000  3
   3170   3169   3171   3174     1  0.0000000  1.2552000  3
   3171   3169   3170   3180     1  0.0000000  1.2552000  3
   3171   3169   3170   3181     1  0.0000000  1.2552000  3
   3172   3171   3173   3177     1  0.0000000  0.6508444  3
   3172   3171   3173   3175     1  0.0000000  0.6508444  3
   3172   3171   3173   3176     1  0.0000000  0.6508444  3
   3174   3171   3173   3177     1  0.0000000  0.6508444  3
   3174   3171   3173   3175     1  0.0000000  0.6508444  3
   3174   3171   3173   3176     1  0.0000000  0.6508444  3
   3175   3173   3177   3178     1  0.0000000  3.3472000  1
   3175   3173   3177   3178     1  0.0000000  0.0000000  2
   3175   3173   3177   3178     1  180.0000771  0.3347200  3
   3175   3173   3177   3179     1  0.0000000  3.3472000  1
   3175   3173   3177   3179     1  0.0000000  0.0000000  2
   3175   3173   3177   3179     1  180.0000771  0.3347200  3
   3176   3173   3177   3178     1  0.0000000  3.3472000  1
   3176   3173   3177   3178     1  0.0000000  0.0000000  2
   3176   3173   3177   3178     1  180.0000771  0.3347200  3
   3176   3173   3177   3179     1  0.0000000  3.3472000  1
   3176   3173   3177   3179     1  0.0000000  0.0000000  2
   3176   3173   3177   3179     1  180.0000771  0.3347200  3
   3180   3170   3182   3185     1  0.0000000  0.6508444  3
   3180   3170   3182   3183     1  0.0000000  0.6508444  3
   3180   3170   3182   3184     1  0.0000000  0.6508444  3
   3181   3170   3182   3185     1  0.0000000  0.6508444  3
   3181   3170   3182   3183     1  0.0000000  0.6508444  3
   3181   3170   3182   3184     1  0.0000000  0.6508444  3
   3183   3182   3185   3186     1  0.0000000  3.3472000  1
   3183   3182   3185   3186     1  0.0000000  0.0000000  2
   3183   3182   3185   3186     1  180.0000771  0.3347200  3
   3183   3182   3185   3187     1  0.0000000  3.3472000  1
   3183   3182   3185   3187     1  0.0000000  0.0000000  2
   3183   3182   3185   3187     1  180.0000771  0.3347200  3
   3184   3182   3185   3186     1  0.0000000  3.3472000  1
   3184   3182   3185   3186     1  0.0000000  0.0000000  2
   3184   3182   3185   3186     1  180.0000771  0.3347200  3
   3184   3182   3185   3187     1  0.0000000  3.3472000  1
   3184   3182   3185   3187     1  0.0000000  0.0000000  2
   3184   3182   3185   3187     1  180.0000771  0.3347200  3
   3188   3190   3192   3194     1  0.0000000  0.6508444  3
   3188   3190   3192   3195     1  0.0000000  0.6508444  3
   3189   3188   3190   3192     1  0.0000000  0.0000000  2
   3189   3188   3190   3191     1  0.0000000  0.0000000  2
   3189   3188   3190   3193     1  0.0000000  0.0000000  2
   3191   3190   3192   3196     1  0.0000000  0.6508444  3
   3191   3190   3192   3194     1  0.0000000  0.6508444  3
   3191   3190   3192   3195     1  0.0000000  0.6508444  3
   3192   3196   3197   3207     1  0.0000000  1.2552000  3
   3192   3196   3197   3208     1  0.0000000  1.2552000  3
   3192   3196   3198   3199     1  0.0000000  1.2552000  3
   3192   3196   3198   3201     1  0.0000000  1.2552000  3
   3193   3190   3192   3196     1  0.0000000  0.6508444  3
   3193   3190   3192   3194     1  0.0000000  0.6508444  3
   3193   3190   3192   3195     1  0.0000000  0.6508444  3
   3194   3192   3196   3197     1  0.0000000  1.2552000  3
   3194   3192   3196   3198     1  0.0000000  1.2552000  3
   3195   3192   3196   3197     1  0.0000000  1.2552000  3
   3195   3192   3196   3198     1  0.0000000  1.2552000  3
   3196   3197   3209   3210     1  0.0000000  0.6508444  3
   3196   3197   3209   3211     1  0.0000000  0.6508444  3
   3196   3198   3200   3202     1  0.0000000  0.6508444  3
   3196   3198   3200   3203     1  0.0000000  0.6508444  3
   3197   3196   3198   3199     1  0.0000000  1.2552000  3
   3197   3196   3198   3201     1  0.0000000  1.2552000  3
   3198   3196   3197   3207     1  0.0000000  1.2552000  3
   3198   3196   3197   3208     1  0.0000000  1.2552000  3
   3199   3198   3200   3204     1  0.0000000  0.6508444  3
   3199   3198   3200   3202     1  0.0000000  0.6508444  3
   3199   3198   3200   3203     1  0.0000000  0.6508444  3
   3201   3198   3200   3204     1  0.0000000  0.6508444  3
   3201   3198   3200   3202     1  0.0000000  0.6508444  3
   3201   3198   3200   3203     1  0.0000000  0.6508444  3
   3202   3200   3204   3205     1  0.0000000  3.3472000  1
   3202   3200   3204   3205     1  0.0000000  0.0000000  2
   3202   3200   3204   3205     1  180.0000771  0.3347200  3
   3202   3200   3204   3206     1  0.0000000  3.3472000  1
   3202   3200   3204   3206     1  0.0000000  0.0000000  2
   3202   3200   3204   3206     1  180.0000771  0.3347200  3
   3203   3200   3204   3205     1  0.0000000  3.3472000  1
   3203   3200   3204   3205     1  0.0000000  0.0000000  2
   3203   3200   3204   3205     1  180.0000771  0.3347200  3
   3203   3200   3204   3206     1  0.0000000  3.3472000  1
   3203   3200   3204   3206     1  0.0000000  0.0000000  2
   3203   3200   3204   3206     1  180.0000771  0.3347200  3
   3207   3197   3209   3212     1  0.0000000  0.6508444  3
   3207   3197   3209   3210     1  0.0000000  0.6508444  3
   3207   3197   3209   3211     1  0.0000000  0.6508444  3
   3208   3197   3209   3212     1  0.0000000  0.6508444  3
   3208   3197   3209   3210     1  0.0000000  0.6508444  3
   3208   3197   3209   3211     1  0.0000000  0.6508444  3
   3210   3209   3212   3213     1  0.0000000  3.3472000  1
   3210   3209   3212   3213     1  0.0000000  0.0000000  2
   3210   3209   3212   3213     1  180.0000771  0.3347200  3
   3210   3209   3212   3214     1  0.0000000  3.3472000  1
   3210   3209   3212   3214     1  0.0000000  0.0000000  2
   3210   3209   3212   3214     1  180.0000771  0.3347200  3
   3211   3209   3212   3213     1  0.0000000  3.3472000  1
   3211   3209   3212   3213     1  0.0000000  0.0000000  2
   3211   3209   3212   3213     1  180.0000771  0.3347200  3
   3211   3209   3212   3214     1  0.0000000  3.3472000  1
   3211   3209   3212   3214     1  0.0000000  0.0000000  2
   3211   3209   3212   3214     1  180.0000771  0.3347200  3
   3215   3217   3219   3221     1  0.0000000  0.6508444  3
   3215   3217   3219   3222     1  0.0000000  0.6508444  3
   3216   3215   3217   3219     1  0.0000000  0.0000000  2
   3216   3215   3217   3218     1  0.0000000  0.0000000  2
   3216   3215   3217   3220     1  0.0000000  0.0000000  2
   3218   3217   3219   3223     1  0.0000000  0.6508444  3
   3218   3217   3219   3221     1  0.0000000  0.6508444  3
   3218   3217   3219   3222     1  0.0000000  0.6508444  3
   3219   3223   3224   3234     1  0.0000000  1.2552000  3
   3219   3223   3224   3235     1  0.0000000  1.2552000  3
   3219   3223   3225   3226     1  0.0000000  1.2552000  3
   3219   3223   3225   3228     1  0.0000000  1.2552000  3
   3220   3217   3219   3223     1  0.0000000  0.6508444  3
   3220   3217   3219   3221     1  0.0000000  0.6508444  3
   3220   3217   3219   3222     1  0.0000000  0.6508444  3
   3221   3219   3223   3224     1  0.0000000  1.2552000  3
   3221   3219   3223   3225     1  0.0000000  1.2552000  3
   3222   3219   3223   3224     1  0.0000000  1.2552000  3
   3222   3219   3223   3225     1  0.0000000  1.2552000  3
   3223   3224   3236   3237     1  0.0000000  0.6508444  3
   3223   3224   3236   3238     1  0.0000000  0.6508444  3
   3223   3225   3227   3229     1  0.0000000  0.6508444  3
   3223   3225   3227   3230     1  0.0000000  0.6508444  3
   3224   3223   3225   3226     1  0.0000000  1.2552000  3
   3224   3223   3225   3228     1  0.0000000  1.2552000  3
   3225   3223   3224   3234     1  0.0000000  1.2552000  3
   3225   3223   3224   3235     1  0.0000000  1.2552000  3
   3226   3225   3227   3231     1  0.0000000  0.6508444  3
   3226   3225   3227   3229     1  0.0000000  0.6508444  3
   3226   3225   3227   3230     1  0.0000000  0.6508444  3
   3228   3225   3227   3231     1  0.0000000  0.6508444  3
   3228   3225   3227   3229     1  0.0000000  0.6508444  3
   3228   3225   3227   3230     1  0.0000000  0.6508444  3
   3229   3227   3231   3232     1  0.0000000  3.3472000  1
   3229   3227   3231   3232     1  0.0000000  0.0000000  2
   3229   3227   3231   3232     1  180.0000771  0.3347200  3
   3229   3227   3231   3233     1  0.0000000  3.3472000  1
   3229   3227   3231   3233     1  0.0000000  0.0000000  2
   3229   3227   3231   3233     1  180.0000771  0.3347200  3
   3230   3227   3231   3232     1  0.0000000  3.3472000  1
   3230   3227   3231   3232     1  0.0000000  0.0000000  2
   3230   3227   3231   3232     1  180.0000771  0.3347200  3
   3230   3227   3231   3233     1  0.0000000  3.3472000  1
   3230   3227   3231   3233     1  0.0000000  0.0000000  2
   3230   3227   3231   3233     1  180.0000771  0.3347200  3
   3234   3224   3236   3239     1  0.0000000  0.6508444  3
   3234   3224   3236   3237     1  0.0000000  0.6508444  3
   3234   3224   3236   3238     1  0.0000000  0.6508444  3
   3235   3224   3236   3239     1  0.0000000  0.6508444  3
   3235   3224   3236   3237     1  0.0000000  0.6508444  3
   3235   3224   3236   3238     1  0.0000000  0.6508444  3
   3237   3236   3239   3240     1  0.0000000  3.3472000  1
   3237   3236   3239   3240     1  0.0000000  0.0000000  2
   3237   3236   3239   3240     1  180.0000771  0.3347200  3
   3237   3236   3239   3241     1  0.0000000  3.3472000  1
   3237   3236   3239   3241     1  0.0000000  0.0000000  2
   3237   3236   3239   3241     1  180.0000771  0.3347200  3
   3238   3236   3239   3240     1  0.0000000  3.3472000  1
   3238   3236   3239   3240     1  0.0000000  0.0000000  2
   3238   3236   3239   3240     1  180.0000771  0.3347200  3
   3238   3236   3239   3241     1  0.0000000  3.3472000  1
   3238   3236   3239   3241     1  0.0000000  0.0000000  2
   3238   3236   3239   3241     1  180.0000771  0.3347200  3
   3242   3244   3246   3248     1  0.0000000  0.6508444  3
   3242   3244   3246   3249     1  0.0000000  0.6508444  3
   3243   3242   3244   3246     1  0.0000000  0.0000000  2
   3243   3242   3244   3245     1  0.0000000  0.0000000  2
   3243   3242   3244   3247     1  0.0000000  0.0000000  2
   3245   3244   3246   3250     1  0.0000000  0.6508444  3
   3245   3244   3246   3248     1  0.0000000  0.6508444  3
   3245   3244   3246   3249     1  0.0000000  0.6508444  3
   3246   3250   3251   3261     1  0.0000000  1.2552000  3
   3246   3250   3251   3262     1  0.0000000  1.2552000  3
   3246   3250   3252   3253     1  0.0000000  1.2552000  3
   3246   3250   3252   3255     1  0.0000000  1.2552000  3
   3247   3244   3246   3250     1  0.0000000  0.6508444  3
   3247   3244   3246   3248     1  0.0000000  0.6508444  3
   3247   3244   3246   3249     1  0.0000000  0.6508444  3
   3248   3246   3250   3251     1  0.0000000  1.2552000  3
   3248   3246   3250   3252     1  0.0000000  1.2552000  3
   3249   3246   3250   3251     1  0.0000000  1.2552000  3
   3249   3246   3250   3252     1  0.0000000  1.2552000  3
   3250   3251   3263   3264     1  0.0000000  0.6508444  3
   3250   3251   3263   3265     1  0.0000000  0.6508444  3
   3250   3252   3254   3256     1  0.0000000  0.6508444  3
   3250   3252   3254   3257     1  0.0000000  0.6508444  3
   3251   3250   3252   3253     1  0.0000000  1.2552000  3
   3251   3250   3252   3255     1  0.0000000  1.2552000  3
   3252   3250   3251   3261     1  0.0000000  1.2552000  3
   3252   3250   3251   3262     1  0.0000000  1.2552000  3
   3253   3252   3254   3258     1  0.0000000  0.6508444  3
   3253   3252   3254   3256     1  0.0000000  0.6508444  3
   3253   3252   3254   3257     1  0.0000000  0.6508444  3
   3255   3252   3254   3258     1  0.0000000  0.6508444  3
   3255   3252   3254   3256     1  0.0000000  0.6508444  3
   3255   3252   3254   3257     1  0.0000000  0.6508444  3
   3256   3254   3258   3259     1  0.0000000  3.3472000  1
   3256   3254   3258   3259     1  0.0000000  0.0000000  2
   3256   3254   3258   3259     1  180.0000771  0.3347200  3
   3256   3254   3258   3260     1  0.0000000  3.3472000  1
   3256   3254   3258   3260     1  0.0000000  0.0000000  2
   3256   3254   3258   3260     1  180.0000771  0.3347200  3
   3257   3254   3258   3259     1  0.0000000  3.3472000  1
   3257   3254   3258   3259     1  0.0000000  0.0000000  2
   3257   3254   3258   3259     1  180.0000771  0.3347200  3
   3257   3254   3258   3260     1  0.0000000  3.3472000  1
   3257   3254   3258   3260     1  0.0000000  0.0000000  2
   3257   3254   3258   3260     1  180.0000771  0.3347200  3
   3261   3251   3263   3266     1  0.0000000  0.6508444  3
   3261   3251   3263   3264     1  0.0000000  0.6508444  3
   3261   3251   3263   3265     1  0.0000000  0.6508444  3
   3262   3251   3263   3266     1  0.0000000  0.6508444  3
   3262   3251   3263   3264     1  0.0000000  0.6508444  3
   3262   3251   3263   3265     1  0.0000000  0.6508444  3
   3264   3263   3266   3267     1  0.0000000  3.3472000  1
   3264   3263   3266   3267     1  0.0000000  0.0000000  2
   3264   3263   3266   3267     1  180.0000771  0.3347200  3
   3264   3263   3266   3268     1  0.0000000  3.3472000  1
   3264   3263   3266   3268     1  0.0000000  0.0000000  2
   3264   3263   3266   3268     1  180.0000771  0.3347200  3
   3265   3263   3266   3267     1  0.0000000  3.3472000  1
   3265   3263   3266   3267     1  0.0000000  0.0000000  2
   3265   3263   3266   3267     1  180.0000771  0.3347200  3
   3265   3263   3266   3268     1  0.0000000  3.3472000  1
   3265   3263   3266   3268     1  0.0000000  0.0000000  2
   3265   3263   3266   3268     1  180.0000771  0.3347200  3
     33     44     64     65     4  180.0000771  4.6024000  2
     34     69     89     90     4  180.0000771  4.6024000  2
     35     94    114    115     4  180.0000771  4.6024000  2
     36    119    139    140     4  180.0000771  4.6024000  2
     60    144    164    165     4  180.0000771  4.6024000  2
     61    169    189    190     4  180.0000771  4.6024000  2
     85    194    214    215     4  180.0000771  4.6024000  2
     86    219    239    240     4  180.0000771  4.6024000  2
    110    244    264    265     4  180.0000771  4.6024000  2
    111    269    289    290     4  180.0000771  4.6024000  2
    135    294    314    315     4  180.0000771  4.6024000  2
    136    319    339    340     4  180.0000771  4.6024000  2
    160    344    364    365     4  180.0000771  4.6024000  2
    161    369    389    390     4  180.0000771  4.6024000  2
    185    394    414    415     4  180.0000771  4.6024000  2
    186    419    439    440     4  180.0000771  4.6024000  2
    210    444    464    465     4  180.0000771  4.6024000  2
    211    469    489    490     4  180.0000771  4.6024000  2
    235    494    514    515     4  180.0000771  4.6024000  2
    236    519    539    540     4  180.0000771  4.6024000  2
    260    544    564    565     4  180.0000771  4.6024000  2
    261    569    589    590     4  180.0000771  4.6024000  2
    285    594    614    615     4  180.0000771  4.6024000  2
    286    619    639    640     4  180.0000771  4.6024000  2
    310    644    664    665     4  180.0000771  4.6024000  2
    311    669    689    690     4  180.0000771  4.6024000  2
    335    694    714    715     4  180.0000771  4.6024000  2
    336    719    739    740     4  180.0000771  4.6024000  2
    360    744    764    765     4  180.0000771  4.6024000  2
    361    769    789    790     4  180.0000771  4.6024000  2
    385    794    814    815     4  180.0000771  4.6024000  2
    386    819    839    840     4  180.0000771  4.6024000  2
    410    844    864    865     4  180.0000771  4.6024000  2
    411    869    889    890     4  180.0000771  4.6024000  2
    435    894    914    915     4  180.0000771  4.6024000  2
    436    919    939    940     4  180.0000771  4.6024000  2
    460    944    964    965     4  180.0000771  4.6024000  2
    461    969    989    990     4  180.0000771  4.6024000  2
    485    994   1014   1015     4  180.0000771  4.6024000  2
    486   1019   1039   1040     4  180.0000771  4.6024000  2
    510   1044   1064   1065     4  180.0000771  4.6024000  2
    511   1069   1089   1090     4  180.0000771  4.6024000  2
    535   1094   1114   1115     4  180.0000771  4.6024000  2
    536   1119   1139   1140     4  180.0000771  4.6024000  2
    560   1144   1164   1165     4  180.0000771  4.6024000  2
    561   1169   1189   1190     4  180.0000771  4.6024000  2
    585   1194   1214   1215     4  180.0000771  4.6024000  2
    586   1219   1239   1240     4  180.0000771  4.6024000  2
    610   1244   1264   1265     4  180.0000771  4.6024000  2
    611   1269   1289   1290     4  180.0000771  4.6024000  2
    635   1294   1314   1315     4  180.0000771  4.6024000  2
    636   1319   1339   1340     4  180.0000771  4.6024000  2
    660   1344   1364   1365     4  180.0000771  4.6024000  2
    661   1369   1389   1390     4  180.0000771  4.6024000  2
    685   1394   1414   1415     4  180.0000771  4.6024000  2
    686   1419   1439   1440     4  180.0000771  4.6024000  2
    710   1444   1464   1465     4  180.0000771  4.6024000  2
    711   1469   1489   1490     4  180.0000771  4.6024000  2
    735   1494   1514   1515     4  180.0000771  4.6024000  2
    736   1519   1539   1540     4  180.0000771  4.6024000  2
    760   1543   1541   1542     4  180.0000771  4.6024000  2
    761   1570   1568   1569     4  180.0000771  4.6024000  2
    785   1597   1595   1596     4  180.0000771  4.6024000  2
    786   1624   1622   1623     4  180.0000771  4.6024000  2
    810   1651   1649   1650     4  180.0000771  4.6024000  2
    811   1678   1676   1677     4  180.0000771  4.6024000  2
    835   1705   1703   1704     4  180.0000771  4.6024000  2
    836   1732   1730   1731     4  180.0000771  4.6024000  2
    860   1759   1757   1758     4  180.0000771  4.6024000  2
    861   1786   1784   1785     4  180.0000771  4.6024000  2
    885   1813   1811   1812     4  180.0000771  4.6024000  2
    886   1840   1838   1839     4  180.0000771  4.6024000  2
    910   1867   1865   1866     4  180.0000771  4.6024000  2
    911   1894   1892   1893     4  180.0000771  4.6024000  2
    935   1921   1919   1920     4  180.0000771  4.6024000  2
    936   1948   1946   1947     4  180.0000771  4.6024000  2
    960   1975   1973   1974     4  180.0000771  4.6024000  2
    961   2002   2000   2001     4  180.0000771  4.6024000  2
    985   2029   2027   2028     4  180.0000771  4.6024000  2
    986   2056   2054   2055     4  180.0000771  4.6024000  2
   1010   2083   2081   2082     4  180.0000771  4.6024000  2
   1011   2110   2108   2109     4  180.0000771  4.6024000  2
   1035   2137   2135   2136     4  180.0000771  4.6024000  2
   1036   2164   2162   2163     4  180.0000771  4.6024000  2
   1060   2191   2189   2190     4  180.0000771  4.6024000  2
   1061   2218   2216   2217     4  180.0000771  4.6024000  2
   1085   2245   2243   2244     4  180.0000771  4.6024000  2
   1086   2272   2270   2271     4  180.0000771  4.6024000  2
   1110   2299   2297   2298     4  180.0000771  4.6024000  2
   1111   2326   2324   2325     4  180.0000771  4.6024000  2
   1135   2353   2351   2352     4  180.0000771  4.6024000  2
   1136   2380   2378   2379     4  180.0000771  4.6024000  2
   1160   2407   2405   2406     4  180.0000771  4.6024000  2
   1161   2434   2432   2433     4  180.0000771  4.6024000  2
   1185   2461   2459   2460     4  180.0000771  4.6024000  2
   1186   2488   2486   2487     4  180.0000771  4.6024000  2
   1210   2515   2513   2514     4  180.0000771  4.6024000  2
   1211   2542   2540   2541     4  180.0000771  4.6024000  2
   1235   2569   2567   2568     4  180.0000771  4.6024000  2
   1236   2596   2594   2595     4  180.0000771  4.6024000  2
   1260   2623   2621   2622     4  180.0000771  4.6024000  2
   1261   2650   2648   2649     4  180.0000771  4.6024000  2
   1285   2677   2675   2676     4  180.0000771  4.6024000  2
   1286   2704   2702   2703     4  180.0000771  4.6024000  2
   1310   2731   2729   2730     4  180.0000771  4.6024000  2
   1311   2758   2756   2757     4  180.0000771  4.6024000  2
   1335   2785   2783   2784     4  180.0000771  4.6024000  2
   1336   2812   2810   2811     4  180.0000771  4.6024000  2
   1360   2839   2837   2838     4  180.0000771  4.6024000  2
   1361   2866   2864   2865     4  180.0000771  4.6024000  2
   1385   2893   2891   2892     4  180.0000771  4.6024000  2
   1386   2920   2918   2919     4  180.0000771  4.6024000  2
   1410   2947   2945   2946     4  180.0000771  4.6024000  2
   1411   2974   2972   2973     4  180.0000771  4.6024000  2
   1435   3001   2999   3000     4  180.0000771  4.6024000  2
   1436   3028   3026   3027     4  180.0000771  4.6024000  2
   1460   3055   3053   3054     4  180.0000771  4.6024000  2
   1461   3082   3080   3081     4  180.0000771  4.6024000  2
   1485   3109   3107   3108     4  180.0000771  4.6024000  2
   1486   3136   3134   3135     4  180.0000771  4.6024000  2
   1510   3163   3161   3162     4  180.0000771  4.6024000  2
   1511   3190   3188   3189     4  180.0000771  4.6024000  2
   1535   3217   3215   3216     4  180.0000771  4.6024000  2
   1536   3244   3242   3243     4  180.0000771  4.6024000  2

;[ system ]
;; Name
;Generic title
;
;[ molecules ]
;; Compound       #mols
;g4.5_pamam           1
