G4.5-PAMAM in water
89221
    1aaa     C1    1   2.231   6.801   8.437 -0.1507 -0.6124  0.4532
    1aaa     H1    2   2.203   6.765   8.537 -1.3158  0.0157  0.3736
    1aaa     H2    3   2.339   6.786   8.435  0.3987  2.5363  0.9233
    1aaa     C2    4   2.189   6.948   8.428 -0.0444  0.0478 -0.0956
    1aaa     H3    5   2.193   6.987   8.325 -0.5555  1.6721  0.4782
    1aaa     H4    6   2.084   6.940   8.457 -0.8157 -1.0025 -2.8023
    1aaa     N1    7   2.253   7.045   8.522 -0.5048 -1.1042  0.2786
    1aaa     N2    8   2.158   6.709   8.337 -0.1398  0.1456  0.0807
    1aaa     C3    9   2.207   6.742   8.198  0.4277  0.5316 -1.2195
    1aaa     H5   10   2.277   6.663   8.168 -1.0928 -0.2048 -3.0253
    1aaa     H6   11   2.256   6.840   8.204 -0.5354  1.0501 -1.5750
    1aaa     C4   12   2.162   6.564   8.374  0.0040  1.1797  0.0317
    1aaa     H7   13   2.122   6.510   8.287 -0.8993  0.0391  1.1105
    1aaa     H8   14   2.266   6.533   8.393 -0.1281  0.6817 -0.0471
    1aaa     C5   15   2.192   7.034   8.652 -0.0093  0.2947  0.5630
    1aaa     H9   16   2.180   6.930   8.684 -1.2312  0.1025 -0.4210
    1aaa    H10   17   2.254   7.077   8.731 -1.8077  0.8726  1.7242
    1aaa     C6   18   2.400   7.032   8.536  0.4759  0.0660  0.5599
    1aaa    H11   19   2.447   7.016   8.438  1.2556 -1.6940  1.1739
    1aaa    H12   20   2.407   6.942   8.598  0.9798  0.1978  0.6997
    1aaa     C7   21   2.060   7.115   8.652 -0.4518  0.4865  0.2320
    1aaa    H13   22   2.091   7.220   8.653 -0.3385  0.4623 -0.4474
    1aaa    H14   23   1.994   7.091   8.568  0.3211 -0.9734  0.0070
    1aaa     C8   24   2.476   7.147   8.610 -0.2695  0.6761  0.4932
    1aaa    H15   25   2.463   7.238   8.550 -1.1116 -0.3025 -0.8797
    1aaa    H16   26   2.438   7.168   8.710  0.8387 -0.3860  1.1612
    1aaa     C9   27   2.075   6.537   8.493 -0.2989  0.6128 -0.2230
    1aaa    H17   28   2.132   6.550   8.586  0.6976  0.4925 -0.8005
    1aaa    H18   29   1.999   6.616   8.497 -1.4832 -0.4923 -0.3717
    1aaa    C10   30   2.088   6.749   8.100  0.4504  0.1676 -0.2872
    1aaa    H19   31   2.035   6.654   8.103  2.0052 -0.6897  1.7828
    1aaa    H20   32   2.007   6.817   8.131  0.2528 -0.5232  0.7429
    1aaa    C11   33   2.009   6.402   8.502 -0.0773  0.5742 -0.1146
    1aaa    C12   34   2.129   6.776   7.961  0.2520  0.0856  0.2312
    1aaa    C13   35   1.981   7.085   8.776 -0.0085  0.1746  0.3869
    1aaa    C14   36   2.628   7.109   8.614  0.6189  0.5426 -0.5977
    1aaa     O1   37   2.042   6.310   8.430  0.7774 -0.0356 -0.4312
    1aaa     O2   38   2.033   7.013   8.858 -0.1318  0.5781  0.3233
    1aaa     O3   39   2.701   7.146   8.527 -0.0803  0.4324  0.5718
    1aaa     O4   40   2.246   6.805   7.927  0.2195 -0.3684  0.0661
    2bbb     C1   41   1.769   6.181   8.580  0.2950 -0.6308  0.1667
    2bbb     H1   42   1.797   6.181   8.474 -0.0460 -0.2908  0.0734
    2bbb     H2   43   1.676   6.239   8.583 -0.3838 -1.7441  1.2248
    2bbb     C2   44   1.870   6.257   8.661  0.0527 -0.6672 -0.3851
    2bbb     H3   45   1.832   6.285   8.760 -0.0427  1.6262 -1.0116
    2bbb     H4   46   1.953   6.187   8.674 -0.2710 -0.8907  0.5745
    2bbb     N1   47   1.746   6.046   8.632 -0.2493 -0.1470  0.1411
    2bbb     C3   48   1.606   6.000   8.603 -0.1628  0.4634  0.1426
    2bbb     H5   49   1.602   5.892   8.623 -0.4134  0.5767  0.7333
    2bbb     H6   50   1.582   6.032   8.500  0.6691  0.2308 -0.1271
    2bbb     C4   51   1.846   5.960   8.572  0.0174  0.1435  0.2008
    2bbb     H7   52   1.842   5.931   8.467  1.2313 -2.9991  0.9151
    2bbb     H8   53   1.943   6.011   8.583 -0.0804  0.3904 -0.0695
    2bbb     C5   54   1.858   5.830   8.654  0.0922  0.4842  0.4327
    2bbb     H9   55   1.880   5.839   8.761 -0.7675  0.8977  0.5843
    2bbb    H10   56   1.761   5.781   8.655 -0.4813  1.4699 -1.6665
    2bbb     C6   57   1.503   6.069   8.694  0.4721 -0.7340  1.0776
    2bbb    H11   58   1.531   6.051   8.798  0.5934 -0.0392  1.1721
    2bbb    H12   59   1.492   6.178   8.687 -2.6886 -1.0125  0.1547
    2bbb     C7   60   1.960   5.742   8.586 -0.1845  0.3845 -0.5829
    2bbb     C8   61   1.365   6.004   8.678 -0.1121  0.9640 -0.3194
    2bbb     O1   62   1.956   5.718   8.469  0.2129 -0.1939  0.2204
    2bbb     O2   63   1.336   5.914   8.754 -0.4074 -0.1486 -0.2826
    2bbb     N4   64   1.921   6.386   8.605  0.3288 -0.1559 -0.5148
    2bbb    H21   65   1.898   6.468   8.660  0.3232  0.4184 -1.3564
    3bbb     C1   66   1.904   6.868   7.663  0.7458 -0.2117  0.6725
    3bbb     H1   67   1.907   6.939   7.579 -0.0646 -0.6298  0.2786
    3bbb     H2   68   1.839   6.922   7.733  1.6753 -0.7566  1.9728
    3bbb     C2   69   2.036   6.854   7.734  0.9290 -0.8378  0.1957
    3bbb     H3   70   2.109   6.797   7.675  0.1650 -1.9334  0.2817
    3bbb     H4   71   2.064   6.957   7.760 -0.9638 -0.4988  1.0317
    3bbb     N1   72   1.836   6.737   7.629  0.2201 -1.3033  0.5796
    3bbb     C3   73   1.698   6.763   7.590 -0.2008  0.5011  0.2450
    3bbb     H5   74   1.676   6.707   7.499 -4.3631 -0.1896  1.4356
    3bbb     H6   75   1.678   6.867   7.560  2.0329  0.3137 -2.1658
    3bbb     C4   76   1.913   6.645   7.541  0.0720  0.5141  0.1627
    3bbb     H7   77   1.999   6.614   7.603  0.1945  0.2849 -0.1178
    3bbb     H8   78   1.855   6.555   7.520 -0.9209  0.9474  0.9405
    3bbb     C5   79   1.959   6.720   7.415 -0.0031  0.1013  0.6476
    3bbb     H9   80   1.878   6.774   7.365 -0.4705 -2.6754 -1.8734
    3bbb    H10   81   2.040   6.789   7.441 -0.2068  0.3717  0.5699
    3bbb     C6   82   1.609   6.718   7.698 -0.2969 -0.0232  0.0366
    3bbb    H11   83   1.625   6.614   7.728 -0.7610 -0.2809 -0.5968
    3bbb    H12   84   1.617   6.780   7.788  0.2492 -1.2494  0.8632
    3bbb     C7   85   2.022   6.622   7.322  0.4341  0.9017  0.0942
    3bbb     C8   86   1.471   6.721   7.639 -0.3018 -0.4854 -0.2834
    3bbb     O1   87   2.079   6.520   7.354 -0.2876  0.5070  0.0247
    3bbb     O2   88   1.433   6.737   7.528 -0.4092 -0.7240 -0.0582
    3bbb     N4   89   2.019   6.793   7.873  0.1942 -0.1008  0.0723
    3bbb    H21   90   1.934   6.777   7.926  2.2351 -0.5659  3.5242
    4bbb     C1   91   1.672   6.992   8.842 -0.0207  1.0636 -0.5044
    4bbb     H1   92   1.714   6.896   8.811 -0.0904  0.8874 -0.0482
    4bbb     H2   93   1.637   7.028   8.744  0.2785 -1.4935 -1.6365
    4bbb     C2   94   1.764   7.101   8.881  0.0488 -0.3886  0.4821
    4bbb     H3   95   1.692   7.181   8.902 -0.2639 -1.2329  3.0261
    4bbb     H4   96   1.813   7.071   8.975 -0.1556 -3.4247 -0.2902
    4bbb     N1   97   1.565   6.983   8.943 -0.2709  0.1326  0.7688
    4bbb     C3   98   1.573   6.857   9.022 -0.3792 -0.1598 -0.8619
    4bbb     H5   99   1.566   6.774   8.951  1.5850 -0.8547 -0.3116
    4bbb     H6  100   1.487   6.844   9.089  0.9106  0.7928  1.0598
    4bbb     C4  101   1.435   7.014   8.882  0.5292  0.7608 -0.0495
    4bbb     H7  102   1.432   7.105   8.821 -1.6014 -0.1330 -1.3877
    4bbb     H8  103   1.421   6.926   8.818  3.2654 -0.4210  0.8076
    4bbb     C5  104   1.332   7.022   8.987 -0.1762  0.2797 -0.2504
    4bbb     H9  105   1.315   6.930   9.043  2.0813  0.3095  0.5976
    4bbb    H10  106   1.367   7.103   9.053  2.4572 -0.6757 -0.3365
    4bbb     C6  107   1.697   6.847   9.108  0.1994 -0.1035 -0.1017
    4bbb    H11  108   1.784   6.856   9.042  0.4660 -0.0924  0.2520
    4bbb    H12  109   1.702   6.922   9.187  0.7372 -0.5755  0.3176
    4bbb     C7  110   1.205   7.060   8.919 -0.0251 -0.2226 -0.9143
    4bbb     C8  111   1.706   6.716   9.180 -0.1909  0.0887 -0.3287
    4bbb     O1  112   1.120   6.982   8.888 -0.0798 -0.0459  0.3512
    4bbb     O2  113   1.610   6.642   9.192  0.6549  0.4190 -0.4373
    4bbb     N4  114   1.862   7.140   8.782 -0.8458  0.4781  0.2883
    4bbb    H21  115   1.846   7.207   8.708  1.5594  0.5310 -0.2615
    5bbb     C1  116   2.781   6.905   8.900 -0.4165 -0.3915 -0.3671
    5bbb     H1  117   2.815   6.800   8.898  0.4114 -0.1289 -0.6381
    5bbb     H2  118   2.676   6.903   8.933 -1.0606  0.3793 -2.2401
    5bbb     C2  119   2.784   6.967   8.753  0.1450 -0.5347 -0.0645
    5bbb     H3  120   2.861   7.040   8.726 -0.8036 -0.1747 -1.9409
    5bbb     H4  121   2.789   6.878   8.689 -2.2182 -0.7832  0.0068
    5bbb     N1  122   2.857   6.998   8.981 -0.0680  0.6745 -0.0069
    5bbb     C3  123   2.998   6.986   8.969 -0.2057  0.1038  0.0622
    5bbb     H5  124   3.025   6.979   8.863  1.0806  0.5936  0.3347
    5bbb     H6  125   3.042   6.904   9.026 -0.2162 -1.4527 -2.0761
    5bbb     C4  126   2.826   6.971   9.127  0.0744 -0.0809  0.3301
    5bbb     H7  127   2.830   6.863   9.145 -1.6844 -0.1511  0.5195
    5bbb     H8  128   2.894   7.027   9.193 -1.0888  0.6059  0.9884
    5bbb     C5  129   2.693   7.031   9.167  0.3734  0.3632 -0.3162
    5bbb     H9  130   2.608   6.983   9.118  0.1851  0.5019 -0.1289
    5bbb    H10  131   2.691   7.015   9.276 -0.4682  0.0772 -0.3707
    5bbb     C6  132   3.067   7.116   9.004 -0.2474 -0.5606  0.2585
    5bbb    H11  133   3.005   7.192   8.956  0.8166 -0.2761 -0.7086
    5bbb    H12  134   3.083   7.147   9.108 -0.2370 -0.2419  0.1627
    5bbb     C7  135   2.706   7.182   9.144  0.2144 -0.0070  0.2205
    5bbb     C8  136   3.206   7.119   8.942  0.6282 -0.2482 -0.5470
    5bbb     O1  137   2.757   7.256   9.233  0.2000 -0.2430  0.3973
    5bbb     O2  138   3.224   7.154   8.832  0.8727 -0.1056  0.3176
    5bbb     N4  139   2.652   7.037   8.726 -0.0256  0.0457 -0.8981
    5bbb    H21  140   2.575   7.022   8.789  0.4666  0.6843 -0.1202
    6bbb     C1  141   2.246   5.568   8.582 -0.2828  1.0409 -0.2622
    6bbb     H1  142   2.298   5.648   8.636  0.0481  3.3025 -3.6066
    6bbb     H2  143   2.232   5.618   8.485  0.9435  2.1421  0.0925
    6bbb     C2  144   2.110   5.551   8.636 -0.3026 -0.1176  0.4377
    6bbb     H3  145   2.050   5.503   8.558 -1.6955  2.3688 -0.1491
    6bbb     H4  146   2.118   5.488   8.725  1.4918 -1.2705 -0.4752
    6bbb     N1  147   2.323   5.441   8.571 -0.1066  0.6402  0.4658
    6bbb     C3  148   2.467   5.475   8.570 -0.0547  0.5477  0.7734
    6bbb     H5  149   2.476   5.568   8.512  0.8367  1.3886  2.1980
    6bbb     H6  150   2.522   5.402   8.510 -1.4344  0.2530 -0.1817
    6bbb     C4  151   2.274   5.362   8.459  0.1323 -0.4642  0.9421
    6bbb     H7  152   2.165   5.351   8.462  0.1831 -1.6830 -0.4719
    6bbb     H8  153   2.300   5.426   8.373  0.2022 -1.0800  0.4972
    6bbb     C5  154   2.339   5.228   8.458 -0.3813 -0.5123 -0.0925
    6bbb     H9  155   2.446   5.233   8.479 -0.6031  1.8035  0.7023
    6bbb    H10  156   2.292   5.167   8.536 -2.7443  0.6134 -0.5224
    6bbb     C6  157   2.528   5.501   8.701 -0.3407 -0.5439 -0.8892
    6bbb    H11  158   2.488   5.586   8.757 -0.4327  1.1169 -3.3429
    6bbb    H12  159   2.533   5.413   8.767 -0.3598  0.4412  0.4697
    6bbb     C7  160   2.320   5.168   8.323  0.4477  0.4092  0.4492
    6bbb     C8  161   2.678   5.537   8.674  0.1845  1.0896  0.4793
    6bbb     O1  162   2.212   5.167   8.270  0.3702 -0.5763  0.1622
    6bbb     O2  163   2.705   5.586   8.563 -0.5316 -0.3033 -0.3738
    6bbb     N4  164   2.046   5.679   8.671 -0.0159 -0.7642 -0.0211
    6bbb    H21  165   2.014   5.696   8.766 -0.8580 -0.4739 -0.3508
    7bbb     C1  166   1.049   6.072   8.499  0.2227  0.1817  0.2165
    7bbb     H1  167   0.963   6.018   8.456  0.4894  0.3597 -0.5385
    7bbb     H2  168   1.104   6.114   8.414 -2.1412  0.0477 -1.4807
    7bbb     C2  169   1.148   5.988   8.576  0.3026  0.1775 -0.4886
    7bbb     H3  170   1.108   5.973   8.677  2.1383  0.2681  0.2909
    7bbb     H4  171   1.156   5.891   8.526 -1.2390 -0.6548  0.7785
    7bbb     N1  172   0.975   6.169   8.583  0.4749 -0.1691  0.0600
    7bbb     C3  173   0.845   6.108   8.630 -0.1090  0.4546 -0.8073
    7bbb     H5  174   0.874   6.006   8.659  2.6208  1.3284 -0.1049
    7bbb     H6  175   0.769   6.101   8.551  0.9484  0.4475 -1.8586
    7bbb     C4  176   0.968   6.307   8.524  0.1704  0.0702 -0.0848
    7bbb     H7  177   0.916   6.316   8.428  1.8323 -2.6243 -1.3711
    7bbb     H8  178   0.928   6.379   8.597  0.5771 -1.5556  1.8422
    7bbb     C5  179   1.108   6.367   8.507  0.4462  0.7252  0.4426
    7bbb     H9  180   1.161   6.373   8.603  0.1698  1.9627  0.5384
    7bbb    H10  181   1.165   6.301   8.441 -1.5367 -0.1208 -0.4807
    7bbb     C6  182   0.798   6.188   8.753 -0.9086 -0.2420  0.6583
    7bbb    H11  183   0.861   6.188   8.843  1.1964 -0.3934 -0.7480
    7bbb    H12  184   0.786   6.295   8.732 -0.1779 -0.1990  0.4329
    7bbb     C7  185   1.096   6.500   8.442  0.3756 -0.4753 -0.0737
    7bbb     C8  186   0.669   6.136   8.795 -0.2904 -0.1159  0.3672
    7bbb     O1  187   1.167   6.526   8.350  0.1336  0.1545 -0.4834
    7bbb     O2  188   0.564   6.177   8.750  0.3216 -0.6441 -0.1991
    7bbb     N4  189   1.284   6.047   8.583  0.5147  0.2022 -0.2194
    7bbb    H21  190   1.322   6.086   8.498 -2.0326 -0.5346 -1.8158
    8bbb     C1  191   2.088   6.678   6.960 -0.3254 -0.2260 -0.6349
    8bbb     H1  192   2.149   6.766   6.981 -0.8831  0.2598 -1.0233
    8bbb     H2  193   1.987   6.715   6.936 -1.2187 -0.1003  2.7732
    8bbb     C2  194   2.083   6.593   7.081  0.3385 -0.4368  0.5123
    8bbb     H3  195   2.025   6.505   7.050 -0.0854  0.1045 -0.2798
    8bbb     H4  196   2.182   6.557   7.111 -0.0055 -0.4810  1.6488
    8bbb     N1  197   2.133   6.605   6.840 -0.4953  0.3818 -0.2219
    8bbb     C3  198   2.275   6.597   6.831 -0.5993 -0.2020  0.2297
    8bbb     H5  199   2.324   6.628   6.924  1.2206 -0.1672 -0.6981
    8bbb     H6  200   2.314   6.648   6.742  0.3721 -1.3694 -0.0423
    8bbb     C4  201   2.067   6.634   6.713 -0.0389 -0.0680 -0.3117
    8bbb     H7  202   2.052   6.742   6.705  2.4147  0.3525 -0.0146
    8bbb     H8  203   2.133   6.600   6.632 -1.1068 -0.4962 -1.0191
    8bbb     C5  204   1.935   6.559   6.701 -0.7299  0.0477 -0.8376
    8bbb     H9  205   1.868   6.578   6.785 -3.0575  2.2844 -3.0189
    8bbb    H10  206   1.886   6.585   6.606 -1.5481 -3.1329 -1.4171
    8bbb     C6  207   2.307   6.450   6.811  0.2821  0.1658  0.3079
    8bbb    H11  208   2.291   6.394   6.903  1.8884 -0.4107  0.2727
    8bbb    H12  209   2.244   6.411   6.730 -3.5139  4.1050  0.9584
    8bbb     C7  210   1.960   6.410   6.689 -0.4087 -0.1870 -0.7644
    8bbb     C8  211   2.454   6.434   6.779  0.0694 -0.5676  0.5301
    8bbb     O1  212   1.955   6.352   6.581 -0.3044 -0.3543 -0.1093
    8bbb     O2  213   2.540   6.452   6.868  0.2680  0.4041 -0.2503
    8bbb     N4  214   2.020   6.664   7.195 -0.4543  0.0418  0.2514
    8bbb    H21  215   1.967   6.748   7.175  0.4319  0.6115  0.2205
    9bbb     C1  216   1.143   6.637   7.812 -0.7406 -0.7140 -0.3630
    9bbb     H1  217   1.186   6.662   7.910 -0.1491  0.8733 -0.9962
    9bbb     H2  218   1.159   6.534   7.780  1.0020 -0.1536 -1.4509
    9bbb     C2  219   1.228   6.719   7.715  0.0155  0.1190  0.0492
    9bbb     H3  220   1.206   6.687   7.613  0.9356 -1.2368  0.2486
    9bbb     H4  221   1.200   6.824   7.728 -1.1952 -0.3492  1.5255
    9bbb     N1  222   1.000   6.668   7.806  0.1005 -0.3217 -0.4915
    9bbb     C3  223   0.932   6.592   7.907 -0.5015 -0.3318  0.2772
    9bbb     H5  224   0.965   6.488   7.906 -0.0672 -0.2660 -2.9089
    9bbb     H6  225   0.825   6.596   7.882 -0.6052 -0.2046  0.7197
    9bbb     C4  226   0.949   6.626   7.671 -0.7081  0.4569 -0.4961
    9bbb     H7  227   1.018   6.640   7.587 -0.0475 -1.9464 -0.4219
    9bbb     H8  228   0.924   6.520   7.677  0.8129 -0.0643 -2.2715
    9bbb     C5  229   0.821   6.703   7.620 -0.0636 -0.4850  0.0192
    9bbb     H9  230   0.777   6.640   7.541  0.2010 -0.2026 -0.3601
    9bbb    H10  231   0.759   6.721   7.708 -0.5927 -0.7644 -0.2929
    9bbb     C6  232   0.950   6.654   8.045  0.3160  0.8524  0.2934
    9bbb    H11  233   1.042   6.632   8.101 -0.2936  2.1219  1.8721
    9bbb    H12  234   0.945   6.763   8.028  0.1994  0.4947 -2.5433
    9bbb     C7  235   0.869   6.826   7.553 -0.0023  0.7068  0.6187
    9bbb     C8  236   0.857   6.597   8.147  0.3763  0.1616 -0.3460
    9bbb     O1  237   0.944   6.825   7.457 -0.6651  0.2909  0.5532
    9bbb     O2  238   0.767   6.666   8.191  0.1589 -0.2059  0.4665
    9bbb     N4  239   1.374   6.701   7.734 -0.2643 -0.3970  0.5933
    9bbb    H21  240   1.407   6.679   7.827  1.6779  2.2722  0.6627
   10bbb     C1  241   1.072   7.410   8.838 -0.3962  0.0299  0.0222
   10bbb     H1  242   1.162   7.460   8.800 -1.1728  0.6564 -1.0580
   10bbb     H2  243   1.073   7.414   8.947  0.1410  0.9668 -0.0078
   10bbb     C2  244   1.072   7.258   8.819 -0.0773  0.3462 -0.6558
   10bbb     H3  245   0.976   7.215   8.852 -0.0473 -0.5915 -1.7169
   10bbb     H4  246   1.084   7.233   8.713 -1.0637 -1.7308 -0.3345
   10bbb     N1  247   0.954   7.474   8.777 -0.1097  0.9423  0.0338
   10bbb     C3  248   0.948   7.451   8.629 -0.5156  0.2457  0.0978
   10bbb     H5  249   0.995   7.362   8.587 -2.9110 -0.0035 -2.2955
   10bbb     H6  250   1.004   7.534   8.585 -3.0908  1.2651 -1.4613
   10bbb     C4  251   0.947   7.612   8.813 -0.2968 -0.3714 -0.2414
   10bbb     H7  252   1.025   7.666   8.758 -1.7804  0.5117 -1.5395
   10bbb     H8  253   0.853   7.649   8.771 -0.3726 -1.5527 -1.1632
   10bbb     C5  254   0.962   7.629   8.966 -0.3823  0.9514  0.2375
   10bbb     H9  255   0.899   7.554   9.015 -0.9717  0.4068 -1.2968
   10bbb    H10  256   1.066   7.625   9.000  0.1389 -0.6691 -1.4151
   10bbb     C6  257   0.808   7.443   8.576 -0.0147  0.1424 -0.9010
   10bbb    H11  258   0.773   7.350   8.622  4.2158 -1.4385 -0.4614
   10bbb    H12  259   0.750   7.532   8.606 -0.1969  0.4259 -2.0526
   10bbb     C7  260   0.909   7.758   9.029  0.1270 -0.2422 -0.3997
   10bbb     C8  261   0.808   7.444   8.426 -0.0130  0.7940  0.6543
   10bbb     O1  262   0.990   7.850   9.050  0.0073  0.4227  0.0105
   10bbb     O2  263   0.902   7.467   8.354 -0.3145  0.3477  0.7294
   10bbb     N4  264   1.189   7.193   8.894  0.8756 -0.1664 -0.2970
   10bbb    H21  265   1.259   7.258   8.927 -0.1803  0.7605  0.2147
   11bbb     C1  266   2.017   6.573   9.345  0.0308  0.3170 -0.3233
   11bbb     H1  267   2.053   6.672   9.375  0.3708  0.6353 -1.7207
   11bbb     H2  268   2.058   6.551   9.246  1.4002 -0.1488  0.3214
   11bbb     C2  269   1.865   6.587   9.336  0.3716 -0.0968  0.0986
   11bbb     H3  270   1.822   6.497   9.291  0.5405 -0.5143  0.7612
   11bbb     H4  271   1.822   6.602   9.435 -0.8975 -1.3778 -0.2230
   11bbb     N1  272   2.047   6.480   9.452 -0.7547  1.5475  0.1631
   11bbb     C3  273   2.044   6.535   9.587  0.0098  0.4054  0.9215
   11bbb     H5  274   1.950   6.590   9.597  1.1065  2.5099  0.1738
   11bbb     H6  275   2.126   6.607   9.600 -0.2101  0.8540 -0.1307
   11bbb     C4  276   2.177   6.425   9.413 -0.0878 -0.2191  0.2991
   11bbb     H7  277   2.245   6.494   9.361 -0.2449 -0.3257 -0.0562
   11bbb     H8  278   2.226   6.392   9.505 -0.5813  1.4602  1.1920
   11bbb     C5  279   2.164   6.301   9.323 -0.4836 -0.2077 -0.1268
   11bbb     H9  280   2.110   6.236   9.392 -1.4666  0.9369  0.2277
   11bbb    H10  281   2.096   6.306   9.237 -0.5983 -3.2617 -0.3123
   11bbb     C6  282   2.052   6.434   9.697  0.4060  0.1690  0.1581
   11bbb    H11  283   1.971   6.362   9.686  1.1044 -0.3720 -2.2342
   11bbb    H12  284   2.150   6.384   9.699  1.0020  1.2665 -0.2766
   11bbb     C7  285   2.298   6.246   9.288  0.3998  0.5258 -0.0385
   11bbb     C8  286   2.030   6.502   9.825 -0.2046  0.0116  0.1622
   11bbb     O1  287   2.400   6.315   9.281 -0.0726  0.2800  0.0106
   11bbb     O2  288   2.123   6.522   9.902  0.1821  0.1910  0.2830
   11bbb     N4  289   1.822   6.702   9.251  0.1516  0.3338  0.3256
   11bbb    H21  290   1.890   6.775   9.230  0.2411 -0.0237 -0.6877
   12bbb     C1  291   2.579   7.436   8.900  0.1734  0.0898  0.3593
   12bbb     H1  292   2.506   7.453   8.980 -0.4713 -0.3011 -0.1367
   12bbb     H2  293   2.527   7.381   8.821  1.9726  2.3756 -2.6605
   12bbb     C2  294   2.694   7.362   8.966 -0.2941  0.3993 -0.1367
   12bbb     H3  295   2.769   7.333   8.892 -1.2871 -2.6796 -0.0640
   12bbb     H4  296   2.746   7.434   9.031  0.6105 -0.0677 -0.3286
   12bbb     N1  297   2.622   7.563   8.843 -0.5928  0.3165 -0.0752
   12bbb     C3  298   2.689   7.538   8.715 -0.3520  0.1944  0.2916
   12bbb     H5  299   2.660   7.443   8.669  0.1357 -1.4452  3.1201
   12bbb     H6  300   2.797   7.541   8.731 -0.1542  0.4979 -1.0275
   12bbb     C4  301   2.691   7.662   8.920  0.6683 -0.3781 -0.1282
   12bbb     H7  302   2.786   7.631   8.966  1.1029  1.1577  0.0721
   12bbb     H8  303   2.697   7.749   8.853 -0.5182  0.7357  1.1389
   12bbb     C5  304   2.608   7.714   9.042  0.3113  0.5419 -0.0062
   12bbb     H9  305   2.519   7.767   9.008  0.1292 -0.5611 -1.3572
   12bbb    H10  306   2.582   7.633   9.111 -2.4600  1.0469 -0.3588
   12bbb     C6  307   2.658   7.642   8.610  0.4579 -0.8254  0.4397
   12bbb    H11  308   2.552   7.648   8.582  0.3589  1.7496  1.0710
   12bbb    H12  309   2.684   7.743   8.644 -0.8995  0.0997 -1.0945
   12bbb     C7  310   2.683   7.829   9.121 -0.6322  0.1449 -0.0180
   12bbb     C8  311   2.741   7.609   8.495 -0.2327 -0.1179  0.3735
   12bbb     O1  312   2.693   7.943   9.080 -0.2255  0.0996  0.2368
   12bbb     O2  313   2.769   7.492   8.461  0.1122 -0.2272  0.3746
   12bbb     N4  314   2.647   7.243   9.032  0.4932  0.4563 -0.2229
   12bbb    H21  315   2.593   7.180   8.974 -0.7046  0.1916  1.1224
   13bbb     C1  316   3.519   6.983   9.112  0.4365  0.6678 -0.4183
   13bbb     H1  317   3.529   7.069   9.180 -0.5019 -0.3323  1.0348
   13bbb     H2  318   3.613   6.934   9.082  0.5416 -0.0216  0.9479
   13bbb     C2  319   3.444   7.033   8.991 -0.5977  0.1735 -0.0236
   13bbb     H3  320   3.502   7.115   8.946  1.2424 -0.4671  1.0457
   13bbb     H4  321   3.444   6.955   8.914  1.0818  0.2976 -0.1897
   13bbb     N1  322   3.448   6.870   9.184 -0.5208 -0.7689 -0.3554
   13bbb     C3  323   3.473   6.865   9.329 -0.0359  0.0937  0.3738
   13bbb     H5  324   3.581   6.881   9.343 -0.0670  1.2430 -0.4595
   13bbb     H6  325   3.438   6.773   9.376 -0.5859  1.0673  1.9260
   13bbb     C4  326   3.459   6.743   9.113 -0.1425 -0.8137 -0.7617
   13bbb     H7  327   3.478   6.761   9.006 -2.0918 -0.1862 -1.0463
   13bbb     H8  328   3.536   6.679   9.158 -2.1643 -2.0842  1.1194
   13bbb     C5  329   3.324   6.680   9.122 -0.0038 -1.0103  0.4406
   13bbb     H9  330   3.281   6.705   9.220  1.4078  0.5843  0.6936
   13bbb    H10  331   3.269   6.725   9.039 -0.0933  0.1408  1.1054
   13bbb     C6  332   3.399   6.978   9.406 -0.1704 -0.1282  0.9565
   13bbb    H11  333   3.423   6.982   9.513 -1.9221 -0.8632  1.4090
   13bbb    H12  334   3.431   7.078   9.376 -0.7851  0.4670  2.2333
   13bbb     C7  335   3.332   6.534   9.113 -1.0938  0.0174 -0.1185
   13bbb     C8  336   3.253   6.967   9.382  0.3931 -0.1948  0.8369
   13bbb     O1  337   3.369   6.460   9.204 -0.9301 -0.3057  0.1434
   13bbb     O2  338   3.201   7.049   9.314  0.3454  0.5234  0.0225
   13bbb     N4  339   3.300   7.070   9.026 -1.1540 -0.0312 -0.3366
   13bbb    H21  340   3.274   7.052   9.122  2.2033 -2.0417  0.3998
   14bbb     C1  341   2.510   4.850   8.219  1.1289 -0.5903 -0.6618
   14bbb     H1  342   2.610   4.883   8.249  0.9260 -0.9424  0.4720
   14bbb     H2  343   2.503   4.792   8.126  1.0419 -0.8985 -0.4663
   14bbb     C2  344   2.429   4.979   8.192 -0.3240  0.6189  0.5754
   14bbb     H3  345   2.471   5.013   8.096  0.7753 -1.2662  0.3334
   14bbb     H4  346   2.326   4.950   8.166  0.2610  0.1514 -1.4537
   14bbb     N1  347   2.453   4.763   8.328 -0.5456 -0.7392  0.1294
   14bbb     C3  348   2.319   4.718   8.307 -0.2434  0.7288  0.5328
   14bbb     H5  349   2.259   4.803   8.275  2.7765  2.3510 -1.2654
   14bbb     H6  350   2.283   4.684   8.405  2.3078 -2.2771  0.5900
   14bbb     C4  351   2.471   4.812   8.462 -0.2978  0.5299 -0.1629
   14bbb     H7  352   2.407   4.900   8.479  0.7644  0.7921  3.1623
   14bbb     H8  353   2.438   4.736   8.533  0.3830  0.2173 -0.1771
   14bbb     C5  354   2.614   4.844   8.506 -0.2615  0.2879  0.3197
   14bbb     H9  355   2.690   4.768   8.485 -0.9903 -0.5014  0.4696
   14bbb    H10  356   2.640   4.937   8.454 -2.2033  0.4317 -0.4684
   14bbb     C6  357   2.312   4.601   8.210  0.5590 -0.1904 -0.0513
   14bbb    H11  358   2.329   4.632   8.105 -0.7182 -1.0128 -0.5163
   14bbb    H12  359   2.391   4.534   8.247 -0.0529 -0.4723  0.7621
   14bbb     C7  360   2.617   4.871   8.656  0.5360 -0.0089 -1.0034
   14bbb     C8  361   2.195   4.518   8.240  0.1309  0.0510  0.1698
   14bbb     O1  362   2.529   4.931   8.712 -0.2270 -0.6074  0.0261
   14bbb     O2  363   2.080   4.558   8.223  0.0667  0.3004 -0.2049
   14bbb     N4  364   2.431   5.093   8.281  0.1270 -0.0944 -0.0290
   14bbb    H21  365   2.517   5.109   8.332  0.4431 -1.0045 -0.2571
   15bbb     C1  366   2.984   5.629   8.810  0.2486  0.6283  0.7967
   15bbb     H1  367   2.922   5.717   8.829 -0.9689  0.0023 -0.1279
   15bbb     H2  368   3.053   5.658   8.730 -0.8047  2.9749  0.6580
   15bbb     C2  369   2.911   5.501   8.751 -0.2787 -0.1135 -0.3993
   15bbb     H3  370   2.936   5.485   8.646 -0.0658  1.0805 -0.5433
   15bbb     H4  371   2.957   5.417   8.804  1.0384  0.5175 -0.4985
   15bbb     N1  372   3.061   5.599   8.930  0.3179  0.2554  0.2365
   15bbb     C3  373   2.969   5.562   9.043 -0.1413 -0.0925 -0.1446
   15bbb     H5  374   2.881   5.515   8.999  1.2425 -0.0855 -3.1508
   15bbb     H6  375   2.934   5.640   9.112  1.8932 -1.6825  2.9364
   15bbb     C4  376   3.148   5.708   8.958 -0.2594 -0.6998 -0.8063
   15bbb     H7  377   3.100   5.806   8.943  1.1371  0.6027  2.2371
   15bbb     H8  378   3.177   5.706   9.064 -2.0570 -1.6276 -0.2940
   15bbb     C5  379   3.274   5.696   8.877  0.1833 -0.9438  0.0145
   15bbb     H9  380   3.320   5.596   8.878  3.1043  0.3030 -0.4382
   15bbb    H10  381   3.251   5.733   8.776  0.8592  1.0887  0.5794
   15bbb     C6  382   3.047   5.458   9.127  0.2308 -0.0945  0.1570
   15bbb    H11  383   3.143   5.506   9.152  1.0734 -1.6117 -0.0853
   15bbb    H12  384   3.007   5.427   9.224 -2.1272  2.3577  0.0856
   15bbb     C7  385   3.363   5.794   8.941 -0.1022 -0.1401 -0.0419
   15bbb     C8  386   3.078   5.334   9.038  0.5239 -0.0509 -0.1603
   15bbb     O1  387   3.357   5.913   8.925 -0.2824 -0.1107  1.2237
   15bbb     O2  388   2.995   5.256   9.006  0.4239  0.0126 -0.0087
   15bbb     N4  389   2.768   5.501   8.771 -0.8232 -0.0655 -0.5214
   15bbb    H21  390   2.730   5.469   8.859 -0.4731  0.5962 -0.1228
   16bbb     C1  391   0.906   6.825   8.523 -0.2822  0.1342 -0.0621
   16bbb     H1  392   0.936   6.839   8.627  1.3471  1.6391 -0.6768
   16bbb     H2  393   0.812   6.768   8.521 -0.2915  0.1204 -2.3598
   16bbb     C2  394   1.007   6.732   8.447 -0.1548  0.5595  0.0263
   16bbb     H3  395   0.974   6.727   8.342 -1.4651  0.8019  0.4118
   16bbb     H4  396   1.110   6.769   8.454 -0.1966  1.1830 -1.8866
   16bbb     N1  397   0.880   6.962   8.468 -0.0593 -0.3930  0.0499
   16bbb     C3  398   1.005   7.034   8.459 -0.2730  0.2777 -0.0632
   16bbb     H5  399   1.087   6.965   8.435  0.4870  0.4351  1.9126
   16bbb     H6  400   1.024   7.095   8.548 -1.9322 -0.0363  0.5554
   16bbb     C4  401   0.778   7.040   8.531  0.0706 -0.1008  0.0652
   16bbb     H7  402   0.780   7.025   8.640  1.8715  0.9156  0.2048
   16bbb     H8  403   0.786   7.148   8.516 -1.1826 -0.1546 -1.2471
   16bbb     C5  404   0.636   7.001   8.482 -0.2266  0.3085  0.3621
   16bbb     H9  405   0.629   7.011   8.373  0.1414  1.0830  0.4030
   16bbb    H10  406   0.614   6.898   8.511 -0.2023  0.1435 -0.1965
   16bbb     C6  407   1.007   7.128   8.341  0.6389 -0.6817  0.6271
   16bbb    H11  408   0.989   7.074   8.247  0.6690 -0.5173  0.5255
   16bbb    H12  409   0.944   7.218   8.346  0.8297 -0.4013 -1.2384
   16bbb     C7  410   0.534   7.100   8.545 -0.5224  0.0329 -0.1966
   16bbb     C8  411   1.141   7.181   8.307  0.5877  0.3055  0.2972
   16bbb     O1  412   0.542   7.220   8.528  0.5445  0.5430  0.3109
   16bbb     O2  413   1.236   7.101   8.290  0.4872 -0.2559  0.6861
   16bbb     N4  414   1.012   6.592   8.499  0.1270 -0.3693 -0.7057
   16bbb    H21  415   0.964   6.570   8.585  1.5663 -1.5334 -0.1481
   17bbb     C1  416   0.615   5.824   8.996  0.1554 -0.1291 -0.6317
   17bbb     H1  417   0.533   5.766   9.040 -0.2533 -1.1916 -2.6424
   17bbb     H2  418   0.673   5.874   9.074 -0.8810  1.0925 -0.6086
   17bbb     C2  419   0.565   5.934   8.905 -0.1286  0.9539 -0.2274
   17bbb     H3  420   0.511   5.887   8.822 -0.6326  1.1605 -0.0214
   17bbb     H4  421   0.490   5.993   8.960 -1.5903 -2.0445  1.2050
   17bbb     N1  422   0.694   5.726   8.928 -0.0551 -0.2777 -0.5717
   17bbb     C3  423   0.621   5.646   8.832 -0.1744  0.8477 -0.8590
   17bbb     H5  424   0.513   5.665   8.844 -0.1534  1.1601 -1.1511
   17bbb     H6  425   0.635   5.538   8.845  1.5777  1.3931  3.4319
   17bbb     C4  426   0.763   5.647   9.030 -0.2919 -0.5689 -0.8316
   17bbb     H7  427   0.807   5.719   9.101 -1.1252  0.3945 -1.2706
   17bbb     H8  428   0.697   5.577   9.084  0.0481 -1.4067 -1.4780
   17bbb     C5  429   0.869   5.557   8.964  0.6389  0.1500  0.2432
   17bbb     H9  430   0.821   5.464   8.933  2.4312 -0.7226 -0.0719
   17bbb    H10  431   0.920   5.609   8.881  1.3152  0.3769  0.7947
   17bbb     C6  432   0.667   5.687   8.698  0.2477  0.2220  0.4429
   17bbb    H11  433   0.656   5.795   8.686  0.0934  0.0775 -0.8838
   17bbb    H12  434   0.773   5.669   8.673  0.6512  1.4387  1.2023
   17bbb     C7  435   0.963   5.516   9.073 -0.0687 -0.4975  0.1367
   17bbb     C8  436   0.580   5.610   8.593  0.2698  0.0973 -0.5767
   17bbb     O1  437   0.942   5.410   9.134 -1.5064 -0.2266 -0.2020
   17bbb     O2  438   0.496   5.671   8.530  0.2480  0.1819  0.3722
   17bbb     N4  439   0.681   6.022   8.871 -0.4788 -0.3109  0.1723
   17bbb    H21  440   0.775   5.987   8.885  0.0432  0.4717 -1.2546
   18bbb     C1  441   2.117   6.136   6.798 -0.3817  0.7093  0.2779
   18bbb     H1  442   2.187   6.193   6.860  0.9349 -0.1165 -0.4200
   18bbb     H2  443   2.143   6.146   6.692 -0.5335  1.5270  0.3097
   18bbb     C2  444   1.980   6.198   6.836 -0.6234 -1.0390  0.4208
   18bbb     H3  445   1.893   6.143   6.796 -0.6141 -2.4511  2.2029
   18bbb     H4  446   1.965   6.175   6.942 -0.1453 -0.2694  0.6602
   18bbb     N1  447   2.125   5.992   6.839  0.7738 -0.2598  0.2080
   18bbb     C3  448   2.056   5.892   6.749 -0.3111  0.0247 -0.0362
   18bbb     H5  449   2.111   5.869   6.656 -2.0393 -1.0209 -0.8469
   18bbb     H6  450   1.958   5.934   6.726 -0.1078  1.1893  1.1313
   18bbb     C4  451   2.263   5.962   6.872  0.3207 -0.5321  0.4410
   18bbb     H7  452   2.279   5.857   6.843  0.6500  0.2065 -2.3572
   18bbb     H8  453   2.333   6.029   6.822  0.7867 -0.2961  1.4078
   18bbb     C5  454   2.277   5.978   7.021 -0.0335 -0.7999 -0.9825
   18bbb     H9  455   2.258   6.085   7.038  0.7383 -0.7884 -0.0964
   18bbb    H10  456   2.197   5.918   7.066 -0.3062 -0.3210 -0.8214
   18bbb     C6  457   2.041   5.757   6.811  0.5755  0.0685  0.0784
   18bbb    H11  458   2.135   5.709   6.840  1.0194  2.1744  2.5409
   18bbb    H12  459   1.991   5.774   6.907 -1.3557 -2.0147 -0.4599
   18bbb     C7  460   2.420   5.949   7.063 -0.6007 -1.1356  0.5968
   18bbb     C8  461   1.956   5.657   6.741  0.2151 -0.0439 -0.3327
   18bbb     O1  462   2.486   6.028   7.119  0.0866 -0.0293 -0.0457
   18bbb     O2  463   1.977   5.644   6.617  0.3490 -0.2951  0.4896
   18bbb     N4  464   1.986   6.344   6.807 -0.0979 -0.4149 -0.5604
   18bbb    H21  465   1.979   6.408   6.885 -0.7820 -1.6123  0.3995
   19bbb     C1  466   2.647   6.542   6.516 -0.7616 -0.1227 -0.1363
   19bbb     H1  467   2.733   6.546   6.449 -0.1125  2.3556  0.7535
   19bbb     H2  468   2.676   6.605   6.601  0.8124 -2.4353  1.1436
   19bbb     C2  469   2.615   6.408   6.584 -0.1448 -0.5369  0.4345
   19bbb     H3  470   2.614   6.332   6.505 -1.5584 -0.4489  0.3426
   19bbb     H4  471   2.699   6.376   6.647  0.3093 -0.1174  0.0553
   19bbb     N1  472   2.525   6.599   6.450  0.5671  0.1555  0.0247
   19bbb     C3  473   2.479   6.515   6.334  0.1460  0.1586  0.3018
   19bbb     H5  474   2.485   6.408   6.357 -2.5463 -0.3363 -0.8309
   19bbb     H6  475   2.538   6.538   6.245  0.8869 -0.5767  0.5948
   19bbb     C4  476   2.538   6.741   6.413 -0.2521  0.0421  0.3183
   19bbb     H7  477   2.641   6.762   6.380  0.2594  0.4200  2.0918
   19bbb     H8  478   2.474   6.769   6.329  1.8515  2.7819 -0.5346
   19bbb     C5  479   2.496   6.823   6.528  0.4470  0.0053 -0.2555
   19bbb     H9  480   2.397   6.797   6.566  0.8004  1.4238  1.8354
   19bbb    H10  481   2.558   6.807   6.617 -0.5564 -0.0849  0.4495
   19bbb     C6  482   2.335   6.534   6.301 -0.1126  0.2064 -0.1718
   19bbb    H11  483   2.265   6.506   6.381 -1.5949  1.5658 -0.9281
   19bbb    H12  484   2.317   6.639   6.275  1.8271  0.9050  1.0806
   19bbb     C7  485   2.499   6.967   6.496 -0.0637 -0.3523 -0.8397
   19bbb     C8  486   2.307   6.459   6.179 -0.1159  0.5225 -0.6765
   19bbb     O1  487   2.604   7.024   6.498  0.3581 -0.4783  0.5436
   19bbb     O2  488   2.311   6.506   6.068  0.0695  0.6521  0.0250
   19bbb     N4  489   2.485   6.391   6.651  0.0165  0.7354 -0.0235
   19bbb    H21  490   2.406   6.361   6.594  0.2632 -0.5550  0.2858
   20bbb     C1  491   0.817   7.186   7.667  0.2500  0.0685 -0.1393
   20bbb     H1  492   0.776   7.177   7.769 -0.3149  0.3209 -0.3397
   20bbb     H2  493   0.734   7.176   7.596 -0.1756 -1.0951  0.4906
   20bbb     C2  494   0.904   7.061   7.637 -0.1648 -0.9479  0.3641
   20bbb     H3  495   0.960   7.073   7.544  1.0775 -1.4509  1.0153
   20bbb     H4  496   0.969   7.039   7.723  0.9678 -0.8315 -0.4430
   20bbb     N1  497   0.883   7.315   7.658 -0.5648  0.1351  0.1145
   20bbb     C3  498   0.960   7.347   7.541  0.5754  0.2333  0.4221
   20bbb     H5  499   1.058   7.299   7.538  0.6408  0.4248 -1.6345
   20bbb     H6  500   0.985   7.454   7.544  1.1251  0.0912  1.5898
   20bbb     C4  501   0.810   7.433   7.715  0.6470  0.1756  0.5480
   20bbb     H7  502   0.857   7.523   7.675 -0.7994  0.5528 -0.4177
   20bbb     H8  503   0.705   7.428   7.681  0.4909 -0.2641  1.0806
   20bbb     C5  504   0.832   7.434   7.865 -0.5122  0.7531 -0.3049
   20bbb     H9  505   0.792   7.525   7.910 -0.0125  0.6713  0.3254
   20bbb    H10  506   0.787   7.349   7.918  0.8711  1.0402  1.4490
   20bbb     C6  507   0.882   7.317   7.417 -0.2725  0.0605 -0.5970
   20bbb    H11  508   0.881   7.208   7.403 -0.3081 -0.4883  2.8057
   20bbb    H12  509   0.777   7.339   7.439 -0.2098 -0.4795  0.2858
   20bbb     C7  510   0.982   7.431   7.890  0.5974  0.2752  0.6361
   20bbb     C8  511   0.922   7.391   7.298  0.9006 -0.2593 -0.0792
   20bbb     O1  512   1.061   7.530   7.895  0.2884 -0.1631  0.3028
   20bbb     O2  513   1.022   7.460   7.292  0.2296  0.4117 -0.0440
   20bbb     N4  514   0.822   6.940   7.614 -0.2684  0.1603 -0.2790
   20bbb    H21  515   0.749   6.910   7.678  0.7701 -1.2336  0.2966
   21bbb     C1  516   0.626   6.386   8.133 -0.2761 -0.1829 -0.3125
   21bbb     H1  517   0.584   6.487   8.122  1.0661  0.5761  1.0751
   21bbb     H2  518   0.551   6.331   8.190  0.1441 -0.0025  0.4171
   21bbb     C2  519   0.751   6.388   8.228  0.3711 -0.2743  0.2985
   21bbb     H3  520   0.720   6.439   8.321 -1.7792 -1.0089  0.0390
   21bbb     H4  521   0.783   6.286   8.251 -0.0122 -0.8273 -1.4969
   21bbb     N1  522   0.648   6.312   8.000 -0.2800 -0.1691  0.1969
   21bbb     C3  523   0.561   6.368   7.895  0.6837 -1.1524  0.2591
   21bbb     H5  524   0.568   6.477   7.893  0.6540 -1.1598 -0.6204
   21bbb     H6  525   0.456   6.338   7.907  0.0140  0.2911 -1.5768
   21bbb     C4  526   0.662   6.170   8.018  0.3917  0.3031  0.0382
   21bbb     H7  527   0.688   6.118   7.925 -0.1720 -2.7020  1.4437
   21bbb     H8  528   0.749   6.152   8.082 -1.0723 -2.9170  1.3282
   21bbb     C5  529   0.533   6.108   8.069 -0.2250  0.1468 -0.0634
   21bbb     H9  530   0.514   6.118   8.176 -2.3385  0.3242 -0.4179
   21bbb    H10  531   0.447   6.144   8.012 -0.1804 -1.7934 -1.4669
   21bbb     C6  532   0.609   6.321   7.758 -0.0991 -0.4545  0.3117
   21bbb    H11  533   0.719   6.319   7.754 -0.1179  0.5103 -2.0022
   21bbb    H12  534   0.584   6.215   7.748  2.4837 -1.1168  0.1258
   21bbb     C7  535   0.541   5.969   8.045 -0.2500  0.8284  0.1676
   21bbb     C8  536   0.547   6.395   7.645 -1.0149 -0.1465 -0.4357
   21bbb     O1  537   0.610   5.892   8.118 -0.0226 -0.3072  0.3612
   21bbb     O2  538   0.479   6.494   7.664 -0.3890  0.0621  0.4293
   21bbb     N4  539   0.863   6.462   8.167 -0.0838 -0.1352  0.1537
   21bbb    H21  540   0.933   6.421   8.107  1.0777  3.3697 -1.1093
   22bbb     C1  541   0.726   7.961   9.219  0.1735 -0.2517 -0.3886
   22bbb     H1  542   0.648   8.038   9.220  1.2764  0.9200 -0.4087
   22bbb     H2  543   0.820   8.018   9.220 -0.3460  0.6278  0.4327
   22bbb     C2  544   0.704   7.881   9.086 -0.9154  0.0764  0.0228
   22bbb     H3  545   0.598   7.854   9.087 -0.8100 -0.3629 -0.2134
   22bbb     H4  546   0.725   7.945   8.999 -0.4220  0.3529  0.3447
   22bbb     N1  547   0.716   7.876   9.336  0.0270 -0.0275 -0.3851
   22bbb     C3  548   0.585   7.817   9.367  0.1071 -0.2925  0.6728
   22bbb     H5  549   0.530   7.798   9.274  0.5186 -0.6013  0.4924
   22bbb     H6  550   0.522   7.894   9.413  0.5522  1.1195 -0.9797
   22bbb     C4  551   0.778   7.935   9.458  0.2500 -0.1384 -0.9385
   22bbb     H7  552   0.776   7.876   9.551 -5.2343 -0.4411 -0.9212
   22bbb     H8  553   0.885   7.955   9.443  0.3109  1.6550  1.3321
   22bbb     C5  554   0.706   8.069   9.492  0.3973 -0.3185 -0.4871
   22bbb     H9  555   0.703   8.137   9.406 -1.4156  0.1689 -0.0760
   22bbb    H10  556   0.606   8.050   9.534  0.8066  0.1343  0.7647
   22bbb     C6  557   0.605   7.689   9.446  0.2530  0.0594  0.1316
   22bbb    H11  558   0.679   7.632   9.389  0.6020  1.0418 -0.4284
   22bbb    H12  559   0.647   7.711   9.545  2.5460  0.1246 -0.7949
   22bbb     C7  560   0.785   8.134   9.601  0.2607 -0.4760 -0.0809
   22bbb     C8  561   0.484   7.609   9.456 -0.0645  0.4151 -0.1102
   22bbb     O1  562   0.896   8.186   9.582  0.1718 -0.0962 -0.2643
   22bbb     O2  563   0.368   7.650   9.455 -0.6521  0.3474  0.2850
   22bbb     N4  564   0.782   7.758   9.074  0.4352  0.0291 -0.7047
   22bbb    H21  565   0.730   7.677   9.042 -1.5589  1.0504 -0.1412
   23bbb     C1  566   0.562   7.271   8.183 -0.2240 -0.0146  0.4217
   23bbb     H1  567   0.540   7.216   8.275  1.9049 -0.6369  0.6111
   23bbb     H2  568   0.608   7.197   8.117  1.7630  3.2781 -2.2344
   23bbb     C2  569   0.683   7.366   8.225 -0.0996  0.7836 -0.2173
   23bbb     H3  570   0.772   7.316   8.185 -0.0143  0.5642  0.2404
   23bbb     H4  571   0.664   7.460   8.172 -0.8062 -0.3457 -2.0652
   23bbb     N1  572   0.450   7.334   8.105 -0.3140  0.2691 -0.0728
   23bbb     C3  573   0.359   7.407   8.196 -0.6821  0.4764  0.6162
   23bbb     H5  574   0.416   7.442   8.283 -0.3600 -1.3179  1.1509
   23bbb     H6  575   0.279   7.346   8.239 -2.4552  2.2316 -0.0228
   23bbb     C4  576   0.394   7.237   8.014 -0.1549  0.1033 -0.3017
   23bbb     H7  577   0.402   7.134   8.050 -0.5694 -0.4284 -1.6651
   23bbb     H8  578   0.288   7.257   7.994 -0.0875 -0.4882 -1.3153
   23bbb     C5  579   0.471   7.256   7.886 -0.4661 -0.0007 -0.7377
   23bbb     H9  580   0.495   7.359   7.856 -3.0101  0.9126  0.0992
   23bbb    H10  581   0.568   7.205   7.895  0.5261  2.1357  2.1924
   23bbb     C6  582   0.309   7.530   8.127  0.2235 -0.5430 -0.4451
   23bbb    H11  583   0.233   7.498   8.055 -0.5763 -0.5585  0.3847
   23bbb    H12  584   0.269   7.603   8.199 -0.9546 -0.5060 -1.1071
   23bbb     C7  585   0.399   7.191   7.779  0.4466  0.5472 -0.3998
   23bbb     C8  586   0.423   7.608   8.063  0.3359  0.4521 -0.1629
   23bbb     O1  587   0.420   7.077   7.743 -0.0310  0.8307  0.3559
   23bbb     O2  588   0.526   7.627   8.123 -0.3490  0.2899  0.5485
   23bbb     N4  589   0.690   7.410   8.370 -0.4135 -0.5523 -0.5859
   23bbb    H21  590   0.619   7.390   8.440  0.5738 -0.8014  0.3759
   24bbb     C1  591   2.409   5.872   9.212 -0.5434  0.4214  0.2868
   24bbb     H1  592   2.315   5.828   9.248 -0.8692  1.4208  0.7087
   24bbb     H2  593   2.490   5.818   9.262 -1.1103 -2.1963 -1.4324
   24bbb     C2  594   2.424   6.026   9.243  0.1350  0.2999  0.9600
   24bbb     H3  595   2.489   6.031   9.332 -0.7241 -2.7182  1.8655
   24bbb     H4  596   2.489   6.073   9.168  0.6532 -0.3834  0.9576
   24bbb     N1  597   2.409   5.831   9.071 -0.3718 -0.3543 -0.4002
   24bbb     C3  598   2.286   5.873   9.012 -0.0021 -0.2188  0.3738
   24bbb     H5  599   2.271   5.981   9.027  1.7843  0.3579 -1.4652
   24bbb     H6  600   2.209   5.808   9.054  1.2255 -2.1505 -0.2572
   24bbb     C4  601   2.427   5.690   9.068 -0.0057  0.0600  0.3254
   24bbb     H7  602   2.368   5.640   9.145 -0.2350  0.9086  0.7138
   24bbb     H8  603   2.379   5.641   8.982 -0.0037  0.0736  0.3163
   24bbb     C5  604   2.577   5.664   9.069  0.2087 -0.2492 -0.2226
   24bbb     H9  605   2.612   5.689   8.968 -2.4649  1.3439 -0.8441
   24bbb    H10  606   2.634   5.722   9.142 -0.4834  0.8665 -0.5511
   24bbb     C6  607   2.303   5.858   8.857 -0.4779  0.0850 -0.3849
   24bbb    H11  608   2.407   5.861   8.822 -0.5637 -0.4098 -0.7067
   24bbb    H12  609   2.268   5.758   8.826 -2.2067  0.0617  1.4550
   24bbb     C7  610   2.597   5.522   9.093  0.8968  0.2622  0.3768
   24bbb     C8  611   2.227   5.962   8.783 -0.5933  0.2034  0.0804
   24bbb     O1  612   2.626   5.443   9.001 -0.2007  1.1165 -0.1608
   24bbb     O2  613   2.147   6.041   8.831  0.3017  0.1097  0.2158
   24bbb     N4  614   2.300   6.114   9.259 -0.3387 -0.1855 -0.1266
   24bbb    H21  615   2.209   6.071   9.263 -0.1417 -0.6540 -0.5518
   25bbb     C1  616   1.711   6.673   9.951  1.0503 -0.2432 -0.0759
   25bbb     H1  617   1.660   6.713  10.040  0.3549  0.6237 -0.8459
   25bbb     H2  618   1.650   6.589   9.914 -0.0811  0.3656  0.3738
   25bbb     C2  619   1.848   6.615   9.971 -0.2210  0.3416  0.1283
   25bbb     H3  620   1.923   6.691   9.993  1.5781 -1.1682 -0.4936
   25bbb     H4  621   1.843   6.544  10.054 -1.8240  0.0447 -0.1827
   25bbb     N1  622   1.696   6.778   9.853 -0.5271  0.1840 -0.4261
   25bbb     C3  623   1.755   6.910   9.895  0.5501 -0.6062  0.2288
   25bbb     H5  624   1.850   6.907   9.951  0.9362  0.5686 -0.3199
   25bbb     H6  625   1.683   6.957   9.963 -0.8274  0.4116 -1.8299
   25bbb     C4  626   1.558   6.786   9.812 -0.2939  0.1255 -0.1615
   25bbb     H7  627   1.499   6.722   9.879  1.2360  0.2360  1.3494
   25bbb     H8  628   1.528   6.891   9.822  0.1865  0.1446  1.1907
   25bbb     C5  629   1.556   6.736   9.667  0.7961 -0.2845  0.5573
   25bbb     H9  630   1.629   6.799   9.613 -1.1812  2.7199  1.1567
   25bbb    H10  631   1.587   6.631   9.673  1.0829 -0.1208  4.3343
   25bbb     C6  632   1.768   6.992   9.767  0.1683 -0.3770  0.1836
   25bbb    H11  633   1.816   6.934   9.687  0.8979  0.4436  0.0069
   25bbb    H12  634   1.666   7.018   9.736  0.2389  1.9984  1.7408
   25bbb     C7  635   1.420   6.755   9.609  0.5653 -0.4964  0.0137
   25bbb     C8  636   1.831   7.122   9.790  0.4984 -0.3259  0.4190
   25bbb     O1  637   1.323   6.710   9.663 -0.3707 -0.7418  0.1703
   25bbb     O2  638   1.894   7.147   9.888  0.4785 -0.7734  0.0746
   25bbb     N4  639   1.897   6.542   9.845  0.1593  0.3588 -0.2735
   25bbb    H21  640   1.829   6.508   9.778 -0.5109  0.3161  0.4032
   26bbb     C1  641   2.972   7.832   9.308  0.0870  0.1607 -0.2283
   26bbb     H1  642   2.973   7.724   9.327  0.5168 -0.1781 -2.0472
   26bbb     H2  643   3.031   7.889   9.381 -0.0525 -0.0515  0.0548
   26bbb     C2  644   2.825   7.876   9.324  0.4071 -0.0489 -0.5737
   26bbb     H3  645   2.792   7.856   9.427  1.8956 -0.9115 -0.2402
   26bbb     H4  646   2.806   7.984   9.318  1.9999  0.7346  4.0805
   26bbb     N1  647   3.025   7.844   9.169 -0.3429 -0.1116  0.3406
   26bbb     C3  648   3.154   7.772   9.150  0.1412 -0.2179 -0.4543
   26bbb     H5  649   3.213   7.768   9.242 -1.0952 -3.0955  0.3541
   26bbb     H6  650   3.209   7.815   9.065  0.7055 -0.5713 -0.2707
   26bbb     C4  651   3.033   7.986   9.135 -0.0862 -1.0130  0.0237
   26bbb     H7  652   2.944   8.044   9.161  0.5414  0.6545 -1.3914
   26bbb     H8  653   3.112   8.032   9.195 -1.1438 -0.2414  0.8750
   26bbb     C5  654   3.047   8.003   8.980 -0.2591 -0.3292 -0.1930
   26bbb     H9  655   3.125   7.940   8.936  0.8579 -0.3999  1.7428
   26bbb    H10  656   2.958   7.964   8.929 -0.2375 -0.2002 -0.3309
   26bbb     C6  657   3.113   7.632   9.105  0.5443 -0.2978 -0.2359
   26bbb    H11  658   3.067   7.577   9.187 -0.0387 -0.8747 -0.9307
   26bbb    H12  659   3.045   7.642   9.019  0.0727  0.3204  0.1993
   26bbb     C7  660   3.048   8.146   8.943  1.0336  0.1105 -0.9012
   26bbb     C8  661   3.233   7.558   9.058  0.1951 -0.3658 -0.0947
   26bbb     O1  662   3.057   8.242   9.026  0.4757  0.1626 -0.1330
   26bbb     O2  663   3.274   7.461   9.123  0.4748 -0.2873 -0.0206
   26bbb     N4  664   2.733   7.794   9.241  0.0169  0.5052 -0.6323
   26bbb    H21  665   2.707   7.702   9.273  0.5145  0.6224  0.1349
   27bbb     C1  666   3.015   7.728   8.317  0.0964 -0.5412 -0.2917
   27bbb     H1  667   3.050   7.627   8.341  2.8505  0.5440  0.6647
   27bbb     H2  668   3.026   7.802   8.397  1.3806 -0.4671 -0.5016
   27bbb     C2  669   2.866   7.699   8.300  0.6833  0.4310 -0.1338
   27bbb     H3  670   2.826   7.765   8.222  1.9259  2.3243  0.7479
   27bbb     H4  671   2.859   7.596   8.262  0.9572  0.1789  0.4836
   27bbb     N1  672   3.066   7.783   8.190 -0.4214  0.3430  0.5929
   27bbb     C3  673   3.073   7.683   8.085 -0.0480 -0.2389 -0.1787
   27bbb     H5  674   3.023   7.589   8.111 -0.2946 -0.0723 -0.0436
   27bbb     H6  675   3.174   7.657   8.051 -0.2952 -2.4026  0.5595
   27bbb     C4  676   3.198   7.854   8.206  0.2548  0.5546 -0.6169
   27bbb     H7  677   3.266   7.793   8.266 -1.2097 -1.4240 -0.8882
   27bbb     H8  678   3.251   7.878   8.113 -1.9915  2.2017 -1.5771
   27bbb     C5  679   3.174   7.989   8.267  0.6836 -0.0615 -0.3923
   27bbb     H9  680   3.109   7.984   8.355  1.1314 -1.6605 -0.1205
   27bbb    H10  681   3.272   8.023   8.303  1.7436 -1.4012 -1.9017
   27bbb     C6  682   3.000   7.747   7.967 -0.0953 -0.2862 -0.9111
   27bbb    H11  683   2.892   7.744   7.984  0.1126 -2.4325  0.4217
   27bbb    H12  684   3.033   7.849   7.942 -0.6167  0.0684 -0.1869
   27bbb     C7  685   3.118   8.082   8.172  0.2650 -0.1614  0.0771
   27bbb     C8  686   3.024   7.665   7.839  0.0684  0.6578 -0.4201
   27bbb     O1  687   3.194   8.175   8.134  0.1641  0.2621 -0.0843
   27bbb     O2  688   3.137   7.657   7.794  0.2130  0.4292  0.4037
   27bbb     N4  689   2.781   7.713   8.422  0.6283 -0.0609 -0.4685
   27bbb    H21  690   2.756   7.804   8.459  0.8100 -0.8759  1.8200
   28bbb     C1  691   3.112   6.336   8.902  0.7089  0.0509 -0.4634
   28bbb     H1  692   3.116   6.384   8.803  1.4461  0.8232 -0.0695
   28bbb     H2  693   3.048   6.403   8.959  1.2587  2.5562 -2.5888
   28bbb     C2  694   3.252   6.351   8.963  0.2678  0.0456 -0.2381
   28bbb     H3  695   3.261   6.279   9.045 -0.2087 -0.8525 -0.9496
   28bbb     H4  696   3.319   6.319   8.882  2.1951 -2.1355  2.0621
   28bbb     N1  697   3.069   6.195   8.901  0.4811 -0.4139  0.4620
   28bbb     C3  698   3.152   6.109   8.813 -0.4454 -0.3989 -0.0704
   28bbb     H5  699   3.136   6.004   8.840 -0.3179  0.0537  1.9420
   28bbb     H6  700   3.259   6.132   8.825 -0.3661 -1.0657  0.5775
   28bbb     C4  701   2.923   6.184   8.878 -0.6416 -0.1899 -0.3717
   28bbb     H7  702   2.876   6.253   8.949 -1.9462  0.6324 -1.9624
   28bbb     H8  703   2.891   6.217   8.779 -0.0114 -0.3542 -0.6349
   28bbb     C5  704   2.872   6.038   8.901 -0.0039  0.1005  0.4192
   28bbb     H9  705   2.934   5.968   8.845 -2.6803 -0.3507 -2.1964
   28bbb    H10  706   2.863   6.022   9.010  0.4767 -0.4250  0.3815
   28bbb     C6  707   3.115   6.131   8.673  0.4822  0.4207  0.5508
   28bbb    H11  708   3.007   6.127   8.653  0.7382  1.9371 -1.5271
   28bbb    H12  709   3.160   6.222   8.633 -2.0133  1.8002  0.6466
   28bbb     C7  710   2.740   6.038   8.836  0.0075  0.5929 -0.7507
   28bbb     C8  711   3.166   6.017   8.593  0.0206  0.1681 -0.4606
   28bbb     O1  712   2.725   6.006   8.722  0.5312 -0.6037 -0.1767
   28bbb     O2  713   3.091   5.925   8.561 -0.1956  0.1373 -0.3729
   28bbb     N4  714   3.282   6.492   8.994 -0.3397  0.7125 -0.1526
   28bbb    H21  715   3.258   6.569   8.933  2.8125  1.7485 -0.2930
   29bbb     C1  716   2.965   6.771   9.437  0.3282 -0.3833  0.5589
   29bbb     H1  717   2.972   6.780   9.328  1.9205  1.2347  0.7378
   29bbb     H2  718   2.858   6.782   9.456  0.0296  1.3592 -1.7491
   29bbb     C2  719   3.043   6.886   9.496  1.2371 -0.3074 -0.3085
   29bbb     H3  720   3.004   6.981   9.457  1.5726 -0.1428 -0.2507
   29bbb     H4  721   3.025   6.899   9.603  3.8435 -0.4402  0.2209
   29bbb     N1  722   3.019   6.645   9.471  0.1580  0.3402 -0.5212
   29bbb     C3  723   2.972   6.541   9.383 -0.2405  0.1103 -0.8668
   29bbb     H5  724   2.996   6.562   9.278 -0.0788 -1.5540 -1.1899
   29bbb     H6  725   2.862   6.543   9.392 -0.1336  1.0768  0.3832
   29bbb     C4  726   3.005   6.616   9.615  0.4277 -0.4078  0.3034
   29bbb     H7  727   3.001   6.709   9.674  2.1199  1.0803 -1.7577
   29bbb     H8  728   2.914   6.560   9.640 -0.2576  0.0054 -1.1672
   29bbb     C5  729   3.135   6.563   9.681  0.0018 -0.4141  0.5991
   29bbb     H9  730   3.167   6.463   9.648  1.4028 -0.2115  1.2450
   29bbb    H10  731   3.216   6.635   9.667  1.6102 -2.3515 -0.7654
   29bbb     C6  732   3.034   6.404   9.417 -0.3477 -0.3251 -0.2823
   29bbb    H11  733   3.143   6.413   9.426 -0.4038 -0.2829  0.4382
   29bbb    H12  734   2.991   6.370   9.512  0.3433  0.0701  0.1832
   29bbb     C7  735   3.109   6.549   9.833  0.0701 -0.1849  0.8302
   29bbb     C8  736   3.007   6.306   9.303  0.7365 -0.3589 -0.1199
   29bbb     O1  737   3.031   6.466   9.870  0.0117 -0.2206  0.4058
   29bbb     O2  738   2.925   6.329   9.216 -0.3746 -0.0383  0.0090
   29bbb     N4  739   3.184   6.878   9.462  0.0009  0.0843  0.8631
   29bbb    H21  740   3.247   6.811   9.504 -0.7858 -1.2843 -0.0949
   30bbb     C1  741   2.879   4.874   8.919 -0.1834  1.1573  0.5287
   30bbb     H1  742   2.888   4.884   9.028 -1.9447 -1.0620  0.9467
   30bbb     H2  743   2.892   4.972   8.871 -0.6445  1.3312  0.7551
   30bbb     C2  744   2.736   4.820   8.879  0.6633 -0.5783  0.3160
   30bbb     H3  745   2.719   4.736   8.947 -0.1803 -1.9413 -1.5186
   30bbb     H4  746   2.660   4.888   8.919  0.9683 -1.4961  2.5976
   30bbb     N1  747   2.978   4.776   8.874 -0.5159  0.3815  0.2157
   30bbb     C3  748   3.059   4.720   8.985 -0.0652  0.2209  0.1329
   30bbb     H5  749   3.128   4.797   9.022  1.1218 -0.5811 -0.3768
   30bbb     H6  750   3.135   4.652   8.945  2.5918  1.5519  2.5636
   30bbb     C4  751   3.054   4.807   8.749 -0.0535  0.7730  0.2609
   30bbb     H7  752   2.992   4.870   8.684  0.3360  1.1807  0.2798
   30bbb     H8  753   3.147   4.861   8.771 -0.8620  2.1785  0.3932
   30bbb     C5  754   3.104   4.684   8.677  0.6370  0.4413  0.1816
   30bbb     H9  755   3.150   4.702   8.579  2.0479  0.0970  0.7542
   30bbb    H10  756   3.177   4.632   8.741 -1.2503 -2.6378  0.0321
   30bbb     C6  757   2.986   4.642   9.093  0.4644  0.3051 -1.1493
   30bbb    H11  758   2.913   4.710   9.139 -0.9494 -0.1073 -2.6756
   30bbb    H12  759   2.932   4.551   9.063 -0.9950 -0.0843  2.2225
   30bbb     C7  760   2.986   4.597   8.639  0.1766  0.2185  0.1129
   30bbb     C8  761   3.084   4.603   9.197 -0.4249  0.0386  0.5115
   30bbb     O1  762   2.911   4.631   8.551 -0.2788  0.0804 -0.2794
   30bbb     O2  763   3.164   4.513   9.177  0.6367  0.2968 -0.5036
   30bbb     N4  764   2.713   4.809   8.728 -0.2778  0.2955  0.1961
   30bbb    H21  765   2.783   4.766   8.669 -0.1219 -1.2091  1.4018
   31bbb     C1  766   2.096   4.257   8.455 -0.2011  0.1726 -0.5168
   31bbb     H1  767   2.189   4.276   8.509 -1.9540  2.8497  1.8345
   31bbb     H2  768   2.070   4.152   8.472 -1.4107  0.5291 -0.0590
   31bbb     C2  769   2.125   4.278   8.306  0.4036  0.3434 -0.2866
   31bbb     H3  770   2.167   4.186   8.265  1.3021 -1.0713  3.4032
   31bbb     H4  771   2.024   4.293   8.265 -0.5257 -2.1437  0.8856
   31bbb     N1  772   1.989   4.342   8.506  0.9905  0.4619 -0.2520
   31bbb     C3  773   1.925   4.287   8.628  0.4529 -0.2338 -0.0302
   31bbb     H5  774   1.858   4.364   8.668  1.2281  0.4729 -0.0651
   31bbb     H6  775   1.991   4.256   8.710 -1.4641 -0.6018  1.4418
   31bbb     C4  776   2.043   4.477   8.550  0.5789 -0.2663  0.7680
   31bbb     H7  777   2.059   4.481   8.658  0.5115  0.4384  0.7560
   31bbb     H8  778   2.136   4.501   8.497  0.6178 -3.3000 -0.7999
   31bbb     C5  779   1.945   4.589   8.521  0.5071 -0.0074  0.2354
   31bbb     H9  780   1.919   4.597   8.415  0.2349 -2.0119  0.1231
   31bbb    H10  781   1.854   4.575   8.580 -0.4097 -2.0282 -1.5447
   31bbb     C6  782   1.829   4.172   8.586 -0.1987 -0.7946  0.6163
   31bbb    H11  783   1.783   4.197   8.489  2.3869 -1.7463 -0.9735
   31bbb    H12  784   1.884   4.077   8.584 -1.2606 -1.4256 -0.3553
   31bbb     C7  785   2.004   4.713   8.578  0.4951 -0.8117  0.1964
   31bbb     C8  786   1.721   4.162   8.691 -0.3040  0.0496  0.0005
   31bbb     O1  787   2.048   4.722   8.692  0.1995  0.2497  0.1187
   31bbb     O2  788   1.627   4.238   8.682  0.1530  0.3176 -0.0179
   31bbb     N4  789   2.220   4.387   8.273 -0.1065  0.6552  0.2033
   31bbb    H21  790   2.313   4.360   8.245 -0.6246  0.6182 -1.5977
   32bbb     C1  791   3.685   5.753   9.143  0.6052  0.2084  0.8011
   32bbb     H1  792   3.758   5.713   9.072  1.6442  1.6107  1.0300
   32bbb     H2  793   3.637   5.668   9.192  1.0537  0.2266  1.2851
   32bbb     C2  794   3.576   5.830   9.060  0.4868 -0.3069 -0.1712
   32bbb     H3  795   3.517   5.906   9.115 -2.2404 -1.2184 -1.6473
   32bbb     H4  796   3.625   5.879   8.975  0.9472  3.1249  1.8550
   32bbb     N1  797   3.744   5.832   9.254 -0.1524 -0.1738 -0.3027
   32bbb     C3  798   3.817   5.955   9.214 -0.1776  0.5608  0.3372
   32bbb     H5  799   3.759   6.000   9.132  0.1829 -0.1032 -0.3032
   32bbb     H6  800   3.913   5.925   9.171  0.1155 -0.0428  1.3709
   32bbb     C4  801   3.834   5.742   9.330 -0.4100 -0.1909 -0.3044
   32bbb     H7  802   3.846   5.646   9.278  0.9180 -0.5908  0.6778
   32bbb     H8  803   3.934   5.784   9.350 -0.3296 -0.6034  0.1774
   32bbb     C5  804   3.765   5.711   9.459  0.1123 -0.1121  0.1018
   32bbb     H9  805   3.718   5.790   9.518 -0.7894 -2.0686  2.0976
   32bbb    H10  806   3.687   5.640   9.433  0.2557 -0.2431  0.0287
   32bbb     C6  807   3.823   6.052   9.326  0.6494 -0.2866  0.3435
   32bbb    H11  808   3.721   6.079   9.355 -0.1080 -1.6435 -0.8920
   32bbb    H12  809   3.882   6.017   9.412  2.2922  0.6804 -0.3436
   32bbb     C7  810   3.862   5.654   9.555 -0.0571  0.9448  0.0504
   32bbb     C8  811   3.890   6.181   9.281  0.9334  0.4835  0.1868
   32bbb     O1  812   3.986   5.662   9.552  0.4481  0.2190 -0.0823
   32bbb     O2  813   4.009   6.207   9.289  0.3822 -0.2467  0.4538
   32bbb     N4  814   3.474   5.743   9.001  0.2464 -0.9387  0.2847
   32bbb    H21  815   3.491   5.643   8.993 -0.7643 -1.2543  1.6989
   33bbb     C1  816   3.403   5.193   8.920 -0.3529  0.9527  0.1524
   33bbb     H1  817   3.438   5.185   9.024  2.1210  1.9468 -0.5073
   33bbb     H2  818   3.435   5.290   8.879 -1.8735  1.4046 -0.0311
   33bbb     C2  819   3.252   5.208   8.924  0.2673  0.0037  0.2976
   33bbb     H3  820   3.209   5.225   8.824  0.3790  1.1843  0.4458
   33bbb     H4  821   3.217   5.107   8.948 -0.6880  0.7367  2.1425
   33bbb     N1  822   3.452   5.078   8.834  0.4788 -0.1650 -0.0437
   33bbb     C3  823   3.592   5.058   8.863  0.4289 -0.5901 -0.3985
   33bbb     H5  824   3.653   5.148   8.850  0.3195 -0.5697 -0.7977
   33bbb     H6  825   3.626   4.982   8.791  1.6951 -3.7014  3.1401
   33bbb     C4  826   3.415   5.097   8.694 -0.6194  0.1162  0.4289
   33bbb     H7  827   3.318   5.148   8.690 -1.3716 -1.1137  1.9815
   33bbb     H8  828   3.490   5.154   8.637 -1.0031 -0.5966 -0.8322
   33bbb     C5  829   3.381   4.968   8.613 -0.5127  0.4114 -0.0054
   33bbb     H9  830   3.477   4.917   8.599 -0.3219  0.9458 -0.6721
   33bbb    H10  831   3.311   4.902   8.666 -1.5422  1.5022  0.0238
   33bbb     C6  832   3.616   5.008   9.001  0.4639 -0.0459  0.6034
   33bbb    H11  833   3.611   5.095   9.067 -1.9383 -1.0321  1.8622
   33bbb    H12  834   3.536   4.941   9.034  1.7976 -0.1012  4.1574
   33bbb     C7  835   3.318   5.005   8.481  0.0140  0.4190  0.4261
   33bbb     C8  836   3.757   4.945   9.013  0.2294 -0.0160 -0.2468
   33bbb     O1  837   3.196   5.014   8.472  0.2884  0.1045  0.1559
   33bbb     O2  838   3.816   4.905   8.914  0.1991 -0.0449  0.2482
   33bbb     N4  839   3.206   5.302   9.021 -0.2767 -0.1788  0.6171
   33bbb    H21  840   3.263   5.383   9.042 -0.2683 -0.1001  0.3022
   34bbb     C1  841   0.308   7.125   8.823 -0.7535 -0.4414 -0.9263
   34bbb     H1  842   0.243   7.210   8.850 -2.0155 -1.6545  0.0327
   34bbb     H2  843   0.406   7.166   8.850 -0.1430  0.4793 -4.1459
   34bbb     C2  844   0.312   7.114   8.674 -0.7091  0.3003  0.4307
   34bbb     H3  845   0.222   7.067   8.631  0.2158 -0.8519 -0.2979
   34bbb     H4  846   0.301   7.216   8.636 -0.6775 -0.2038 -0.9775
   34bbb     N1  847   0.286   6.999   8.886  0.5902 -0.5887 -0.3235
   34bbb     C3  848   0.353   6.984   9.015 -1.2030  0.7081  0.5232
   34bbb     H5  849   0.312   6.903   9.076  1.0348 -0.1193  1.0267
   34bbb     H6  850   0.343   7.078   9.071 -1.2762 -0.7697  3.1312
   34bbb     C4  851   0.141   6.991   8.906  0.4376  0.2449  0.3820
   34bbb     H7  852   0.103   7.073   8.968 -0.9171  0.0586 -0.1559
   34bbb     H8  853   0.092   7.003   8.808 -1.5924 -1.5687  1.1099
   34bbb     C5  854   0.086   6.851   8.959 -0.9021 -0.0168  0.1174
   34bbb     H9  855   0.132   6.775   8.893 -0.6692  0.6640 -0.5148
   34bbb    H10  856   0.126   6.829   9.059  2.2991  2.0086 -0.5772
   34bbb     C6  857   0.500   6.948   8.994 -0.0764 -0.3042 -0.4969
   34bbb    H11  858   0.509   6.863   8.925 -2.2088 -0.9891 -0.0108
   34bbb    H12  859   0.549   7.037   8.951  2.2506  0.1039  2.6717
   34bbb     C7  860  -0.064   6.844   8.961 -0.8434 -1.1185  0.1918
   34bbb     C8  861   0.568   6.919   9.128 -0.0248  0.2409 -0.1643
   34bbb     O1  862  -0.122   6.773   8.885 -0.2855 -0.2884 -0.9487
   34bbb     O2  863   0.618   6.998   9.197  0.2363 -0.0061  0.2866
   34bbb     N4  864   0.434   7.043   8.623 -0.3286 -0.3653 -0.0533
   34bbb    H21  865   0.450   6.946   8.645 -0.1977  0.3486  3.5435
   35bbb     C1  866   1.378   7.421   8.321 -0.0836  0.3368 -0.5820
   35bbb     H1  867   1.423   7.332   8.365  0.1527 -0.5638 -2.5182
   35bbb     H2  868   1.336   7.472   8.408  0.2788  0.7552 -0.6458
   35bbb     C2  869   1.275   7.380   8.218  0.4226  0.0956  0.7543
   35bbb     H3  870   1.250   7.469   8.159  4.1878  1.4648  0.9580
   35bbb     H4  871   1.321   7.308   8.149 -2.3184 -0.1336 -1.0126
   35bbb     N1  872   1.486   7.507   8.271 -0.2043  0.0751 -0.5249
   35bbb     C3  873   1.614   7.443   8.262  0.3062 -0.1865 -0.1530
   35bbb     H5  874   1.648   7.422   8.364  1.2711  0.1734 -0.3897
   35bbb     H6  875   1.680   7.510   8.206 -1.5434  0.1061 -2.1109
   35bbb     C4  876   1.495   7.637   8.328  0.2133 -0.4162  0.1151
   35bbb     H7  877   1.508   7.635   8.437  1.6713 -0.8227 -0.0516
   35bbb     H8  878   1.581   7.685   8.278  1.4527 -1.3872  1.2501
   35bbb     C5  879   1.373   7.723   8.296 -0.5941  0.1755  0.5772
   35bbb     H9  880   1.355   7.710   8.188 -2.1632  1.5394  0.6485
   35bbb    H10  881   1.278   7.698   8.344 -0.4882  0.2682  0.8338
   35bbb     C6  882   1.620   7.326   8.174 -0.0360  0.5366  0.3031
   35bbb    H11  883   1.721   7.286   8.191  0.6006  2.4120  1.1500
   35bbb    H12  884   1.542   7.256   8.207 -1.3378  0.1066 -3.1850
   35bbb     C7  885   1.390   7.870   8.316  0.4645 -0.7746 -0.8365
   35bbb     C8  886   1.612   7.358   8.026  0.5823 -0.1414  0.0190
   35bbb     O1  887   1.463   7.918   8.397 -0.4295 -0.6372 -0.5407
   35bbb     O2  888   1.709   7.347   7.953  0.0738  0.2500  0.2154
   35bbb     N4  889   1.156   7.315   8.275 -0.1018  0.3203  0.6180
   35bbb    H21  890   1.072   7.372   8.281  0.4820  1.3246 -0.2645
   36bbb     C1  891   1.286   5.621   9.220 -0.1231  0.1610  0.4361
   36bbb     H1  892   1.294   5.720   9.171 -2.9967 -1.2484 -3.3806
   36bbb     H2  893   1.333   5.566   9.137 -1.1727  0.2179 -0.2150
   36bbb     C2  894   1.138   5.594   9.231 -0.0249 -0.2018 -0.6913
   36bbb     H3  895   1.132   5.497   9.280  0.3210 -0.4920 -1.2184
   36bbb     H4  896   1.094   5.664   9.303 -4.1467 -2.1531 -1.0227
   36bbb     N1  897   1.355   5.618   9.347  0.5783  0.3587  0.1930
   36bbb     C3  898   1.324   5.729   9.434  0.0040 -0.1136  0.0056
   36bbb     H5  899   1.241   5.696   9.497  1.3708 -1.2161  1.3048
   36bbb     H6  900   1.292   5.812   9.370 -1.3458 -0.8814 -0.3488
   36bbb     C4  901   1.359   5.491   9.412 -0.5604  0.3230 -0.8565
   36bbb     H7  902   1.392   5.502   9.516 -1.8260 -1.2113 -0.2602
   36bbb     H8  903   1.264   5.436   9.414 -0.6396  0.4617  1.2324
   36bbb     C5  904   1.481   5.411   9.347 -0.0059  0.3223  0.2032
   36bbb     H9  905   1.464   5.398   9.240 -3.7376  1.0846  0.5494
   36bbb    H10  906   1.573   5.470   9.353  2.6886 -3.4726 -0.0089
   36bbb     C6  907   1.443   5.768   9.519 -0.4270  0.2508  0.8354
   36bbb    H11  908   1.471   5.694   9.595 -0.5909 -0.8324 -0.1500
   36bbb    H12  909   1.524   5.793   9.449 -1.4106  0.8973 -0.1019
   36bbb     C7  910   1.504   5.277   9.415  0.1048 -0.0985 -0.1215
   36bbb     C8  911   1.427   5.898   9.592 -0.1246  0.6381  0.5861
   36bbb     O1  912   1.478   5.268   9.534 -0.1483  0.1319 -0.3576
   36bbb     O2  913   1.321   5.949   9.619 -0.0692 -0.0817  0.2247
   36bbb     N4  914   1.055   5.610   9.107 -0.5674 -0.0057 -0.1818
   36bbb    H21  915   1.047   5.695   9.051 -2.8419 -0.3225 -0.4401
   37bbb     C1  916   0.485   5.289   8.463  0.1836 -0.3734  1.0541
   37bbb     H1  917   0.484   5.214   8.383 -1.9981  1.3795 -0.6960
   37bbb     H2  918   0.389   5.341   8.452  0.1012 -0.8539 -0.8498
   37bbb     C2  919   0.591   5.398   8.450  0.0596  0.2717  0.7394
   37bbb     H3  920   0.682   5.350   8.413 -0.3899 -0.3719  0.4445
   37bbb     H4  921   0.554   5.466   8.372 -0.9465 -2.0004 -0.8757
   37bbb     N1  922   0.494   5.217   8.586  0.5265  0.8517 -0.2181
   37bbb     C3  923   0.610   5.127   8.593 -0.1053 -0.3445 -0.2744
   37bbb     H5  924   0.685   5.157   8.519 -2.0704 -0.4479 -2.4117
   37bbb     H6  925   0.592   5.019   8.589  1.3506 -0.6502  0.5539
   37bbb     C4  926   0.362   5.153   8.608 -0.4260  0.0222  0.4252
   37bbb     H7  927   0.292   5.237   8.595  0.3779  0.6117 -0.2205
   37bbb     H8  928   0.342   5.072   8.538  1.2907 -0.8798  0.9141
   37bbb     C5  929   0.341   5.101   8.743  0.7935  0.0455 -0.6194
   37bbb     H9  930   0.389   5.002   8.744 -0.0100 -0.3586 -1.3836
   37bbb    H10  931   0.403   5.147   8.822 -0.2508 -0.9900  0.8673
   37bbb     C6  932   0.676   5.146   8.729  0.2137 -0.2731  0.5901
   37bbb    H11  933   0.679   5.254   8.748  2.9094 -0.6272  2.9708
   37bbb    H12  934   0.616   5.103   8.810 -1.7223 -1.3918 -1.3327
   37bbb     C7  935   0.188   5.099   8.772 -0.7159  0.0351 -0.2917
   37bbb     C8  936   0.814   5.084   8.728  0.3314 -0.1964 -0.3355
   37bbb     O1  937   0.110   5.013   8.740 -0.4406 -0.0010 -0.2171
   37bbb     O2  938   0.863   5.025   8.637  0.4062 -0.1071  0.1271
   37bbb     N4  939   0.620   5.479   8.572  0.2621  0.1616 -0.3270
   37bbb    H21  940   0.688   5.438   8.634 -0.6766 -1.9726 -0.5812
   38bbb     C1  941   2.610   5.616   7.067 -0.3422 -0.0053  0.1842
   38bbb     H1  942   2.694   5.616   6.997 -0.7217 -1.2913 -0.3044
   38bbb     H2  943   2.527   5.573   7.010  0.3059  0.3433 -1.0778
   38bbb     C2  944   2.587   5.767   7.104 -0.0741 -0.1980 -0.1816
   38bbb     H3  945   2.598   5.795   7.209  1.5249  2.4440 -0.9516
   38bbb     H4  946   2.666   5.829   7.058 -0.1245  0.0534  0.0703
   38bbb     N1  947   2.641   5.534   7.186  0.4732  0.4588  0.0172
   38bbb     C3  948   2.673   5.394   7.163  0.1368  0.7571 -0.1574
   38bbb     H5  949   2.595   5.344   7.104  0.9584 -0.6096 -0.1174
   38bbb     H6  950   2.675   5.335   7.255 -1.7828 -0.6177 -0.9135
   38bbb     C4  951   2.523   5.540   7.277 -0.3224  0.1306  0.3662
   38bbb     H7  952   2.450   5.619   7.259  2.4910  2.4426 -1.8778
   38bbb     H8  953   2.470   5.443   7.276 -1.1443  0.5335  1.6887
   38bbb     C5  954   2.582   5.562   7.416  0.7765  0.4772 -0.4255
   38bbb     H9  955   2.658   5.484   7.429 -1.0579 -1.4375 -0.6153
   38bbb    H10  956   2.628   5.661   7.420  2.0688 -0.0623 -1.2469
   38bbb     C6  957   2.803   5.371   7.086  0.7263  0.2911  0.1598
   38bbb    H11  958   2.818   5.264   7.067  1.2008  0.3637  0.1109
   38bbb    H12  959   2.794   5.411   6.984 -0.5695 -2.2190 -0.7977
   38bbb     C7  960   2.486   5.551   7.531  0.0110  0.2869  0.2008
   38bbb     C8  961   2.913   5.432   7.173  0.8587  0.1661  0.0900
   38bbb     O1  962   2.471   5.446   7.591 -0.2642  0.7422  0.2739
   38bbb     O2  963   2.936   5.389   7.286 -0.0056 -0.8348 -0.2925
   38bbb     N4  964   2.460   5.820   7.044  0.9279  0.3229  0.1483
   38bbb    H21  965   2.400   5.758   6.989 -3.0402  1.2235  3.0548
   39bbb     C1  966   1.685   5.411   6.835 -0.4568 -0.1117  0.3223
   39bbb     H1  967   1.739   5.394   6.929 -1.2744 -1.4630  0.5684
   39bbb     H2  968   1.670   5.318   6.779 -1.4398  0.0893  0.2344
   39bbb     C2  969   1.769   5.503   6.747 -0.6631 -0.9416 -0.2760
   39bbb     H3  970   1.832   5.439   6.685 -0.5874 -0.7252 -0.4230
   39bbb     H4  971   1.707   5.554   6.672  0.6663 -1.6879 -1.9474
   39bbb     N1  972   1.553   5.467   6.877  0.0094  0.1637 -0.7049
   39bbb     C3  973   1.558   5.587   6.957 -0.1429 -0.3287  1.2167
   39bbb     H5  974   1.568   5.679   6.898 -0.0100 -1.0299  0.1025
   39bbb     H6  975   1.646   5.574   7.020 -0.4260 -0.7135  1.5416
   39bbb     C4  976   1.465   5.485   6.766  0.4833 -0.6022 -0.0416
   39bbb     H7  977   1.362   5.499   6.800 -0.4074  0.5092 -2.8975
   39bbb     H8  978   1.495   5.578   6.716 -1.2098  0.5772  1.0376
   39bbb     C5  979   1.461   5.368   6.665 -0.6401  0.1434  0.1298
   39bbb     H9  980   1.557   5.351   6.614 -0.1417  0.7248  0.8492
   39bbb    H10  981   1.430   5.278   6.718 -1.6017 -0.4986 -1.4645
   39bbb     C6  982   1.426   5.610   7.027  0.0901  0.3911 -0.2172
   39bbb    H11  983   1.362   5.675   6.965  1.0924  2.3328  0.7076
   39bbb    H12  984   1.374   5.516   7.048  1.3716  0.2988  3.1687
   39bbb     C7  985   1.359   5.385   6.563  0.2219 -0.3989 -0.1504
   39bbb     C8  986   1.445   5.676   7.164  0.6798  0.0099  0.6144
   39bbb     O1  987   1.394   5.436   6.458  0.5692  0.2332  0.2217
   39bbb     O2  988   1.535   5.754   7.187 -0.0415  0.0175  0.3251
   39bbb     N4  989   1.857   5.601   6.813 -0.0408 -0.1137 -0.5929
   39bbb    H21  990   1.846   5.636   6.907  0.0937  0.1944 -0.6902
   40bbb     C1  991   2.218   7.235   6.516  0.9667  0.0585  0.3135
   40bbb     H1  992   2.161   7.215   6.424  0.4608 -0.6894  0.7693
   40bbb     H2  993   2.237   7.336   6.554  1.0718 -0.3117  1.2931
   40bbb     C2  994   2.358   7.173   6.479 -0.2513 -0.6458  0.4029
   40bbb     H3  995   2.381   7.218   6.382  0.9863 -0.6330  0.6782
   40bbb     H4  996   2.428   7.226   6.545 -0.5608  0.6115 -0.2494
   40bbb     N1  997   2.155   7.156   6.627  0.7307 -0.1059  0.1808
   40bbb     C3  998   2.016   7.196   6.658  0.2547  0.2907  0.2941
   40bbb     H5  999   2.010   7.296   6.703  0.2624  0.2170  0.4632
   40bbb     H6 1000   1.971   7.116   6.720  0.3955  0.5465  0.7339
   40bbb     C4 1001   2.226   7.149   6.760  0.2626 -0.1067 -0.6354
   40bbb     H7 1002   2.332   7.176   6.758  0.5001 -0.9209  0.2411
   40bbb     H8 1003   2.183   7.217   6.835  0.4934  1.8195 -2.1563
   40bbb     C5 1004   2.197   7.006   6.817 -0.2961  0.6487 -0.3796
   40bbb     H9 1005   2.099   6.995   6.864  0.2946 -1.2289  0.4990
   40bbb    H10 1006   2.193   6.935   6.733 -0.6449  0.0357  0.1458
   40bbb     C6 1007   1.924   7.203   6.536 -0.3967  0.0538  0.8485
   40bbb    H11 1008   1.949   7.298   6.488 -2.5835  1.4181  2.2448
   40bbb    H12 1009   1.933   7.120   6.465 -0.3179 -0.5769  1.5804
   40bbb     C7 1010   2.298   6.969   6.922  0.1633 -0.0323 -0.3507
   40bbb     C8 1011   1.776   7.201   6.589 -0.0655  0.1174  0.1462
   40bbb     O1 1012   2.407   6.919   6.898  0.3155  0.4686  0.0430
   40bbb     O2 1013   1.726   7.093   6.618  0.1132  0.6455  0.4267
   40bbb     N4 1014   2.381   7.029   6.478  0.9050 -0.2567 -0.5521
   40bbb    H21 1015   2.298   6.973   6.461  0.5532  0.6321 -1.9437
   41bbb     C1 1016   2.243   6.070   6.173 -0.3220  0.1562  0.5560
   41bbb     H1 1017   2.350   6.046   6.175 -0.6816 -1.6417  0.4065
   41bbb     H2 1018   2.196   5.993   6.109 -1.6580 -0.3723  2.1027
   41bbb     C2 1019   2.228   6.217   6.113  0.0657  0.5884 -1.2094
   41bbb     H3 1020   2.290   6.221   6.022  2.0904 -0.9262  0.0312
   41bbb     H4 1021   2.122   6.232   6.086 -0.2052  0.0175 -0.4868
   41bbb     N1 1022   2.179   6.047   6.308  0.0088  0.1995 -0.2869
   41bbb     C3 1023   2.233   5.928   6.382  0.1732 -0.6300  0.3654
   41bbb     H5 1024   2.217   5.831   6.333  0.1962 -1.5159  2.0482
   41bbb     H6 1025   2.190   5.927   6.483  1.4989 -1.2354  0.9479
   41bbb     C4 1026   2.034   6.033   6.295 -0.0754 -0.2631 -0.1966
   41bbb     H7 1027   2.012   6.123   6.235  1.8205  1.2565  1.2512
   41bbb     H8 1028   2.002   5.945   6.238 -0.9810  1.0118 -1.7341
   41bbb     C5 1029   1.959   6.027   6.423  0.2413 -0.0953 -0.1421
   41bbb     H9 1030   1.975   5.928   6.467  2.7710 -1.5678 -3.8864
   41bbb    H10 1031   1.985   6.097   6.503 -0.4219 -1.9272  1.7808
   41bbb     C6 1032   2.379   5.960   6.409  0.5802  0.0620 -0.0793
   41bbb    H11 1033   2.437   5.927   6.322  0.8351 -1.2315  0.5529
   41bbb    H12 1034   2.395   6.067   6.425 -0.7054  0.1747  0.6528
   41bbb     C7 1035   1.812   6.049   6.401 -0.4450 -0.0262 -0.6804
   41bbb     C8 1036   2.433   5.891   6.527  0.1457 -0.2252  0.6969
   41bbb     O1 1037   1.742   5.973   6.335  0.8557 -0.1299 -0.5495
   41bbb     O2 1038   2.365   5.808   6.585 -0.4655 -0.3881  0.1261
   41bbb     N4 1039   2.265   6.325   6.209 -1.0210 -0.0814 -0.0578
   41bbb    H21 1040   2.273   6.300   6.307  0.4524 -0.4988 -0.2576
   42bbb     C1 1041   1.217   7.148   7.825  0.1554  0.5391 -0.0117
   42bbb     H1 1042   1.177   7.138   7.724  0.5087 -1.7275  0.0413
   42bbb     H2 1043   1.164   7.079   7.892 -1.5232  2.0716  0.3496
   42bbb     C2 1044   1.186   7.292   7.880  0.1444  0.5245  0.5470
   42bbb     H3 1045   1.224   7.308   7.981 -3.0343  3.1484  1.4975
   42bbb     H4 1046   1.234   7.366   7.814  1.7028 -2.3201 -1.7392
   42bbb     N1 1047   1.359   7.126   7.819  0.2720 -0.3440 -0.0408
   42bbb     C3 1048   1.418   7.149   7.686 -0.4550  0.5877 -0.2456
   42bbb     H5 1049   1.371   7.242   7.651  1.5552  1.8935  0.3936
   42bbb     H6 1050   1.381   7.070   7.619  2.2091 -0.9482 -0.0366
   42bbb     C4 1051   1.397   7.002   7.872 -0.7148 -0.1891 -0.4214
   42bbb     H7 1052   1.324   6.922   7.855 -1.1376 -0.6220  2.7392
   42bbb     H8 1053   1.489   6.961   7.830  0.4800 -0.6864  2.4357
   42bbb     C5 1054   1.431   6.999   8.026 -1.0721  0.1432  0.1292
   42bbb     H9 1055   1.529   7.046   8.038 -1.0227 -0.2474  1.3176
   42bbb    H10 1056   1.356   7.054   8.084 -1.1982 -0.8640  0.9374
   42bbb     C6 1057   1.570   7.158   7.687 -0.8775  0.5613 -0.4205
   42bbb    H11 1058   1.595   7.242   7.753  0.6435 -0.3412  0.2034
   42bbb    H12 1059   1.621   7.073   7.733  0.8455  1.5551 -0.4185
   42bbb     C7 1060   1.439   6.864   8.069 -0.4982  0.0822 -0.6098
   42bbb     C8 1061   1.624   7.193   7.547  0.4557  0.0337 -0.5088
   42bbb     O1 1062   1.481   6.770   8.001 -0.7261  0.2049 -0.4659
   42bbb     O2 1063   1.558   7.216   7.451 -0.0903  0.3431 -0.6661
   42bbb     N4 1064   1.037   7.311   7.896 -0.5266  1.1430  0.7768
   42bbb    H21 1065   0.970   7.235   7.897  0.3607  0.2138 -1.8037
   43bbb     C1 1066   0.778   7.457   6.956 -0.4985  0.3219  0.7377
   43bbb     H1 1067   0.827   7.492   6.864 -0.5131  0.6892  0.8685
   43bbb     H2 1068   0.706   7.534   6.987  1.0803  1.8573  0.7692
   43bbb     C2 1069   0.885   7.448   7.066 -0.7328 -0.2778 -0.9313
   43bbb     H3 1070   0.962   7.376   7.034 -0.2637 -0.8281  1.2593
   43bbb     H4 1071   0.925   7.547   7.089  0.4075 -1.1686  1.2964
   43bbb     N1 1072   0.711   7.329   6.939  0.0782 -0.0934 -0.3084
   43bbb     C3 1073   0.798   7.242   6.858  0.2920  0.9644 -0.5008
   43bbb     H5 1074   0.903   7.264   6.883 -0.1403  0.9093  1.5359
   43bbb     H6 1075   0.774   7.257   6.752  0.6627  1.8708 -0.4672
   43bbb     C4 1076   0.576   7.335   6.879 -0.1456  0.2580  0.1471
   43bbb     H7 1077   0.577   7.406   6.795 -0.0923 -0.9524 -0.9009
   43bbb     H8 1078   0.546   7.240   6.835 -0.3261  0.4223 -0.0900
   43bbb     C5 1079   0.466   7.367   6.989  0.3768  0.1268 -0.6566
   43bbb     H9 1080   0.471   7.297   7.073 -0.2262  0.9061  0.0391
   43bbb    H10 1081   0.465   7.468   7.030  1.2990 -0.5926  1.2546
   43bbb     C6 1082   0.772   7.099   6.907  0.0862 -1.2327 -0.0342
   43bbb    H11 1083   0.844   7.091   6.989 -1.7230  0.8996  1.8848
   43bbb    H12 1084   0.666   7.082   6.927 -0.5819  0.8611 -1.4665
   43bbb     C7 1085   0.334   7.344   6.933 -0.4255  0.5554 -0.1926
   43bbb     C8 1086   0.822   7.000   6.809 -0.7199  0.2593 -0.4519
   43bbb     O1 1087   0.270   7.440   6.899  0.7034  0.0232  0.1835
   43bbb     O2 1088   0.933   7.008   6.771 -0.5545  0.7584  1.2803
   43bbb     N4 1089   0.838   7.390   7.191  0.5128 -0.9354  0.0297
   43bbb    H21 1090   0.761   7.324   7.188  0.6011 -1.0213 -0.3827
   44bbb     C1 1091   0.483   5.775   7.716 -0.3959  0.0350 -0.5388
   44bbb     H1 1092   0.403   5.848   7.696 -0.4431 -0.2284 -1.3644
   44bbb     H2 1093   0.440   5.675   7.700 -0.9301  0.5392 -2.6140
   44bbb     C2 1094   0.525   5.790   7.866  0.5055 -0.3176  0.2572
   44bbb     H3 1095   0.474   5.724   7.937 -2.0367 -0.9994 -1.9973
   44bbb     H4 1096   0.632   5.773   7.877  0.8954  0.5543 -1.6343
   44bbb     N1 1097   0.597   5.803   7.630 -0.1888 -1.0876 -0.3653
   44bbb     C3 1098   0.666   5.933   7.643 -0.5463  0.1402 -0.3555
   44bbb     H5 1099   0.688   5.963   7.746 -0.7088 -0.8480 -0.0245
   44bbb     H6 1100   0.617   6.011   7.584 -0.3639  0.1756 -0.4595
   44bbb     C4 1101   0.571   5.772   7.493 -0.4248  0.8071  0.2060
   44bbb     H7 1102   0.465   5.750   7.476 -0.1382  0.8968 -1.9791
   44bbb     H8 1103   0.604   5.842   7.415 -1.9950  1.3535  0.0037
   44bbb     C5 1104   0.634   5.635   7.460  0.3829 -0.0856  0.4349
   44bbb     H9 1105   0.742   5.636   7.477  0.5723 -2.2224 -0.3361
   44bbb    H10 1106   0.593   5.560   7.529  0.7529 -0.6081  0.0979
   44bbb     C6 1107   0.797   5.932   7.576 -0.3129 -0.4179 -0.1219
   44bbb    H11 1108   0.863   5.865   7.632 -0.1143  0.8043  1.1692
   44bbb    H12 1109   0.794   5.916   7.468  2.0496 -0.8525 -0.1616
   44bbb     C7 1110   0.596   5.601   7.316  0.1347 -0.2504 -0.4997
   44bbb     C8 1111   0.848   6.071   7.594  0.0936  0.4335  0.1110
   44bbb     O1 1112   0.504   5.529   7.288  0.1084 -0.1655  0.0261
   44bbb     O2 1113   0.811   6.161   7.522  0.1586  0.5517 -0.0235
   44bbb     N4 1114   0.485   5.922   7.931  0.0358 -0.2962 -0.2292
   44bbb    H21 1115   0.435   5.988   7.873  1.9749  1.4880 -0.0078
   45bbb     C1 1116   0.415   6.305   7.356  0.4731 -0.0509  0.5571
   45bbb     H1 1117   0.359   6.335   7.267  1.1879 -1.9794 -0.6031
   45bbb     H2 1118   0.343   6.304   7.439 -0.0899 -0.1444  0.0700
   45bbb     C2 1119   0.543   6.396   7.393  0.0392  0.5098 -0.2084
   45bbb     H3 1120   0.616   6.400   7.311 -0.4074 -1.2948 -0.7293
   45bbb     H4 1121   0.501   6.497   7.397  0.3193  0.8388 -3.1878
   45bbb     N1 1122   0.448   6.166   7.318  0.4367  0.3260 -0.0678
   45bbb     C3 1123   0.531   6.162   7.199 -0.0956 -0.0435  0.2718
   45bbb     H5 1124   0.617   6.229   7.213  1.0772 -1.3711 -0.3264
   45bbb     H6 1125   0.468   6.190   7.114 -0.6377  0.8714  0.9537
   45bbb     C4 1126   0.324   6.085   7.305  0.0271  0.0551 -0.4081
   45bbb     H7 1127   0.252   6.148   7.253 -0.8808 -0.2615  0.4309
   45bbb     H8 1128   0.340   5.997   7.241  1.2745  1.1861 -1.7093
   45bbb     C5 1129   0.280   6.045   7.444  0.4016  0.0803 -0.4182
   45bbb     H9 1130   0.360   6.039   7.520 -0.0297  0.3520  0.0626
   45bbb    H10 1131   0.219   6.124   7.489 -0.3711  0.1086 -1.4945
   45bbb     C6 1132   0.590   6.020   7.179  1.3094 -0.4574  0.1244
   45bbb    H11 1133   0.638   5.978   7.268  1.6021 -0.8085 -0.1911
   45bbb    H12 1134   0.513   5.950   7.145  0.5337  0.0429  0.8249
   45bbb     C7 1135   0.207   5.916   7.462  0.3293  0.0452 -0.9839
   45bbb     C8 1136   0.687   6.033   7.070 -0.1971 -0.3071  0.1474
   45bbb     O1 1137   0.153   5.853   7.376 -0.0102  0.4134 -0.2798
   45bbb     O2 1138   0.794   6.081   7.086  0.2234 -0.2625  0.5173
   45bbb     N4 1139   0.600   6.353   7.520  0.2574  0.2088 -0.0759
   45bbb    H21 1140   0.668   6.278   7.524  0.3147  0.1737 -1.3747
   46bbb     C1 1141   0.680   8.334   9.887  0.6718 -0.4289  0.7426
   46bbb     H1 1142   0.692   8.404   9.804  0.4464  1.7048  2.4097
   46bbb     H2 1143   0.723   8.376   9.979 -0.9559  4.2551 -0.3357
   46bbb     C2 1144   0.760   8.206   9.850  0.1849  0.2514 -0.4003
   46bbb     H3 1145   0.863   8.239   9.833  0.1496 -0.1001 -1.3242
   46bbb     H4 1146   0.767   8.127   9.926  1.5105  1.0594  0.3539
   46bbb     N1 1147   0.537   8.298   9.894  0.8083  0.4185 -0.3760
   46bbb     C3 1148   0.446   8.413   9.874  0.1067 -0.0268  0.0694
   46bbb     H5 1149   0.493   8.504   9.914 -1.4399  0.6691  0.3856
   46bbb     H6 1150   0.345   8.398   9.913 -1.2298  1.0830 -2.6799
   46bbb     C4 1151   0.494   8.223  10.014  0.7568 -0.2175  0.0168
   46bbb     H7 1152   0.574   8.158  10.051  1.0147 -0.6322 -1.2268
   46bbb     H8 1153   0.474   8.292  10.097 -0.7897  0.8529 -1.1973
   46bbb     C5 1154   0.380   8.126   9.983 -0.1847 -0.3137  0.0482
   46bbb     H9 1155   0.294   8.190   9.960  0.9407  1.2808  0.1000
   46bbb    H10 1156   0.395   8.049   9.906  0.0339 -0.8207  0.5873
   46bbb     C6 1157   0.433   8.432   9.722 -0.1494 -0.0953 -0.8831
   46bbb    H11 1158   0.436   8.539   9.698 -0.7381  0.2162  0.3451
   46bbb    H12 1159   0.522   8.393   9.672  1.7345  0.2599  1.9602
   46bbb     C7 1160   0.338   8.047  10.103  0.0484 -0.0201  0.6358
   46bbb     C8 1161   0.316   8.359   9.661 -0.2105 -0.0901  0.0008
   46bbb     O1 1162   0.382   8.063  10.216  0.3473 -0.7034  0.0494
   46bbb     O2 1163   0.217   8.328   9.720 -0.4835 -0.0062 -0.3928
   46bbb     N4 1164   0.708   8.143   9.718  0.1668  1.0110 -0.6304
   46bbb    H21 1165   0.612   8.110   9.717  0.2755  0.6973 -0.7908
   47bbb     C1 1166   0.455   7.227   9.412  0.2302 -0.4236  0.3758
   47bbb     H1 1167   0.558   7.242   9.377 -0.5034  2.6790 -0.8893
   47bbb     H2 1168   0.390   7.199   9.328 -0.4742 -1.2401  1.1789
   47bbb     C2 1169   0.411   7.372   9.440  0.6656 -0.0519  0.1390
   47bbb     H3 1170   0.354   7.396   9.350  0.0966 -1.2580  0.1494
   47bbb     H4 1171   0.335   7.373   9.519  0.9642 -0.6467  0.4415
   47bbb     N1 1172   0.445   7.136   9.522  0.4180 -0.6983 -0.3995
   47bbb     C3 1173   0.559   7.174   9.613  0.4003  0.2204  0.4165
   47bbb     H5 1174   0.558   7.283   9.618  0.9912  0.2109  0.9130
   47bbb     H6 1175   0.655   7.134   9.576  0.1841  0.6628 -0.6572
   47bbb     C4 1176   0.453   6.996   9.478 -0.2505  0.0924  0.6311
   47bbb     H7 1177   0.539   6.974   9.414 -1.9956  0.7335 -2.1077
   47bbb     H8 1178   0.471   6.930   9.564  1.0767 -1.9365 -1.0934
   47bbb     C5 1179   0.322   6.957   9.413 -0.3916  0.0409  0.2089
   47bbb     H9 1180   0.233   6.980   9.473 -2.2086 -0.7545 -2.0217
   47bbb    H10 1181   0.307   7.006   9.316 -0.1926 -1.8048 -0.7953
   47bbb     C6 1182   0.541   7.119   9.748  0.3968  0.1129 -1.1146
   47bbb    H11 1183   0.512   7.013   9.747  1.5836 -0.2336 -0.5591
   47bbb    H12 1184   0.639   7.125   9.798  0.3465  0.8144 -1.0999
   47bbb     C7 1185   0.306   6.808   9.396  0.3902  0.1140  0.6053
   47bbb     C8 1186   0.452   7.201   9.828 -0.0965  0.7044  0.3626
   47bbb     O1 1187   0.289   6.747   9.292  0.1218  0.1487  0.6841
   47bbb     O2 1188   0.485   7.313   9.853 -1.0501 -0.0019  0.0019
   47bbb     N4 1189   0.515   7.471   9.464  0.8486  0.0760 -0.0082
   47bbb    H21 1190   0.613   7.445   9.471  0.9316  0.4533  0.2898
   48bbb     C1 1191   0.260   7.294   7.473  0.1796 -0.1724 -0.7153
   48bbb     H1 1192   0.241   7.397   7.506  2.3787 -0.2341  0.9613
   48bbb     H2 1193   0.196   7.260   7.390  0.0581  0.1445 -0.7509
   48bbb     C2 1194   0.215   7.217   7.600 -0.6196 -0.0912  0.1159
   48bbb     H3 1195   0.108   7.239   7.608 -0.6453  1.6983 -3.3934
   48bbb     H4 1196   0.230   7.110   7.581 -1.0754  0.1473 -1.8290
   48bbb     N1 1197   0.408   7.269   7.462 -0.1953  0.2773  0.5546
   48bbb     C3 1198   0.440   7.137   7.396 -0.7557  0.8617  0.1211
   48bbb     H5 1199   0.438   7.145   7.287  0.0708 -0.5956 -0.0231
   48bbb     H6 1200   0.363   7.061   7.413 -1.1798  0.1051 -4.0998
   48bbb     C4 1201   0.466   7.381   7.389  0.4328  0.5256 -0.5669
   48bbb     H7 1202   0.567   7.347   7.362  0.7600  0.1915  0.9769
   48bbb     H8 1203   0.405   7.410   7.303  1.1177  0.7152 -0.9941
   48bbb     C5 1204   0.467   7.499   7.479 -0.2537 -0.2585 -0.0140
   48bbb     H9 1205   0.368   7.545   7.477 -0.0159  0.2805  0.2889
   48bbb    H10 1206   0.508   7.477   7.579  2.5327 -0.0486 -1.0174
   48bbb     C6 1207   0.575   7.079   7.440 -0.6911 -0.4221  0.2857
   48bbb    H11 1208   0.643   7.162   7.419 -1.9691  0.5782 -0.0053
   48bbb    H12 1209   0.573   7.041   7.543 -1.6184 -0.6510  0.1929
   48bbb     C7 1210   0.562   7.601   7.426  0.2703  0.0700  0.3339
   48bbb     C8 1211   0.623   6.982   7.334 -0.5265 -0.7243  0.3653
   48bbb     O1 1212   0.682   7.597   7.455  0.2754  0.0876  0.6202
   48bbb     O2 1213   0.653   7.013   7.218  0.0928 -0.3498  0.1604
   48bbb     N4 1214   0.293   7.258   7.720 -0.5200  0.3041  0.3138
   48bbb    H21 1215   0.287   7.355   7.748  0.3666  0.2261  0.8239
   49bbb     C1 1216   0.450   7.792   7.727 -0.2146 -0.0599 -0.0714
   49bbb     H1 1217   0.346   7.824   7.743 -0.2613 -0.4811  0.4803
   49bbb     H2 1218   0.454   7.710   7.654 -1.1328 -1.1661  1.0705
   49bbb     C2 1219   0.499   7.742   7.862 -0.7196 -0.1307 -0.0574
   49bbb     H3 1220   0.592   7.687   7.844 -0.6942 -0.4235  0.9092
   49bbb     H4 1221   0.524   7.831   7.920 -3.1415  1.5782 -1.4425
   49bbb     N1 1222   0.527   7.919   7.706  0.2647  0.7418 -0.3160
   49bbb     C3 1223   0.453   7.997   7.604 -0.0600 -0.4390  0.1007
   49bbb     H5 1224   0.406   7.927   7.534  1.1435 -0.5839 -0.5996
   49bbb     H6 1225   0.519   8.068   7.553 -0.0520  0.2213  0.9983
   49bbb     C4 1226   0.662   7.886   7.666 -0.0818 -0.0657  0.0402
   49bbb     H7 1227   0.696   7.796   7.720  0.5898  1.0220  1.5160
   49bbb     H8 1228   0.666   7.858   7.560  2.6326  1.0734 -0.2400
   49bbb     C5 1229   0.755   8.001   7.688 -0.4606 -0.0037 -0.5500
   49bbb     H9 1230   0.716   8.092   7.643 -0.2320 -0.0093 -0.7594
   49bbb    H10 1231   0.765   8.011   7.797 -2.2460 -1.1290 -0.2477
   49bbb     C6 1232   0.339   8.080   7.659  0.1737 -0.3147 -0.1481
   49bbb    H11 1233   0.311   8.146   7.576 -0.6879 -0.3691  0.0964
   49bbb    H12 1234   0.260   8.013   7.696  1.5921 -0.7543  2.3447
   49bbb     C7 1235   0.891   7.973   7.624  0.5171 -0.0276  0.7687
   49bbb     C8 1236   0.390   8.158   7.772  0.2278 -0.4014  0.5784
   49bbb     O1 1237   0.901   7.953   7.502  0.0004 -0.1766 -0.1347
   49bbb     O2 1238   0.445   8.265   7.751 -0.2273 -0.0888 -0.3942
   49bbb     N4 1239   0.407   7.643   7.930 -0.0320 -0.1948  0.4374
   49bbb    H21 1240   0.325   7.608   7.881 -0.2517  1.0880 -0.1385
   50bbb     C1 1241   2.685   5.303   9.361  0.3769 -0.2429  0.6604
   50bbb     H1 1242   2.693   5.381   9.437  0.9427 -1.3483  1.7583
   50bbb     H2 1243   2.769   5.286   9.293  0.3439 -2.8494  1.1709
   50bbb     C2 1244   2.567   5.341   9.269 -0.2099  0.9436  0.0846
   50bbb     H3 1245   2.539   5.279   9.182 -0.2736  1.4516 -0.2585
   50bbb     H4 1246   2.478   5.339   9.334  1.5195 -0.8737  2.6287
   50bbb     N1 1247   2.647   5.176   9.423  0.0679  0.6053 -0.3362
   50bbb     C3 1248   2.549   5.173   9.539  0.0313  0.3086 -0.4941
   50bbb     H5 1249   2.562   5.077   9.589  1.6019  0.4665 -0.5516
   50bbb     H6 1250   2.449   5.190   9.497 -0.3291  0.1356  0.2637
   50bbb     C4 1251   2.628   5.059   9.338  0.3512  0.3898  1.0332
   50bbb     H7 1252   2.615   4.968   9.397 -0.6167 -0.3825 -0.3335
   50bbb     H8 1253   2.539   5.064   9.274 -0.7173  1.1146  2.4962
   50bbb     C5 1254   2.746   5.038   9.239  0.2213 -0.9741 -0.2872
   50bbb     H9 1255   2.718   4.965   9.162  0.5472 -1.5243  0.1091
   50bbb    H10 1256   2.757   5.133   9.185 -1.0301 -2.2894 -3.0738
   50bbb     C6 1257   2.584   5.280   9.642 -0.2115 -0.5677  0.7443
   50bbb    H11 1258   2.687   5.273   9.678 -0.4607  1.2460  1.9335
   50bbb    H12 1259   2.563   5.379   9.601  0.9253 -0.7921 -0.4469
   50bbb     C7 1260   2.872   4.992   9.303  0.5696 -0.4816  0.0882
   50bbb     C8 1261   2.488   5.268   9.758  0.6241  0.8230  0.1813
   50bbb     O1 1262   2.873   4.905   9.387 -0.3377 -0.5300 -0.0528
   50bbb     O2 1263   2.407   5.176   9.767 -0.1735 -0.8923 -0.1481
   50bbb     N4 1264   2.581   5.484   9.222  0.0839  0.0683  0.1549
   50bbb    H21 1265   2.577   5.563   9.285  0.5262  0.8997 -0.8429
   51bbb     C1 1266   2.323   6.184   8.518  0.1875  0.1011  0.0053
   51bbb     H1 1267   2.392   6.189   8.603  0.8170 -1.8655 -0.3265
   51bbb     H2 1268   2.265   6.276   8.505  0.9843  0.7571  0.9369
   51bbb     C2 1269   2.219   6.074   8.560 -0.4112 -0.0456  0.8998
   51bbb     H3 1270   2.139   6.127   8.614 -1.3979 -1.5696  0.9692
   51bbb     H4 1271   2.172   6.030   8.472 -3.1985 -0.3364  2.3969
   51bbb     N1 1272   2.394   6.145   8.392  0.4830 -0.3055 -0.4569
   51bbb     C3 1273   2.519   6.210   8.369 -0.5439 -0.3785  0.5163
   51bbb     H5 1274   2.500   6.315   8.396  2.6340 -0.0511  1.8366
   51bbb     H6 1275   2.542   6.197   8.263 -0.5824  0.8610  0.3416
   51bbb     C4 1276   2.307   6.176   8.276 -0.1074  0.2848  0.1580
   51bbb     H7 1277   2.205   6.143   8.297  0.5543 -2.0302  0.0580
   51bbb     H8 1278   2.320   6.283   8.257  0.9773 -0.0575 -1.1984
   51bbb     C5 1279   2.334   6.073   8.169  0.4370 -0.4895  0.2315
   51bbb     H9 1280   2.282   6.111   8.080 -0.5058  1.2186  1.4462
   51bbb    H10 1281   2.440   6.072   8.140  0.3548  0.8992 -0.2036
   51bbb     C6 1282   2.626   6.156   8.454  0.3788 -0.3449  0.8814
   51bbb    H11 1283   2.596   6.193   8.553 -0.1540  3.8512 -0.6398
   51bbb    H12 1284   2.632   6.047   8.448  1.5779 -0.2311 -0.3208
   51bbb     C7 1285   2.278   5.938   8.205 -0.7568 -0.7100  0.0791
   51bbb     C8 1286   2.753   6.223   8.410 -0.4643  0.0366 -0.0808
   51bbb     O1 1287   2.168   5.924   8.258  0.4182 -0.3968  0.3903
   51bbb     O2 1288   2.773   6.347   8.431 -0.4675  0.3445 -0.7539
   51bbb     N4 1289   2.269   5.964   8.653  0.3966 -0.4936  0.3832
   51bbb    H21 1290   2.349   5.906   8.630  2.7118  2.1175  1.3750
   52bbb     C1 1291   1.213   6.947   9.417 -0.4279 -0.1095 -0.5373
   52bbb     H1 1292   1.272   7.028   9.372  2.0479 -0.2105  2.2203
   52bbb     H2 1293   1.195   6.958   9.525  0.5822 -0.5973 -0.3056
   52bbb     C2 1294   1.296   6.820   9.403 -0.1861  0.1599  0.8148
   52bbb     H3 1295   1.237   6.728   9.413 -0.2479  0.0256 -0.5020
   52bbb     H4 1296   1.336   6.826   9.301  1.9583  3.0615  1.6989
   52bbb     N1 1297   1.087   6.939   9.345  0.4549  0.4490 -0.0215
   52bbb     C3 1298   1.025   7.079   9.332 -0.4395  0.6469 -0.7171
   52bbb     H5 1299   1.106   7.151   9.346  0.7358 -0.8160  0.3933
   52bbb     H6 1300   0.954   7.105   9.411  1.0982  0.4605  0.7838
   52bbb     C4 1301   0.997   6.829   9.388 -0.3674 -0.4208 -0.0621
   52bbb     H7 1302   0.921   6.822   9.309  0.6089  2.3221 -1.3337
   52bbb     H8 1303   1.055   6.736   9.387 -0.0142 -0.1970 -1.1160
   52bbb     C5 1304   0.930   6.855   9.523  0.1721 -0.8150 -0.4030
   52bbb     H9 1305   0.990   6.892   9.607 -1.3630 -0.2244  0.4630
   52bbb    H10 1306   0.854   6.930   9.496  0.4104 -1.1668 -2.1909
   52bbb     C6 1307   0.953   7.094   9.200  0.4292  0.8285 -0.2901
   52bbb    H11 1308   1.022   7.068   9.118 -0.0649  1.3930 -0.9036
   52bbb    H12 1309   0.869   7.023   9.197 -0.0515  1.3874 -0.2690
   52bbb     C7 1310   0.847   6.740   9.568 -0.0561 -0.6199 -0.0489
   52bbb     C8 1311   0.907   7.234   9.179 -0.4079  0.2555  0.1911
   52bbb     O1 1312   0.864   6.621   9.532 -0.6333 -0.4961  0.0157
   52bbb     O2 1313   0.982   7.328   9.206  0.3817  0.3543 -0.0905
   52bbb     N4 1314   1.415   6.825   9.487  0.2182  0.6286 -0.3069
   52bbb    H21 1315   1.500   6.873   9.462 -1.3249  2.4523 -2.4681
   53bbb     C1 1316   1.723   7.467   9.725  0.4673  0.2195 -0.4820
   53bbb     H1 1317   1.691   7.472   9.621  0.6228  1.3641 -0.4879
   53bbb     H2 1318   1.766   7.558   9.767  0.4823  0.2537 -0.5722
   53bbb     C2 1319   1.842   7.369   9.725 -0.8267  0.0658  0.0843
   53bbb     H3 1320   1.920   7.423   9.670 -1.7136  1.2126 -0.1158
   53bbb     H4 1321   1.880   7.371   9.827 -1.9483  0.0021  0.5178
   53bbb     N1 1322   1.620   7.410   9.814  0.3324  0.2531 -0.6183
   53bbb     C3 1323   1.485   7.460   9.779 -0.5359 -0.9430  0.7207
   53bbb     H5 1324   1.475   7.569   9.774 -0.8766 -0.9857  0.4864
   53bbb     H6 1325   1.409   7.440   9.856 -1.2681  0.9022  0.5369
   53bbb     C4 1326   1.640   7.426   9.953  0.2141  0.7515 -0.6214
   53bbb     H7 1327   1.746   7.408   9.976  0.3331  1.8791 -0.2194
   53bbb     H8 1328   1.629   7.533   9.975 -0.6189  0.8309 -1.3894
   53bbb     C5 1329   1.566   7.321  10.036  0.7741 -0.0036  0.8773
   53bbb     H9 1330   1.459   7.342  10.027  0.6778 -0.6549  0.4485
   53bbb    H10 1331   1.582   7.220   9.996 -0.2074  0.8210 -1.8104
   53bbb     C6 1332   1.453   7.389   9.649 -0.6138 -0.7954 -0.0892
   53bbb    H11 1333   1.521   7.406   9.564 -0.3354 -0.6155  0.1675
   53bbb    H12 1334   1.461   7.281   9.666  1.5689 -0.6371  0.1534
   53bbb     C7 1335   1.603   7.335  10.176  0.1620 -0.1830 -0.2567
   53bbb     C8 1336   1.307   7.413   9.618 -0.1670  0.0059 -0.5522
   53bbb     O1 1337   1.656   7.434  10.224 -0.3434  0.1933  0.1556
   53bbb     O2 1338   1.261   7.471   9.525 -0.0325 -0.3397 -0.1608
   53bbb     N4 1339   1.814   7.226   9.697 -0.4482  0.8648  0.0750
   53bbb    H21 1340   1.769   7.203   9.609  3.1972 -1.8779 -1.3479
   54bbb     C1 1341   3.092   8.328   8.596 -0.0541 -0.6078 -0.5012
   54bbb     H1 1342   3.176   8.263   8.568  2.8318  1.5398  2.4722
   54bbb     H2 1343   3.135   8.428   8.584 -0.9765 -0.1229  0.1781
   54bbb     C2 1344   3.072   8.316   8.752  0.1615  0.8801 -0.3709
   54bbb     H3 1345   3.166   8.359   8.789  0.8356  1.8086 -3.0213
   54bbb     H4 1346   2.987   8.381   8.776  1.8662  2.7240  0.9528
   54bbb     N1 1347   2.974   8.326   8.506 -0.6686 -1.2406 -0.1688
   54bbb     C3 1348   2.916   8.191   8.491  0.1508 -0.6199  0.1892
   54bbb     H5 1349   2.895   8.152   8.591  0.7063 -1.7516 -0.1250
   54bbb     H6 1350   2.997   8.130   8.450  2.0437  0.5646  1.9682
   54bbb     C4 1351   3.021   8.381   8.381 -0.7237 -0.1267 -0.3100
   54bbb     H7 1352   3.130   8.391   8.383 -0.7937  0.6295  0.3606
   54bbb     H8 1353   3.003   8.317   8.293 -0.0663 -0.4091 -0.2468
   54bbb     C5 1354   2.959   8.516   8.353 -0.2887  0.7650  0.1187
   54bbb     H9 1355   2.851   8.501   8.336  0.2053 -1.8021 -1.2178
   54bbb    H10 1356   2.983   8.592   8.429  0.5299  1.1968 -0.5571
   54bbb     C6 1357   2.788   8.199   8.410  0.3928 -0.0254  0.2262
   54bbb    H11 1358   2.718   8.275   8.448  0.5522  1.3777 -2.0562
   54bbb    H12 1359   2.816   8.228   8.308  0.3852 -0.0612  0.2139
   54bbb     C7 1360   3.016   8.564   8.220  0.2425 -0.4437 -0.4260
   54bbb     C8 1361   2.726   8.068   8.418 -0.1235 -0.1337 -0.0985
   54bbb     O1 1362   3.128   8.614   8.212 -0.0480  0.2703  0.2973
   54bbb     O2 1363   2.768   7.974   8.484 -0.1069 -0.4198  0.2076
   54bbb     N4 1364   3.046   8.178   8.808 -0.3250 -1.0475 -0.1326
   54bbb    H21 1365   3.036   8.103   8.741 -1.3257 -0.8801 -0.1818
   55bbb     C1 1366   3.405   7.516   8.725  0.8568  0.0077 -0.2815
   55bbb     H1 1367   3.336   7.433   8.705  2.6511 -1.2800 -1.4795
   55bbb     H2 1368   3.507   7.494   8.691  0.7008  0.3031 -0.9635
   55bbb     C2 1369   3.415   7.542   8.877  0.6000 -0.2464 -0.5487
   55bbb     H3 1370   3.424   7.441   8.921 -1.5839 -0.3949 -0.3395
   55bbb     H4 1371   3.504   7.601   8.901  2.1424 -1.8188 -2.0858
   55bbb     N1 1372   3.342   7.621   8.640  0.3063 -0.1230 -0.7400
   55bbb     C3 1373   3.342   7.596   8.489 -0.0506  0.4406  0.0194
   55bbb     H5 1374   3.447   7.586   8.461 -0.3893 -2.4910 -0.5674
   55bbb     H6 1375   3.290   7.678   8.439 -1.2064 -0.0375  0.3952
   55bbb     C4 1376   3.399   7.757   8.655 -0.8834  0.3236  0.6920
   55bbb     H7 1377   3.420   7.774   8.761 -0.6034 -0.2787  0.7390
   55bbb     H8 1378   3.486   7.776   8.591 -1.3602  0.8447  0.1886
   55bbb     C5 1379   3.295   7.865   8.638 -0.4187  0.3273  0.0844
   55bbb     H9 1380   3.255   7.855   8.536  4.2675 -2.0391 -1.8187
   55bbb    H10 1381   3.212   7.854   8.708 -0.2001  0.5138  0.3770
   55bbb     C6 1382   3.274   7.464   8.458 -0.2686  0.6802 -0.2100
   55bbb    H11 1383   3.334   7.380   8.494 -1.5664  0.1703  0.8810
   55bbb    H12 1384   3.172   7.459   8.498  0.2157 -1.6145  0.9450
   55bbb     C7 1385   3.353   8.007   8.658  0.0710 -0.6849  0.0267
   55bbb     C8 1386   3.259   7.446   8.312  0.0100 -0.4786  0.2456
   55bbb     O1 1387   3.333   8.067   8.759 -0.0490 -0.0632 -0.0772
   55bbb     O2 1388   3.321   7.509   8.231  0.1176 -0.5188 -0.0659
   55bbb     N4 1389   3.289   7.592   8.937 -0.3141 -0.5568  0.4136
   55bbb    H21 1390   3.236   7.658   8.881  0.5698 -0.1911 -0.0162
   56bbb     C1 1391   2.785   8.044   7.985  0.4307 -0.3509  0.4863
   56bbb     H1 1392   2.717   8.063   8.069 -2.7707 -1.0373 -1.7382
   56bbb     H2 1393   2.790   7.936   7.964 -1.1926 -0.5839  1.1622
   56bbb     C2 1394   2.924   8.111   8.005 -0.1614  0.2894  0.0497
   56bbb     H3 1395   2.982   8.086   7.915  0.2244  0.3791  0.2712
   56bbb     H4 1396   2.930   8.221   8.006  0.9805  0.2604 -0.8007
   56bbb     N1 1397   2.714   8.108   7.870  0.6106  0.6282  0.4551
   56bbb     C3 1398   2.570   8.083   7.866  0.6656  1.0640 -0.6778
   56bbb     H5 1399   2.545   7.990   7.920 -0.5882  0.7945 -1.6666
   56bbb     H6 1400   2.535   8.072   7.762 -1.7018 -0.0773  0.1569
   56bbb     C4 1401   2.777   8.103   7.738 -0.8059  0.9147  0.1395
   56bbb     H7 1402   2.718   8.154   7.662  0.4475  2.5423  0.2047
   56bbb     H8 1403   2.877   8.148   7.743 -0.6699  0.8494 -1.5110
   56bbb     C5 1404   2.794   7.958   7.688  0.5660 -0.4195 -0.4158
   56bbb     H9 1405   2.883   7.909   7.730  1.4550  0.9868 -0.6079
   56bbb    H10 1406   2.712   7.886   7.702  0.8212 -0.4592  1.0674
   56bbb     C6 1407   2.491   8.195   7.927 -0.4932  0.6893 -1.0165
   56bbb    H11 1408   2.386   8.165   7.934 -0.0052 -0.9100  0.2790
   56bbb    H12 1409   2.515   8.211   8.033 -0.0210  0.1275 -1.0304
   56bbb     C7 1410   2.806   7.955   7.539  0.0824  0.3189  0.7262
   56bbb     C8 1411   2.495   8.326   7.849 -0.5672  0.0704  0.6758
   56bbb     O1 1412   2.719   7.931   7.462  0.4924  0.3809 -0.1480
   56bbb     O2 1413   2.523   8.434   7.893  0.3637  0.0289  0.1314
   56bbb     N4 1414   2.989   8.053   8.125 -0.2345  0.1806 -0.1412
   56bbb    H21 1415   2.943   7.974   8.168  0.8163  0.0369  0.7665
   57bbb     C1 1416   2.933   7.642   7.520 -1.1122  0.1600  0.0322
   57bbb     H1 1417   3.008   7.718   7.546  1.0749 -1.6457 -0.6595
   57bbb     H2 1418   2.841   7.696   7.494  0.0648  1.4215 -1.6848
   57bbb     C2 1419   2.921   7.548   7.642  0.1727 -0.0062 -0.5750
   57bbb     H3 1420   2.830   7.488   7.631 -1.4600  2.5188 -1.7581
   57bbb     H4 1421   3.001   7.473   7.643 -0.9849 -1.2699 -0.2562
   57bbb     N1 1422   2.970   7.564   7.401  0.1995  0.5168 -0.1991
   57bbb     C3 1423   3.075   7.625   7.321  0.2936 -0.0811 -0.0459
   57bbb     H5 1424   3.041   7.724   7.289  1.7371  0.0005 -1.4405
   57bbb     H6 1425   3.102   7.571   7.230 -1.0309  1.7508 -1.6183
   57bbb     C4 1426   2.847   7.521   7.334  0.0490 -0.0284 -0.1381
   57bbb     H7 1427   2.786   7.474   7.412  1.7551  0.1240  1.3313
   57bbb     H8 1428   2.795   7.609   7.293 -0.5522 -0.8245 -1.1541
   57bbb     C5 1429   2.877   7.422   7.218 -0.3012  0.2143  0.6246
   57bbb     H9 1430   2.902   7.482   7.130  1.1420 -1.1883  0.0351
   57bbb    H10 1431   2.964   7.361   7.245 -0.3425 -0.9668 -1.6441
   57bbb     C6 1432   3.202   7.638   7.400  0.5094  0.3348  0.4073
   57bbb    H11 1433   3.187   7.692   7.494  0.6284  2.7807 -0.8853
   57bbb    H12 1434   3.239   7.539   7.431  1.8078  0.9395  0.8727
   57bbb     C7 1435   2.771   7.325   7.195 -0.0482  0.2218 -0.3611
   57bbb     C8 1436   3.299   7.720   7.320  0.4195 -0.5487  0.3421
   57bbb     O1 1437   2.786   7.207   7.226 -0.0393 -0.4473  0.5660
   57bbb     O2 1438   3.348   7.686   7.215  0.0519 -0.4089 -0.4430
   57bbb     N4 1439   2.913   7.618   7.777  0.0318  0.6029 -0.0911
   57bbb    H21 1440   2.821   7.640   7.813 -0.6998  1.1665 -2.1323
   58bbb     C1 1441   2.524   6.277   8.880  0.1253 -0.9944  0.1537
   58bbb     H1 1442   2.612   6.298   8.818  1.6583  1.1031  2.8261
   58bbb     H2 1443   2.536   6.323   8.979  0.7553 -1.4080  0.2729
   58bbb     C2 1444   2.506   6.125   8.878 -0.8163 -0.2731  1.2672
   58bbb     H3 1445   2.421   6.105   8.945 -0.0400  0.7443  2.6110
   58bbb     H4 1446   2.469   6.094   8.779 -1.4576  0.9296  1.1134
   58bbb     N1 1447   2.406   6.349   8.817  0.1963  0.1964 -0.1369
   58bbb     C3 1448   2.455   6.482   8.779  0.0981 -0.2962 -0.1369
   58bbb     H5 1449   2.545   6.505   8.837 -0.4706 -1.3908  1.2142
   58bbb     H6 1450   2.373   6.555   8.791  1.0153  0.5927  0.9839
   58bbb     C4 1451   2.297   6.348   8.916 -0.3407 -0.3820 -0.0098
   58bbb     H7 1452   2.269   6.248   8.949  0.5966 -0.4835  0.5041
   58bbb     H8 1453   2.315   6.415   9.001  0.2132 -0.0191 -0.4088
   58bbb     C5 1454   2.166   6.400   8.847 -0.8827  0.6408  0.3573
   58bbb     H9 1455   2.173   6.503   8.811 -1.0214 -0.1682 -2.2148
   58bbb    H10 1456   2.145   6.339   8.758  0.5772  0.2951  0.2347
   58bbb     C6 1457   2.490   6.481   8.635  0.4087 -0.3725  0.1523
   58bbb    H11 1458   2.543   6.387   8.612 -0.1306 -0.7941  0.5927
   58bbb    H12 1459   2.406   6.481   8.564  1.4500  0.3521 -1.1180
   58bbb     C7 1460   2.056   6.381   8.944 -0.8720  0.4058  0.2258
   58bbb     C8 1461   2.554   6.613   8.617  0.2177  0.8665  0.1512
   58bbb     O1 1462   2.005   6.471   9.006  0.3434  0.5595 -0.1512
   58bbb     O2 1463   2.487   6.716   8.637  0.1822  0.3312 -0.2672
   58bbb     N4 1464   2.630   6.062   8.920 -1.1019 -0.2222  0.3115
   58bbb    H21 1465   2.662   6.069   9.016 -0.3287 -0.4730  0.0808
   59bbb     C1 1466   3.544   5.959   8.502  1.3497  1.0385 -0.3414
   59bbb     H1 1467   3.587   6.049   8.548  0.1414  1.5900 -0.2719
   59bbb     H2 1468   3.508   5.975   8.400  0.1006  2.1142  0.2449
   59bbb     C2 1469   3.406   5.916   8.577  0.3152  0.4217 -0.6409
   59bbb     H3 1470   3.360   5.832   8.525 -0.6664  1.5271 -1.6042
   59bbb     H4 1471   3.437   5.886   8.678  0.1260 -1.3136 -1.0714
   59bbb     N1 1472   3.649   5.852   8.511  0.4428  0.5230  0.2818
   59bbb     C3 1473   3.709   5.840   8.646 -0.5058  0.2428  0.1775
   59bbb     H5 1474   3.642   5.889   8.717 -1.3982  0.9162 -1.1025
   59bbb     H6 1475   3.806   5.891   8.634 -0.0829 -0.2898  1.1839
   59bbb     C4 1476   3.745   5.865   8.398  0.1124  0.4819 -0.2416
   59bbb     H7 1477   3.760   5.971   8.372  1.3966  0.0025 -1.5673
   59bbb     H8 1478   3.840   5.822   8.431  1.1725  2.6589 -0.2528
   59bbb     C5 1479   3.705   5.780   8.278 -0.2901  0.4707 -0.5823
   59bbb     H9 1480   3.713   5.678   8.318 -2.8782  0.1819 -0.6349
   59bbb    H10 1481   3.598   5.794   8.258  0.0438  2.2368 -1.3911
   59bbb     C6 1482   3.741   5.695   8.678  0.4711  0.7001 -0.8519
   59bbb    H11 1483   3.793   5.646   8.594  0.6082  0.6055 -0.7117
   59bbb    H12 1484   3.804   5.692   8.767  0.7190 -0.7181 -1.0469
   59bbb     C7 1485   3.779   5.813   8.150  0.1108 -0.3536 -0.4817
   59bbb     C8 1486   3.617   5.617   8.709 -0.4017 -0.0760  0.4311
   59bbb     O1 1487   3.880   5.760   8.106 -0.1548  0.3794 -0.6102
   59bbb     O2 1488   3.588   5.576   8.820  0.3470  0.3044  0.5853
   59bbb     N4 1489   3.304   6.025   8.571 -0.4001  0.2808 -0.5692
   59bbb    H21 1490   3.342   6.117   8.586  1.3198 -0.4339 -0.3375
   60bbb     C1 1491   3.270   6.521  10.133 -0.3163  0.6138  0.0003
   60bbb     H1 1492   3.371   6.546  10.098 -0.6716  5.8024  1.8447
   60bbb     H2 1493   3.253   6.417  10.102 -0.7481  0.7771 -0.3093
   60bbb     C2 1494   3.179   6.623  10.063  0.3263 -0.0422 -0.3226
   60bbb     H3 1495   3.074   6.606  10.091  0.6273 -0.0218  0.8669
   60bbb     H4 1496   3.187   6.728  10.095  4.2896 -0.9949  2.6793
   60bbb     N1 1497   3.277   6.531  10.284 -0.1379 -0.0825 -0.0368
   60bbb     C3 1498   3.150   6.503  10.356  0.1654  0.2521  0.4209
   60bbb     H5 1499   3.131   6.399  10.385  1.3866  0.1900  1.0697
   60bbb     H6 1500   3.068   6.533  10.289 -1.2460 -2.9692  0.5391
   60bbb     C4 1501   3.377   6.444  10.346 -0.0382 -0.0203 -0.3318
   60bbb     H7 1502   3.373   6.456  10.455 -0.4782 -1.2102 -0.1967
   60bbb     H8 1503   3.352   6.338  10.331  1.2690 -0.7460  2.0533
   60bbb     C5 1504   3.513   6.481  10.298 -0.2423 -0.1227 -0.0005
   60bbb     H9 1505   3.537   6.437  10.201  0.6096 -0.5455  0.3922
   60bbb    H10 1506   3.524   6.590  10.287 -1.9868  0.1110  0.2255
   60bbb     C6 1507   3.130   6.588  10.478  0.4346 -0.3895 -0.6157
   60bbb    H11 1508   3.224   6.593  10.535 -0.8268  2.2764  1.4605
   60bbb    H12 1509   3.103   6.689  10.444 -2.8691 -1.1981 -0.6858
   60bbb     C7 1510   3.618   6.439  10.399 -0.7010  0.1993  0.7739
   60bbb     C8 1511   3.026   6.541  10.577  0.0869  0.8441  0.0455
   60bbb     O1 1512   3.640   6.507  10.494 -0.1429  0.0378 -0.0363
   60bbb     O2 1513   3.053   6.502  10.686  0.1370  0.3915  0.6876
   60bbb     N4 1514   3.191   6.627   9.920 -0.3145 -1.1004 -0.3225
   60bbb    H21 1515   3.261   6.679   9.870 -0.1891 -2.1453 -1.2830
   61bbb     C1 1516   3.174   5.953   9.257  0.4211  0.6879  0.0384
   61bbb     H1 1517   3.265   5.979   9.202 -0.2845 -0.4701 -1.7823
   61bbb     H2 1518   3.150   5.858   9.207  0.8133 -0.3461  1.7144
   61bbb     C2 1519   3.066   6.065   9.231  0.0557 -0.0884  0.4266
   61bbb     H3 1520   3.075   6.085   9.124 -1.4394  0.1392  0.3238
   61bbb     H4 1521   2.969   6.015   9.237  0.6715 -1.6374 -1.4273
   61bbb     N1 1522   3.196   5.922   9.401 -0.0502 -0.4284  0.1336
   61bbb     C3 1523   3.302   5.819   9.408  0.3986  0.4660 -0.3634
   61bbb     H5 1524   3.302   5.755   9.319  1.5147  0.0131 -0.0565
   61bbb     H6 1525   3.303   5.760   9.500  2.7324 -1.6209 -1.6128
   61bbb     C4 1526   3.067   5.870   9.461 -0.5282  0.6142 -0.5974
   61bbb     H7 1527   2.977   5.921   9.426 -1.9750 -0.0890  1.8453
   61bbb     H8 1528   3.055   5.763   9.445  0.7010  0.0746  1.5963
   61bbb     C5 1529   3.070   5.901   9.614 -0.4743  0.4701 -0.2387
   61bbb     H9 1530   2.976   5.868   9.661 -0.4068 -0.4270 -0.7114
   61bbb    H10 1531   3.150   5.842   9.662  0.2314  2.8855  1.7187
   61bbb     C6 1532   3.437   5.893   9.407  0.3966 -0.5216  0.8092
   61bbb    H11 1533   3.519   5.821   9.409  0.2817 -0.6577  0.6787
   61bbb    H12 1534   3.442   5.951   9.313 -2.7815  0.6140  1.2197
   61bbb     C7 1535   3.077   6.044   9.651  0.2903  0.3083 -0.2190
   61bbb     C8 1536   3.456   5.988   9.520 -1.1526 -1.0959  0.0091
   61bbb     O1 1537   2.993   6.127   9.627  0.0171 -0.0570  0.0239
   61bbb     O2 1538   3.435   5.957   9.633 -0.7320  0.5346 -0.8777
   61bbb     N4 1539   3.068   6.184   9.316 -0.8683 -0.1739 -0.2998
   61bbb    H21 1540   3.119   6.180   9.403 -1.3521 -2.4015 -0.0520
   62ccc     N1 1541   2.974   4.483   8.709  0.0835  0.0353 -0.3105
   62ccc     H4 1542   3.043   4.471   8.782 -0.6996  0.0522  0.4493
   62ccc     C3 1543   2.852   4.402   8.715 -0.3208  0.2587 -0.1370
   62ccc     H5 1544   2.786   4.416   8.628 -0.4259  0.2657 -0.0574
   62ccc     C4 1545   2.775   4.452   8.835  0.1903 -0.0418 -0.1836
   62ccc     H6 1546   2.877   4.300   8.746  0.5483 -0.1327 -1.9811
   62ccc     H7 1547   2.777   4.561   8.839  0.0985 -0.0199 -0.6458
   62ccc     H8 1548   2.824   4.406   8.922 -1.7865  1.1272  1.6463
   62ccc     N2 1549   2.635   4.409   8.825  0.0516  0.3357  0.2828
   62ccc     C5 1550   2.586   4.385   8.964 -0.0068 -0.1161 -0.2865
   62ccc     C6 1551   2.558   4.511   8.751 -0.7671 -0.2940 -0.3578
   62ccc     H9 1552   2.559   4.591   8.826  1.5703 -0.3801 -0.2141
   62ccc     C7 1553   2.409   4.473   8.720  0.2153  0.5302  0.1116
   62ccc    H10 1554   2.614   4.547   8.664 -0.1319  1.5786  0.7656
   62ccc    H11 1555   2.399   4.368   8.689  1.8018  1.1302 -2.8452
   62ccc    H12 1556   2.383   4.532   8.631  2.7419  0.8119 -0.5045
   62ccc     C8 1557   2.305   4.493   8.833 -0.1373  0.2334  0.6737
   62ccc     O2 1558   2.239   4.401   8.878  0.2463  0.1584  0.4955
   62ccc     O3 1559   2.275   4.605   8.874  0.4378  0.2193  0.4055
   62ccc    H13 1560   2.646   4.302   9.005  1.9264  0.2201 -2.2423
   62ccc    H14 1561   2.486   4.341   8.951  0.7975 -1.9852 -0.5376
   62ccc     C9 1562   2.576   4.495   9.072  1.0381 -0.9159 -0.5235
   62ccc    H15 1563   2.560   4.596   9.034  1.3441  0.1932  2.1240
   62ccc    H16 1564   2.675   4.497   9.120  0.1355 -1.5156  1.4159
   62ccc    C10 1565   2.464   4.458   9.170 -0.4600 -0.1404 -0.1107
   62ccc     O4 1566   2.371   4.538   9.175 -0.8908  0.9873  0.3304
   62ccc     O5 1567   2.445   4.345   9.220  0.1148 -0.4009 -0.0102
   63ccc     N1 1568   3.072   4.668   9.315  0.0829  0.2521  0.0617
   63ccc     H4 1569   2.995   4.732   9.330  0.0319  0.6138 -1.6285
   63ccc     C3 1570   3.135   4.617   9.439 -0.3766 -0.7482 -0.0209
   63ccc     H5 1571   3.088   4.520   9.457 -1.0271 -0.9188 -2.4060
   63ccc     C4 1572   3.100   4.710   9.557  0.0262  0.2028  0.1069
   63ccc     H6 1573   3.244   4.604   9.429 -0.2077 -1.2633  1.9319
   63ccc     H7 1574   2.991   4.715   9.552  0.0900  0.5855 -1.2885
   63ccc     H8 1575   3.146   4.806   9.531  0.0997 -0.2140 -1.4188
   63ccc     N2 1576   3.149   4.679   9.690  0.2773  0.2765 -0.4344
   63ccc     C5 1577   3.076   4.754   9.796 -0.1580  0.1013  0.0789
   63ccc     C6 1578   3.296   4.672   9.714  0.3404 -0.0979  0.1577
   63ccc     H9 1579   3.311   4.617   9.808 -1.5058  2.8651  2.3896
   63ccc     C7 1580   3.367   4.807   9.723  0.2020 -0.4439 -0.8865
   63ccc    H10 1581   3.348   4.607   9.642  1.0853 -1.1569  1.6045
   63ccc    H11 1582   3.352   4.862   9.817  2.6135 -0.4781 -0.4104
   63ccc    H12 1583   3.334   4.880   9.647 -0.4001  1.4700  1.0877
   63ccc     C8 1584   3.522   4.801   9.719 -0.0492  0.4740  0.9394
   63ccc     O2 1585   3.581   4.820   9.616 -0.0609  0.0448  0.1274
   63ccc     O3 1586   3.586   4.765   9.813 -0.2319 -0.1077 -0.4689
   63ccc    H13 1587   2.972   4.722   9.784  0.0494 -1.7909  2.5645
   63ccc    H14 1588   3.086   4.862   9.781 -2.0442  0.1837 -0.8830
   63ccc     C9 1589   3.100   4.706   9.939  0.0070 -0.0176 -0.6525
   63ccc    H15 1590   3.205   4.702   9.967  0.2359  0.4367 -1.4092
   63ccc    H16 1591   3.076   4.599   9.947 -1.4138  0.3345  0.1380
   63ccc    C10 1592   3.019   4.788  10.047  0.0791  0.1895 -0.3558
   63ccc     O4 1593   2.917   4.844  10.013  0.5412 -0.6602  0.7716
   63ccc     O5 1594   3.067   4.839  10.148 -0.8461  0.1045  0.5077
   64ccc     N1 1595   2.018   4.814   8.483  0.3622 -0.2419  0.4020
   64ccc     H4 1596   1.985   4.793   8.390  3.0055  0.6204 -0.8177
   64ccc     C3 1597   2.084   4.952   8.513 -0.0531  0.3483 -0.3423
   64ccc     H5 1598   2.167   4.922   8.579 -0.7653 -0.8345  0.0416
   64ccc     C4 1599   1.999   5.040   8.595  0.2781  0.2432  0.4370
   64ccc     H6 1600   2.124   4.998   8.422  0.8209 -1.2420 -0.7811
   64ccc     H7 1601   2.063   5.125   8.620  0.2022  0.1630  0.9120
   64ccc     H8 1602   1.977   4.981   8.685  3.1545 -0.6087  0.6859
   64ccc     N2 1603   1.878   5.076   8.521  0.0219 -0.2750  0.4243
   64ccc     C5 1604   1.777   5.150   8.611 -0.2398  0.3427 -0.2456
   64ccc     C6 1605   1.901   5.145   8.396 -0.1580 -0.0013  0.0485
   64ccc     H9 1606   1.969   5.230   8.411 -1.0634  1.0651 -1.6109
   64ccc     C7 1607   1.776   5.191   8.322  0.1725 -0.5226 -0.5910
   64ccc    H10 1608   1.948   5.073   8.328 -0.8205 -0.3453 -0.0450
   64ccc    H11 1609   1.729   5.276   8.372 -0.5483 -1.0748 -0.3085
   64ccc    H12 1610   1.708   5.105   8.320  3.6608 -3.5089 -1.5856
   64ccc     C8 1611   1.811   5.223   8.175  0.4642  0.0640 -0.2067
   64ccc     O2 1612   1.903   5.299   8.144 -0.1241 -0.0942 -0.6506
   64ccc     O3 1613   1.753   5.168   8.080  0.2555 -0.2878 -0.0509
   64ccc    H13 1614   1.751   5.091   8.700  1.7789 -0.2415  0.0141
   64ccc    H14 1615   1.688   5.174   8.553 -0.6659 -0.9113 -0.1413
   64ccc     C9 1616   1.830   5.283   8.672  0.3374 -0.3141 -0.2350
   64ccc    H15 1617   1.865   5.339   8.585 -1.2251  1.0238 -0.0473
   64ccc    H16 1618   1.923   5.269   8.728 -0.0911 -0.7750  0.3726
   64ccc    C10 1619   1.729   5.373   8.741  0.2225 -0.0049  0.3644
   64ccc     O4 1620   1.739   5.401   8.860 -0.0656  0.1017 -0.7371
   64ccc     O5 1621   1.621   5.404   8.692 -0.7027 -0.1125 -0.5785
   65ccc     N1 1622   1.744   4.075   8.794  0.4807 -0.0110  0.2564
   65ccc     H4 1623   1.810   3.999   8.787  2.0724  1.2320  1.1935
   65ccc     C3 1624   1.681   4.091   8.922  0.4442 -0.4550  0.5157
   65ccc     H5 1625   1.588   4.148   8.906  0.3992 -0.6061  0.2465
   65ccc     C4 1626   1.775   4.162   9.013  0.1013 -0.2709 -0.3595
   65ccc     H6 1627   1.658   3.998   8.976 -0.0689 -0.7688 -0.2276
   65ccc     H7 1628   1.790   4.263   8.973  0.4927 -1.1400 -2.5753
   65ccc     H8 1629   1.869   4.110   8.989  0.7851  0.8885 -0.2458
   65ccc     N2 1630   1.741   4.168   9.159 -0.0683 -1.0401  0.1930
   65ccc     C5 1631   1.853   4.248   9.229 -0.0423 -0.1583 -0.8609
   65ccc     C6 1632   1.610   4.233   9.179  0.1027 -0.2823 -0.2848
   65ccc     H9 1633   1.628   4.341   9.170 -0.7456  0.0829  1.7347
   65ccc     C7 1634   1.546   4.197   9.315 -0.7542 -0.0210 -0.1753
   65ccc    H10 1635   1.542   4.196   9.102  2.8840 -2.6979 -1.7529
   65ccc    H11 1636   1.599   4.239   9.401 -2.7231 -0.2466  1.2286
   65ccc    H12 1637   1.534   4.089   9.330 -1.7269  0.0794 -0.1535
   65ccc     C8 1638   1.397   4.246   9.330 -0.8621  0.2229  0.3350
   65ccc     O2 1639   1.320   4.237   9.232 -0.6669  0.1351 -0.0562
   65ccc     O3 1640   1.359   4.276   9.440  0.2324  0.6186  0.3119
   65ccc    H13 1641   1.828   4.256   9.335 -0.8639  2.0506 -1.1693
   65ccc    H14 1642   1.864   4.351   9.192 -0.1468 -0.6766 -2.4410
   65ccc     C9 1643   1.998   4.185   9.223 -0.3590  0.3981  0.0589
   65ccc    H15 1644   2.016   4.147   9.122  0.5243  3.1865 -0.9364
   65ccc    H16 1645   1.994   4.093   9.282  0.1507  1.1929  1.3651
   65ccc    C10 1646   2.106   4.278   9.271  0.3559 -0.1059  0.1015
   65ccc     O4 1647   2.168   4.262   9.375 -0.3393 -0.2968  0.2101
   65ccc     O5 1648   2.127   4.375   9.199 -0.1369 -0.3713 -0.6351
   66ccc     N1 1649   3.805   5.577   9.654 -0.1470 -0.0051  0.1398
   66ccc     H4 1650   3.707   5.554   9.642 -0.2453 -0.4383  1.4888
   66ccc     C3 1651   3.875   5.539   9.773  0.7184 -0.4345 -0.4701
   66ccc     H5 1652   3.954   5.467   9.748  0.9953 -0.7680  1.2045
   66ccc     C4 1653   3.774   5.484   9.877  0.3622  0.6439  0.1605
   66ccc     H6 1654   3.926   5.628   9.810  1.1838 -0.1787 -1.6843
   66ccc     H7 1655   3.716   5.571   9.911  0.2585  0.1308  1.3426
   66ccc     H8 1656   3.825   5.437   9.961 -0.6678 -1.3735 -0.2991
   66ccc     N2 1657   3.673   5.390   9.820  0.5255 -0.2156 -0.6753
   66ccc     C5 1658   3.556   5.376   9.914  0.6790  0.0471 -0.9537
   66ccc     C6 1659   3.723   5.257   9.776  0.4440 -0.1504 -0.0936
   66ccc     H9 1660   3.652   5.209   9.707 -0.8568  0.4200  0.8194
   66ccc     C7 1661   3.755   5.153   9.892 -0.0952 -0.2028  0.0106
   66ccc    H10 1662   3.807   5.269   9.706  0.8299 -1.2039  0.1731
   66ccc    H11 1663   3.664   5.119   9.943  0.1364  0.9062  1.2166
   66ccc    H12 1664   3.816   5.204   9.968 -1.0207  0.0497  0.6001
   66ccc     C8 1665   3.823   5.026   9.843 -0.1172  0.3593  0.4458
   66ccc     O2 1666   3.818   4.993   9.723 -0.2814 -0.0631  0.3327
   66ccc     O3 1667   3.873   4.950   9.921  0.1872  0.0300 -0.5010
   66ccc    H13 1668   3.520   5.477   9.936  0.2281  0.0286 -1.5995
   66ccc    H14 1669   3.592   5.332  10.008 -1.1856 -1.6763 -0.9831
   66ccc     C9 1670   3.434   5.301   9.863  0.6424  0.2537  0.6297
   66ccc    H15 1671   3.447   5.194   9.839 -0.4093  0.3445 -0.4631
   66ccc    H16 1672   3.395   5.355   9.775 -1.3884 -0.1477  1.2310
   66ccc    C10 1673   3.320   5.319   9.969 -0.4448  0.8692  0.3949
   66ccc     O4 1674   3.202   5.323   9.941 -0.1854  0.0861  0.2421
   66ccc     O5 1675   3.342   5.342  10.089 -0.2220 -0.1011  0.0142
   67ccc     N1 1676   3.802   6.265   9.228  1.1095 -0.2844  0.4337
   67ccc     H4 1677   3.704   6.241   9.235  1.5190 -2.4946 -0.5494
   67ccc     C3 1678   3.833   6.357   9.118  0.3515 -0.5594  0.4384
   67ccc     H5 1679   3.935   6.399   9.115 -1.0602  3.2415  0.6269
   67ccc     C4 1680   3.741   6.478   9.140  0.0053 -0.1568  0.1293
   67ccc     H6 1681   3.832   6.307   9.020 -0.2912  0.8591 -0.3008
   67ccc     H7 1682   3.754   6.502   9.246 -1.8626 -1.3871  0.6894
   67ccc     H8 1683   3.633   6.461   9.135 -0.1630  0.4031  1.4558
   67ccc     N2 1684   3.773   6.588   9.049 -0.5290 -1.2366  0.0502
   67ccc     C5 1685   3.890   6.665   9.106 -0.2152  0.2496 -0.3302
   67ccc     C6 1686   3.780   6.560   8.896  0.2866  0.6525 -0.3477
   67ccc     H9 1687   3.825   6.642   8.838  2.0620  0.0266  0.0922
   67ccc     C7 1688   3.642   6.543   8.828 -0.7202 -0.2512  0.4019
   67ccc    H10 1689   3.843   6.472   8.879 -1.5672 -0.6285 -0.9175
   67ccc    H11 1690   3.586   6.635   8.846  0.4826  0.9394 -1.6010
   67ccc    H12 1691   3.584   6.460   8.871 -1.2753 -0.0528  0.0454
   67ccc     C8 1692   3.665   6.526   8.683 -0.2449 -0.6620 -0.1240
   67ccc     O2 1693   3.655   6.616   8.605  0.3145  0.0523  0.3244
   67ccc     O3 1694   3.722   6.427   8.641 -0.5078  0.1433  0.2267
   67ccc    H13 1695   3.980   6.604   9.120  0.2897  1.1650  0.5055
   67ccc    H14 1696   3.865   6.701   9.207  1.9078  1.3222 -0.1166
   67ccc     C9 1697   3.955   6.781   9.035 -0.5373 -0.0957 -0.6006
   67ccc    H15 1698   3.883   6.853   8.992 -0.8035  0.2337  0.3471
   67ccc    H16 1699   4.018   6.735   8.959  1.8757 -0.9520  1.7854
   67ccc    C10 1700   4.057   6.857   9.130 -0.4456 -0.1662 -0.3751
   67ccc     O4 1701   4.154   6.805   9.178 -0.6077 -0.2530  0.4047
   67ccc     O5 1702   4.045   6.976   9.143  0.2587  0.1306  0.3753
   68ccc     N1 1703   3.407   5.021   8.378 -0.0650 -0.1267 -0.1413
   68ccc     H4 1704   3.506   5.004   8.393  0.7258  1.1298 -3.2947
   68ccc     C3 1705   3.372   5.043   8.235 -0.3879  0.3611 -0.6015
   68ccc     H5 1706   3.277   5.098   8.230 -1.1756 -0.9990 -1.4817
   68ccc     C4 1707   3.356   4.910   8.157  0.2036  0.0825  0.2775
   68ccc     H6 1708   3.454   5.099   8.189 -1.8557  2.0728 -1.2602
   68ccc     H7 1709   3.255   4.874   8.181 -1.2263  3.6932  0.4335
   68ccc     H8 1710   3.439   4.843   8.181  0.7609  1.2559  1.8031
   68ccc     N2 1711   3.361   4.939   8.012 -0.3315  0.4450  0.2553
   68ccc     C5 1712   3.356   4.818   7.933 -0.2025 -0.0678  0.5668
   68ccc     C6 1713   3.266   5.040   7.968 -0.0884  0.3719 -0.0047
   68ccc     H9 1714   3.166   5.004   7.998  0.5341 -2.7112 -1.2971
   68ccc     C7 1715   3.274   5.073   7.822 -0.3454  0.0918  0.0930
   68ccc    H10 1716   3.290   5.129   8.028  3.1832 -0.3259 -0.1006
   68ccc    H11 1717   3.247   4.992   7.753  1.3689 -1.8547  1.5738
   68ccc    H12 1718   3.376   5.105   7.797 -0.7560  1.7707  0.4632
   68ccc     C8 1719   3.179   5.183   7.780 -0.3895  0.5312 -0.1862
   68ccc     O2 1720   3.186   5.293   7.833  0.2749 -0.1928 -0.6163
   68ccc     O3 1721   3.095   5.159   7.691 -0.0242 -0.1641 -0.2091
   68ccc    H13 1722   3.423   4.750   7.987 -1.2291  0.9027  3.2481
   68ccc    H14 1723   3.393   4.826   7.830  1.5591 -2.2687  0.9356
   68ccc     C9 1724   3.209   4.756   7.922  0.2169  0.2996 -0.7265
   68ccc    H15 1725   3.137   4.812   7.861 -1.8921  0.8095  2.0098
   68ccc    H16 1726   3.162   4.741   8.020  4.0507 -0.9095  1.1311
   68ccc    C10 1727   3.220   4.618   7.865  0.1618  0.3968  0.0568
   68ccc     O4 1728   3.167   4.595   7.757  0.3030  0.2804  0.0849
   68ccc     O5 1729   3.282   4.532   7.930  0.1892 -0.3353 -0.1104
   69ccc     N1 1730   3.802   4.934   9.142 -0.4569 -0.4020  0.3629
   69ccc     H4 1731   3.740   4.974   9.212 -1.3188  0.3829 -0.8041
   69ccc     C3 1732   3.926   4.871   9.181  0.6075 -0.2116 -0.3483
   69ccc     H5 1733   4.009   4.915   9.124  1.3111  0.3086  1.0362
   69ccc     C4 1734   3.921   4.716   9.164  0.2605 -0.0062 -0.2729
   69ccc     H6 1735   3.949   4.887   9.287 -0.7098 -0.0989 -0.0633
   69ccc     H7 1736   3.899   4.694   9.059  0.1830  1.9070 -0.6853
   69ccc     H8 1737   3.830   4.684   9.216 -1.3632 -0.2646 -3.0687
   69ccc     N2 1738   4.044   4.646   9.213 -0.3440 -0.3455 -0.0103
   69ccc     C5 1739   4.036   4.504   9.193  0.5204 -0.0310 -0.6318
   69ccc     C6 1740   4.099   4.685   9.351 -0.1793 -0.3190  0.6125
   69ccc     H9 1741   4.196   4.633   9.353 -0.0973 -0.4739 -2.4471
   69ccc     C7 1742   4.020   4.629   9.466  0.5976  0.4026  0.4199
   69ccc    H10 1743   4.117   4.793   9.364  2.6100 -0.2813 -2.1878
   69ccc    H11 1744   4.079   4.644   9.558  1.6443  1.1284 -0.3444
   69ccc    H12 1745   4.014   4.520   9.469 -2.0443  0.5091  0.6891
   69ccc     C8 1746   3.883   4.691   9.479  0.4111  0.5860 -0.2279
   69ccc     O2 1747   3.865   4.808   9.508  0.0233  0.2669  0.1953
   69ccc     O3 1748   3.788   4.620   9.456  0.4864 -0.2483  0.8191
   69ccc    H13 1749   3.943   4.465   9.237  1.2554 -1.0249  0.0766
   69ccc    H14 1750   4.109   4.454   9.258 -1.0305 -0.8339  0.5677
   69ccc     C9 1751   4.053   4.456   9.044  0.1224  0.1740 -0.2379
   69ccc    H15 1752   3.993   4.516   8.976 -4.2573 -1.4334  1.8187
   69ccc    H16 1753   4.003   4.359   9.030  1.0651 -0.2343 -0.8965
   69ccc    C10 1754   4.202   4.440   9.006  0.7740  0.7069  0.1388
   69ccc     O4 1755   4.255   4.528   8.943  0.0341 -0.0584  0.6282
   69ccc     O5 1756   4.261   4.336   9.020  0.3907  0.5074 -0.5028
   70ccc     N1 1757  -0.118   6.919   9.056  0.0994  0.9530 -0.5300
   70ccc     H4 1758  -0.053   6.967   9.119  2.4474 -2.9829  0.3792
   70ccc     C3 1759  -0.262   6.941   9.056  0.1943 -0.5848 -0.5968
   70ccc     H5 1760  -0.299   6.958   8.954 -0.2735  3.3374  0.0942
   70ccc     C4 1761  -0.303   7.061   9.141 -0.2383 -0.1852 -0.5050
   70ccc     H6 1762  -0.312   6.850   9.092 -0.2056 -0.6304 -1.2592
   70ccc     H7 1763  -0.411   7.050   9.156 -0.1808  0.8047  0.8994
   70ccc     H8 1764  -0.298   7.155   9.084 -2.7475  1.5785  1.9289
   70ccc     N2 1765  -0.235   7.058   9.274 -0.2138  0.0638  0.1005
   70ccc     C5 1766  -0.309   6.985   9.377  0.6451  0.6701  0.4872
   70ccc     C6 1767  -0.183   7.193   9.310  0.5808 -0.1490  0.0904
   70ccc     H9 1768  -0.114   7.185   9.394 -0.4552 -1.2586  0.8755
   70ccc     C7 1769  -0.298   7.290   9.356 -0.8889  0.1261  0.7005
   70ccc    H10 1770  -0.130   7.237   9.225 -0.0492  0.2505 -0.0970
   70ccc    H11 1771  -0.362   7.245   9.433  0.3779  1.5603  2.6902
   70ccc    H12 1772  -0.375   7.319   9.283  0.4919  1.1199 -0.4200
   70ccc     C8 1773  -0.235   7.420   9.409  0.4575  0.1265  0.8000
   70ccc     O2 1774  -0.246   7.465   9.516  0.2020  0.2524 -0.8833
   70ccc     O3 1775  -0.168   7.488   9.337  0.1496  0.1738  0.2144
   70ccc    H13 1776  -0.414   7.018   9.379  0.4863  0.1296  1.8632
   70ccc    H14 1777  -0.270   7.016   9.475  0.5626 -1.9687  1.4180
   70ccc     C9 1778  -0.312   6.828   9.364  0.0413  0.4631  0.0080
   70ccc    H15 1779  -0.218   6.792   9.321  0.3916  2.1064 -0.6738
   70ccc    H16 1780  -0.389   6.802   9.290  2.0104 -0.0850 -1.9230
   70ccc    C10 1781  -0.362   6.764   9.494  0.0362 -0.0552  0.1983
   70ccc     O4 1782  -0.308   6.664   9.535  0.0613  0.3613 -0.2737
   70ccc     O5 1783  -0.467   6.801   9.540 -0.5159 -0.1042 -0.5735
   71ccc     N1 1784   0.577   6.781   9.142 -0.5287 -1.0301  0.3173
   71ccc     H4 1785   0.525   6.726   9.075 -0.8827 -1.8078  1.2011
   71ccc     C3 1786   0.683   6.723   9.227 -0.0475  0.0585  0.2959
   71ccc     H5 1787   0.781   6.741   9.181  0.7881  0.7919  2.2474
   71ccc     C4 1788   0.655   6.574   9.267 -0.1919  0.0789 -0.0820
   71ccc     H6 1789   0.694   6.776   9.322 -0.2251 -1.6187  1.2824
   71ccc     H7 1790   0.562   6.578   9.327 -0.2800  0.1384 -0.2224
   71ccc     H8 1791   0.730   6.540   9.339 -0.3351 -0.9271 -0.3972
   71ccc     N2 1792   0.645   6.479   9.156  0.2611  0.4389  0.0070
   71ccc     C5 1793   0.598   6.349   9.208 -0.7733 -0.0768 -0.0376
   71ccc     C6 1794   0.774   6.467   9.075 -0.1949 -0.1418  0.5567
   71ccc     H9 1795   0.766   6.389   8.998 -0.3975  2.5351 -2.3664
   71ccc     C7 1796   0.898   6.439   9.169  0.0128 -0.2416 -0.2610
   71ccc    H10 1797   0.791   6.559   9.018 -4.0742  0.6741  0.4486
   71ccc    H11 1798   0.871   6.353   9.232  1.0370 -0.4042 -0.0350
   71ccc    H12 1799   0.912   6.530   9.229 -1.4967 -1.0859  1.4849
   71ccc     C8 1800   1.032   6.410   9.104 -0.0252  0.9043  0.2225
   71ccc     O2 1801   1.097   6.316   9.146 -0.1446 -0.0040 -0.1073
   71ccc     O3 1802   1.080   6.459   9.003 -0.1182 -0.2007  0.3057
   71ccc    H13 1803   0.502   6.368   9.258 -1.0512  0.4270 -0.7467
   71ccc    H14 1804   0.667   6.324   9.290 -2.1041 -1.3272  0.7539
   71ccc     C9 1805   0.572   6.235   9.108 -0.0524 -0.2005 -0.1140
   71ccc    H15 1806   0.673   6.205   9.075  0.0386  0.4973 -0.4924
   71ccc    H16 1807   0.512   6.279   9.027 -0.3691  0.6992  0.5913
   71ccc    C10 1808   0.502   6.122   9.181  0.1233 -0.5741  0.5137
   71ccc     O4 1809   0.388   6.087   9.149  0.2435 -0.2291  0.4220
   71ccc     O5 1810   0.557   6.042   9.258  0.0883 -0.2318  0.8130
   72ccc     N1 1811   1.317   7.954   8.234 -0.6861  0.1312  0.9279
   72ccc     H4 1812   1.272   7.907   8.156  2.8314 -0.7549 -0.7853
   72ccc     C3 1813   1.314   8.097   8.242  0.7510  0.3233 -0.5398
   72ccc     H5 1814   1.209   8.121   8.223  0.6925 -0.5312 -1.4149
   72ccc     C4 1815   1.396   8.162   8.126  0.4761 -0.3624 -0.7636
   72ccc     H6 1816   1.339   8.135   8.341  1.4439  0.1349 -0.6401
   72ccc     H7 1817   1.365   8.113   8.033 -1.7750 -0.8122  0.1699
   72ccc     H8 1818   1.499   8.130   8.148 -0.5752 -1.6328  3.0104
   72ccc     N2 1819   1.385   8.311   8.108  0.0691 -0.3683  0.7556
   72ccc     C5 1820   1.487   8.364   8.015 -0.2150  0.1904  0.0810
   72ccc     C6 1821   1.246   8.363   8.092 -0.7708  0.4186 -0.5922
   72ccc     H9 1822   1.208   8.328   7.995  3.3493 -3.8088 -1.0304
   72ccc     C7 1823   1.241   8.518   8.124  0.2042 -0.3005  0.0659
   72ccc    H10 1824   1.180   8.318   8.167 -1.0614 -0.4957 -1.3725
   72ccc    H11 1825   1.302   8.581   8.059  1.8040 -0.9284  0.9116
   72ccc    H12 1826   1.289   8.533   8.221 -1.5807 -1.8998  1.2756
   72ccc     C8 1827   1.096   8.558   8.144 -0.7189  0.6431  1.1525
   72ccc     O2 1828   1.046   8.551   8.254 -0.2886 -0.0278 -0.0823
   72ccc     O3 1829   1.031   8.597   8.046  0.1001 -0.2341  0.1467
   72ccc    H13 1830   1.465   8.471   8.000  0.0058  0.3189  0.6641
   72ccc    H14 1831   1.485   8.306   7.922  2.5214 -0.4352  0.3371
   72ccc     C9 1832   1.636   8.364   8.073 -0.0480  0.4552 -0.1629
   72ccc    H15 1833   1.650   8.277   8.139 -1.5606 -2.2607 -3.0939
   72ccc    H16 1834   1.642   8.448   8.143  1.7573 -1.0097  1.5768
   72ccc    C10 1835   1.749   8.369   7.965 -0.0238  0.3894 -0.1221
   72ccc     O4 1836   1.796   8.270   7.908  0.3882 -0.0134 -0.7286
   72ccc     O5 1837   1.778   8.474   7.908  0.1226  0.3841 -0.0397
   73ccc     N1 1838   1.504   7.430   7.985 -0.5210 -0.0491 -0.6530
   73ccc     H4 1839   1.444   7.461   8.060  0.5975 -1.4086  0.8663
   73ccc     C3 1840   1.498   7.492   7.857  0.1116 -0.2417 -0.7858
   73ccc     H5 1841   1.601   7.524   7.840  0.4336 -0.0654  1.1647
   73ccc     C4 1842   1.407   7.615   7.856 -0.3365  0.0675 -0.5729
   73ccc     H6 1843   1.458   7.421   7.784  0.3589 -2.0930  0.8139
   73ccc     H7 1844   1.403   7.662   7.955  1.3902  0.8514 -0.8476
   73ccc     H8 1845   1.305   7.577   7.842 -0.5433 -1.0733  2.9453
   73ccc     N2 1846   1.441   7.714   7.752  0.9182  0.4875 -0.1704
   73ccc     C5 1847   1.427   7.654   7.614 -0.3433  0.3044  0.3320
   73ccc     C6 1848   1.562   7.789   7.778 -0.2499  0.5558 -0.5594
   73ccc     H9 1849   1.650   7.723   7.780  0.5918  1.6254  1.7075
   73ccc     C7 1850   1.567   7.873   7.911 -0.5530 -0.1400 -0.1847
   73ccc    H10 1851   1.574   7.860   7.696  1.5586 -0.7273 -1.4737
   73ccc    H11 1852   1.545   7.812   7.999  1.4434  0.2303  0.6369
   73ccc    H12 1853   1.487   7.948   7.904  0.6814  1.2115 -0.3676
   73ccc     C8 1854   1.704   7.957   7.941  0.1831  0.3118  0.1772
   73ccc     O2 1855   1.731   7.986   8.057  0.3233 -0.2339  0.0903
   73ccc     O3 1856   1.773   7.995   7.851 -0.0289  0.1018  0.2016
   73ccc    H13 1857   1.506   7.581   7.590 -0.8873 -0.4882  0.8805
   73ccc    H14 1858   1.436   7.739   7.546  1.1210  0.0819  0.2018
   73ccc     C9 1859   1.300   7.576   7.573  0.1197 -0.2538 -0.3537
   73ccc    H15 1860   1.205   7.610   7.616 -0.7441 -1.0293 -1.6048
   73ccc    H16 1861   1.317   7.469   7.592  0.4141  0.2055  2.3526
   73ccc    C10 1862   1.276   7.589   7.424 -0.1081  0.0163  0.0170
   73ccc     O4 1863   1.242   7.692   7.369 -0.4466  0.1476 -0.5120
   73ccc     O5 1864   1.308   7.492   7.354  0.0928  0.2440 -0.4773
   74ccc     N1 1865   1.556   5.184   9.336 -0.1734 -0.2931 -0.2216
   74ccc     H4 1866   1.579   5.221   9.244 -2.6716  2.4513  0.0885
   74ccc     C3 1867   1.579   5.048   9.377  0.5211 -0.8003 -0.1646
   74ccc     H5 1868   1.630   5.046   9.474 -0.6387 -2.4232  0.4581
   74ccc     C4 1869   1.672   4.979   9.267 -0.8473 -0.4286 -0.6749
   74ccc     H6 1870   1.488   4.986   9.378  1.2745 -1.9495 -0.0388
   74ccc     H7 1871   1.767   5.033   9.258  0.5827 -2.9555 -1.8040
   74ccc     H8 1872   1.620   4.986   9.171 -0.9700  3.4807 -0.4909
   74ccc     N2 1873   1.705   4.840   9.297 -0.8156  0.3934  0.2023
   74ccc     C5 1874   1.800   4.782   9.196 -0.5875 -0.5117 -0.4498
   74ccc     C6 1875   1.586   4.752   9.329 -1.5737 -0.6859  0.6633
   74ccc     H9 1876   1.637   4.657   9.352 -1.2244 -0.7107 -0.1612
   74ccc     C7 1877   1.469   4.747   9.223 -0.3177  0.0742 -0.4926
   74ccc    H10 1878   1.551   4.780   9.429  0.7508 -0.8623  1.6036
   74ccc    H11 1879   1.517   4.746   9.124  1.2491  2.1009  0.1806
   74ccc    H12 1880   1.413   4.841   9.224  0.0737  0.3103  0.1342
   74ccc     C8 1881   1.383   4.616   9.236 -0.7295 -0.2035  0.1426
   74ccc     O2 1882   1.368   4.533   9.149  0.0402  0.7890 -0.1319
   74ccc     O3 1883   1.311   4.595   9.333 -0.0299 -0.2221 -0.6149
   74ccc    H13 1884   1.756   4.809   9.100 -1.7399  0.9047  0.4316
   74ccc    H14 1885   1.818   4.674   9.209  1.5016 -0.1028  0.5735
   74ccc     C9 1886   1.943   4.834   9.193 -1.2191  0.2754 -0.7035
   74ccc    H15 1887   2.005   4.796   9.275  1.5479  1.3419 -2.1542
   74ccc    H16 1888   1.958   4.942   9.206  0.8687 -0.1714  1.2694
   74ccc    C10 1889   2.022   4.802   9.073  0.1857  0.0301 -0.0333
   74ccc     O4 1890   2.095   4.705   9.060  0.0192  0.5147 -0.4209
   74ccc     O5 1891   2.011   4.869   8.977 -0.5056 -0.6711  0.4969
   75ccc     N1 1892   1.542   5.956   9.619  0.2275  0.4948 -0.2220
   75ccc     H4 1893   1.621   5.895   9.602  0.2597  0.5025 -0.1019
   75ccc     C3 1894   1.562   6.094   9.676  0.2418 -0.3180 -0.6292
   75ccc     H5 1895   1.638   6.153   9.622  0.7767 -0.7429 -0.3511
   75ccc     C4 1896   1.592   6.083   9.824 -0.1208  0.2451 -0.2492
   75ccc     H6 1897   1.481   6.163   9.652 -0.1566 -0.2272  0.8927
   75ccc     H7 1898   1.679   6.015   9.825  0.6303  1.0226 -3.2434
   75ccc     H8 1899   1.519   6.032   9.888  0.3871  0.5201  0.5723
   75ccc     N2 1900   1.618   6.213   9.878 -0.3622 -0.4539  0.2775
   75ccc     C5 1901   1.711   6.215   9.998  0.5942 -0.0540  0.2265
   75ccc     C6 1902   1.496   6.300   9.893  0.6487  0.4438 -0.3796
   75ccc     H9 1903   1.528   6.405   9.888 -0.5900  0.7929 -1.6554
   75ccc     C7 1904   1.414   6.293  10.034  0.3582 -1.1715 -0.6240
   75ccc    H10 1905   1.429   6.275   9.810 -0.3514 -2.4244  1.1685
   75ccc    H11 1906   1.473   6.335  10.116 -2.2474  2.4319 -0.3634
   75ccc    H12 1907   1.384   6.190  10.058 -0.2203 -0.6499  1.0174
   75ccc     C8 1908   1.293   6.381  10.027  0.2223 -0.0906 -0.3126
   75ccc     O2 1909   1.216   6.387  10.124 -0.2693 -0.2505  0.4646
   75ccc     O3 1910   1.277   6.466   9.938  0.7740 -0.2287  0.8543
   75ccc    H13 1911   1.672   6.148  10.075  0.2091 -0.5456 -0.3859
   75ccc    H14 1912   1.702   6.319  10.029  1.1872  0.2709 -0.6429
   75ccc     C9 1913   1.854   6.171   9.960 -0.2897 -1.0369  0.0676
   75ccc    H15 1914   1.874   6.252   9.889  0.1926 -1.1943  0.0173
   75ccc    H16 1915   1.875   6.075   9.911  0.5872 -1.5095  1.3232
   75ccc    C10 1916   1.941   6.180  10.088  0.5778 -0.3028 -0.0596
   75ccc     O4 1917   2.025   6.271  10.104  0.3239  0.3493 -0.2466
   75ccc     O5 1918   1.961   6.081  10.158  0.1093  0.4031  0.4759
   76ccc     N1 1919   0.151   5.215   8.830 -0.0371  0.2106  0.8960
   76ccc     H4 1920   0.209   5.297   8.827 -0.1632  0.3598  2.0629
   76ccc     C3 1921   0.009   5.249   8.852 -0.4911  0.0023 -0.3007
   76ccc     H5 1922  -0.050   5.266   8.761  0.0467  1.0459 -0.4691
   76ccc     C4 1923  -0.005   5.371   8.947 -0.2676 -0.6369 -0.3599
   76ccc     H6 1924  -0.035   5.159   8.896  0.2894 -0.4391 -0.4165
   76ccc     H7 1925   0.012   5.332   9.049 -0.5986 -2.4188 -0.9597
   76ccc     H8 1926  -0.110   5.401   8.950 -0.0292  0.5129 -2.0297
   76ccc     N2 1927   0.076   5.492   8.910 -1.0084 -0.1807 -0.3393
   76ccc     C5 1928   0.052   5.536   8.768  0.4924 -1.1567  0.4957
   76ccc     C6 1929   0.075   5.596   9.015 -0.0102 -0.4767 -0.3714
   76ccc     H9 1930  -0.030   5.626   9.030  0.0740  0.0124 -0.7191
   76ccc     C7 1931   0.166   5.723   8.997 -0.3534 -0.2052  0.3257
   76ccc    H10 1932   0.107   5.552   9.111 -0.9351  2.1945  1.2850
   76ccc    H11 1933   0.126   5.767   8.905 -0.6966 -1.7615 -0.3010
   76ccc    H12 1934   0.263   5.694   8.956 -0.1246  0.1066  0.6345
   76ccc     C8 1935   0.177   5.815   9.117 -1.1358 -0.6466  0.5967
   76ccc     O2 1936   0.096   5.906   9.142 -0.3048  0.0506 -0.3768
   76ccc     O3 1937   0.258   5.787   9.200 -0.8550  0.6927 -0.5379
   76ccc    H13 1938   0.005   5.636   8.771  1.0795 -0.8929  1.5539
   76ccc    H14 1939  -0.022   5.471   8.720  0.0228 -1.2812  1.3687
   76ccc     C9 1940   0.171   5.553   8.678 -0.7041 -0.5315 -0.2726
   76ccc    H15 1941   0.225   5.459   8.660 -1.8131 -1.2184 -0.1001
   76ccc    H16 1942   0.230   5.627   8.733 -0.3198 -0.2381 -1.0531
   76ccc    C10 1943   0.131   5.626   8.552 -0.1086  0.2742 -0.3539
   76ccc     O4 1944   0.131   5.566   8.447 -0.2205  0.0549 -0.6157
   76ccc     O5 1945   0.116   5.746   8.556  0.6797 -0.2554  0.0846
   77ccc     N1 1946   0.883   5.111   8.840  0.6194 -0.0711 -0.2191
   77ccc     H4 1947   0.842   5.171   8.910 -0.9675 -2.3042  0.8694
   77ccc     C3 1948   1.020   5.065   8.874  1.0789 -0.4526  0.1057
   77ccc     H5 1949   1.030   4.964   8.832  1.0212 -0.7964  0.9031
   77ccc     C4 1950   1.029   5.061   9.029 -0.7547  0.2537 -0.2175
   77ccc     H6 1951   1.093   5.134   8.829 -0.7240  0.4691 -1.5315
   77ccc     H7 1952   0.944   5.008   9.073  1.3433 -1.4073  2.1092
   77ccc     H8 1953   1.017   5.163   9.069 -3.1034 -0.8119  2.0932
   77ccc     N2 1954   1.159   5.002   9.069 -0.2502  0.3973  0.4158
   77ccc     C5 1955   1.178   4.858   9.022 -0.5560  0.1032  0.0578
   77ccc     C6 1956   1.276   5.084   9.027  0.2438  0.0062 -0.4421
   77ccc     H9 1957   1.374   5.038   9.040  0.9012  1.0351 -1.5569
   77ccc     C7 1958   1.289   5.226   9.083 -0.2799  0.4087 -0.2195
   77ccc    H10 1959   1.267   5.088   8.917  0.1498 -1.3018 -0.4939
   77ccc    H11 1960   1.332   5.222   9.184  0.9640 -1.1871 -0.7701
   77ccc    H12 1961   1.191   5.274   9.085 -1.1403 -1.2816  0.0134
   77ccc     C8 1962   1.393   5.297   8.989 -0.2774 -0.3876 -0.2459
   77ccc     O2 1963   1.513   5.286   9.013  0.0972 -0.0338  0.2810
   77ccc     O3 1964   1.356   5.365   8.893 -0.4772  0.0154  0.2764
   77ccc    H13 1965   1.264   4.809   9.070 -1.7871 -1.2135  0.9659
   77ccc    H14 1966   1.170   4.858   8.913 -3.9652  1.6440  0.1790
   77ccc     C9 1967   1.062   4.771   9.062 -0.8615 -0.5411 -0.1090
   77ccc    H15 1968   0.975   4.779   8.995 -0.7342  0.0909 -0.2018
   77ccc    H16 1969   1.031   4.808   9.161 -2.6795  0.8107 -1.1133
   77ccc    C10 1970   1.090   4.623   9.062 -0.0461  0.0231  0.3658
   77ccc     O4 1971   1.157   4.571   8.974  0.2489  0.2577 -0.0385
   77ccc     O5 1972   1.061   4.539   9.151 -0.0812 -0.1453  0.3243
   78ccc     N1 1973   2.431   5.669   7.570 -0.3963 -0.0792  0.1653
   78ccc     H4 1974   2.463   5.753   7.525  1.8400 -0.4921  0.8702
   78ccc     C3 1975   2.358   5.682   7.697 -0.2887  0.4887 -0.1362
   78ccc     H5 1976   2.334   5.578   7.721  2.1157  0.4098  2.5976
   78ccc     C4 1977   2.232   5.768   7.685  0.4148  0.2138 -0.6645
   78ccc     H6 1978   2.430   5.717   7.772 -1.3821  0.0301  1.1641
   78ccc     H7 1979   2.170   5.717   7.611 -1.8739  1.3486  0.3779
   78ccc     H8 1980   2.257   5.863   7.636 -2.6985  0.3124 -2.2441
   78ccc     N2 1981   2.148   5.797   7.810  0.0396  0.3877  0.3366
   78ccc     C5 1982   2.095   5.680   7.876  0.6359 -0.2187  0.7347
   78ccc     C6 1983   2.052   5.906   7.787 -0.0221 -0.0169 -0.9012
   78ccc     H9 1984   2.102   5.983   7.727  0.0605  1.5068  0.9991
   78ccc     C7 1985   2.000   5.971   7.918  1.3126  0.1243 -0.0364
   78ccc    H10 1986   1.963   5.870   7.734  0.1426 -1.4143 -0.2718
   78ccc    H11 1987   2.099   5.993   7.959  1.8454 -1.5229 -0.3609
   78ccc    H12 1988   1.942   5.903   7.982  1.0564  1.3994  1.1223
   78ccc     C8 1989   1.914   6.095   7.912  0.5764  0.3506  0.5062
   78ccc     O2 1990   1.920   6.170   7.815  0.3436 -0.1030 -0.5846
   78ccc     O3 1991   1.820   6.117   7.987  0.0784 -0.2833  0.0082
   78ccc    H13 1992   2.040   5.702   7.969 -1.3760 -0.3706 -0.3471
   78ccc    H14 1993   2.175   5.608   7.896  0.4765 -0.3585  0.8748
   78ccc     C9 1994   1.989   5.612   7.784  0.6598 -0.0709  0.7283
   78ccc    H15 1995   2.018   5.592   7.680 -4.6133 -0.2901 -1.0295
   78ccc    H16 1996   1.900   5.677   7.781 -1.1094 -2.2519  2.2269
   78ccc    C10 1997   1.935   5.485   7.850  0.5705  0.2707  0.7098
   78ccc     O4 1998   1.957   5.375   7.799  0.2435  0.1482  0.1073
   78ccc     O5 1999   1.870   5.493   7.949  0.6220  0.0191 -0.2170
   79ccc     N1 2000   2.981   5.534   7.122  0.2180 -0.4107 -0.3231
   79ccc     H4 2001   2.968   5.555   7.024 -3.4032 -0.3245  0.0678
   79ccc     C3 2002   3.053   5.630   7.217  0.2976 -0.3037  0.6253
   79ccc     H5 2003   3.106   5.576   7.297  0.7827  0.7971  1.0640
   79ccc     C4 2004   2.947   5.728   7.272 -0.3478  0.3284  0.0694
   79ccc     H6 2005   3.141   5.671   7.165 -0.1341 -0.2042 -0.0421
   79ccc     H7 2006   2.864   5.678   7.322  0.3489  0.7254  1.6652
   79ccc     H8 2007   2.909   5.789   7.189 -2.9094  1.6758  2.0727
   79ccc     N2 2008   3.012   5.821   7.367 -0.0309  0.1281  0.5541
   79ccc     C5 2009   2.922   5.932   7.405 -0.1867  0.0240 -0.7881
   79ccc     C6 2010   3.095   5.773   7.472 -0.1837 -0.3849 -0.5116
   79ccc     H9 2011   3.178   5.714   7.433 -0.1423 -0.5438 -0.1853
   79ccc     C7 2012   3.012   5.693   7.574 -0.3212  0.0346 -0.3659
   79ccc    H10 2013   3.145   5.856   7.523  1.5582 -2.2700  0.9918
   79ccc    H11 2014   2.934   5.633   7.528 -0.7650 -0.1243  0.5683
   79ccc    H12 2015   2.950   5.768   7.624 -1.8364 -1.8241  0.6199
   79ccc     C8 2016   3.090   5.621   7.681 -0.1543  0.4196 -0.1721
   79ccc     O2 2017   3.152   5.678   7.769 -0.0402 -0.9535 -0.2023
   79ccc     O3 2018   3.090   5.501   7.670 -0.6874  0.0002  0.2767
   79ccc    H13 2019   2.966   5.990   7.488  0.2065 -0.6816 -0.4850
   79ccc    H14 2020   2.831   5.895   7.455 -0.3089  1.2461 -0.0510
   79ccc     C9 2021   2.875   6.028   7.292  0.5247  0.7492  0.0333
   79ccc    H15 2022   2.808   5.973   7.225 -0.6657  0.5554  1.3295
   79ccc    H16 2023   2.969   6.066   7.249  1.0663  1.0903  1.4654
   79ccc    C10 2024   2.790   6.141   7.342  0.6742  0.0052  0.8089
   79ccc     O4 2025   2.670   6.129   7.366 -0.0791 -0.1545 -0.2570
   79ccc     O5 2026   2.834   6.256   7.334 -0.9514 -0.3819 -0.4418
   80ccc     N1 2027   1.230   5.349   6.593 -0.0190  0.0663 -0.1118
   80ccc     H4 2028   1.218   5.308   6.684  0.1323 -2.1782 -1.0408
   80ccc     C3 2029   1.116   5.389   6.506 -1.2067  0.1425  0.2324
   80ccc     H5 2030   1.113   5.498   6.504 -2.5127  0.1821  2.1074
   80ccc     C4 2031   0.985   5.336   6.560  0.2346  0.2444 -0.4013
   80ccc     H6 2032   1.135   5.355   6.403 -2.5331 -2.3800  0.7295
   80ccc     H7 2033   0.972   5.372   6.663  1.8478 -0.6086  0.1254
   80ccc     H8 2034   0.991   5.228   6.580  1.3389  0.6192  1.5218
   80ccc     N2 2035   0.869   5.363   6.464 -0.0781  0.1953 -1.2182
   80ccc     C5 2036   0.745   5.301   6.508 -0.8891  0.4353  0.1418
   80ccc     C6 2037   0.856   5.506   6.432  0.0987 -0.4786  0.6274
   80ccc     H9 2038   0.943   5.537   6.373  1.0227 -4.4954 -0.4718
   80ccc     C7 2039   0.831   5.603   6.544  0.0434  0.0826 -0.6182
   80ccc    H10 2040   0.778   5.523   6.357  0.6887  2.8156  0.6090
   80ccc    H11 2041   0.902   5.595   6.627  0.8819 -0.3112 -1.3547
   80ccc    H12 2042   0.729   5.594   6.583 -0.4050  0.6741 -1.6309
   80ccc     C8 2043   0.839   5.745   6.480  0.4409 -0.3590  0.0999
   80ccc     O2 2044   0.765   5.787   6.394 -0.0648 -0.2463 -0.2939
   80ccc     O3 2045   0.905   5.833   6.536 -0.3191 -0.2696  0.2683
   80ccc    H13 2046   0.699   5.357   6.590  2.4866  1.7494  1.3237
   80ccc    H14 2047   0.764   5.203   6.555  1.3911  1.4103  1.4575
   80ccc     C9 2048   0.643   5.281   6.403  0.5274 -0.5073 -0.0765
   80ccc    H15 2049   0.684   5.229   6.316 -2.8074 -1.4305 -1.2535
   80ccc    H16 2050   0.611   5.378   6.361 -1.7891 -1.7620 -1.4396
   80ccc    C10 2051   0.509   5.213   6.450  0.0267  0.3874 -0.8345
   80ccc     O4 2052   0.500   5.154   6.556 -0.2182 -0.7983 -0.6373
   80ccc     O5 2053   0.415   5.218   6.375  0.1870 -0.3306 -0.0593
   81ccc     N1 2054   1.354   5.631   7.251  0.1381  0.2144 -0.1363
   81ccc     H4 2055   1.278   5.573   7.215 -0.6204 -0.4411  2.3347
   81ccc     C3 2056   1.348   5.668   7.396  0.3710  0.1803  0.4437
   81ccc     H5 2057   1.373   5.775   7.399 -0.3713  0.3480  1.1050
   81ccc     C4 2058   1.440   5.593   7.485 -0.5885  0.9914 -0.5053
   81ccc     H6 2059   1.246   5.652   7.434  0.5302 -0.7073  0.5141
   81ccc     H7 2060   1.535   5.573   7.435 -0.9640 -0.9157 -0.5185
   81ccc     H8 2061   1.389   5.496   7.492  1.0191  0.2207  1.1512
   81ccc     N2 2062   1.453   5.638   7.622  0.0319  0.0994 -0.1471
   81ccc     C5 2063   1.509   5.774   7.637 -0.1389 -0.0315 -0.0596
   81ccc     C6 2064   1.522   5.547   7.724 -0.5972 -0.8305  0.4676
   81ccc     H9 2065   1.629   5.541   7.702 -0.4604  2.5189 -0.3852
   81ccc     C7 2066   1.460   5.405   7.728  0.3794  0.4077 -0.2598
   81ccc    H10 2067   1.504   5.597   7.820 -3.5561  1.9319 -1.3019
   81ccc    H11 2068   1.486   5.349   7.637  0.8920  0.9185 -0.4293
   81ccc    H12 2069   1.350   5.404   7.735  0.2596 -1.2989 -1.5695
   81ccc     C8 2070   1.519   5.331   7.849 -0.1956  0.3573  0.3436
   81ccc     O2 2071   1.460   5.301   7.947 -0.2906  0.6280  0.0218
   81ccc     O3 2072   1.629   5.280   7.842  0.1198 -0.4102 -0.4160
   81ccc    H13 2073   1.522   5.794   7.744 -0.6333 -1.2148  0.2441
   81ccc    H14 2074   1.445   5.851   7.593  1.2364  0.8418 -0.6071
   81ccc     C9 2075   1.646   5.791   7.558  0.0400  0.0974  0.2286
   81ccc    H15 2076   1.630   5.795   7.450 -1.9318  0.5217  0.4882
   81ccc    H16 2077   1.709   5.704   7.582  0.3417  0.7779  2.0491
   81ccc    C10 2078   1.711   5.925   7.609  0.0469  0.9915  0.0441
   81ccc     O4 2079   1.684   5.987   7.710 -0.2153 -0.1733  0.9672
   81ccc     O5 2080   1.784   5.980   7.526  0.0158  0.7389 -0.3047
   82ccc     N1 2081   2.260   7.006   7.049  0.5357  0.3760  0.2833
   82ccc     H4 2082   2.167   7.044   7.065  0.2690 -0.4272  0.6869
   82ccc     C3 2083   2.350   6.973   7.167 -0.3534  0.5755 -0.2610
   82ccc     H5 2084   2.449   6.942   7.133 -0.1102 -0.7377  1.5209
   82ccc     C4 2085   2.289   6.852   7.228 -0.3566  0.4389 -0.4001
   82ccc     H6 2086   2.345   7.054   7.241  1.3582  0.0661  0.4594
   82ccc     H7 2087   2.272   6.778   7.149 -0.2222  1.0023 -0.9605
   82ccc     H8 2088   2.192   6.871   7.276 -0.3859 -0.8034  0.0728
   82ccc     N2 2089   2.382   6.799   7.338 -0.6806 -0.1910  0.6311
   82ccc     C5 2090   2.436   6.894   7.445  1.0583  0.2439  0.2425
   82ccc     C6 2091   2.498   6.721   7.296 -0.2077  0.9733 -0.2998
   82ccc     H9 2092   2.570   6.775   7.233 -0.5891 -0.4667 -2.0161
   82ccc     C7 2093   2.453   6.592   7.215 -0.3684 -0.3797 -0.4729
   82ccc    H10 2094   2.543   6.690   7.391 -2.2978  2.6330  1.3539
   82ccc    H11 2095   2.436   6.622   7.111  1.2386 -2.1379 -1.3061
   82ccc    H12 2096   2.370   6.533   7.255 -1.2639 -0.5453 -2.4690
   82ccc     C8 2097   2.581   6.505   7.204  0.7105  0.4771 -0.2492
   82ccc     O2 2098   2.586   6.394   7.259 -0.1825 -0.4018 -0.5178
   82ccc     O3 2099   2.676   6.539   7.136  0.5730  0.1596 -0.1936
   82ccc    H13 2100   2.501   6.965   7.392 -1.5191  2.3815 -0.2992
   82ccc    H14 2101   2.489   6.834   7.520  0.5001 -0.5086  0.0544
   82ccc     C9 2102   2.315   6.963   7.514  0.4417  0.6398  0.4537
   82ccc    H15 2103   2.245   6.883   7.540  0.5903  0.8488  1.5589
   82ccc    H16 2104   2.266   7.038   7.450 -0.4059 -1.5142 -1.5517
   82ccc    C10 2105   2.354   7.033   7.646  0.4192  0.1960 -0.4556
   82ccc     O4 2106   2.417   7.134   7.660 -0.0880 -0.4238  0.0773
   82ccc     O5 2107   2.360   6.958   7.743 -0.0727 -0.1124 -0.3724
   83ccc     N1 2108   1.711   7.317   6.578 -0.3893  0.1021  0.5943
   83ccc     H4 2109   1.772   7.391   6.543 -1.8079  0.8654 -0.3443
   83ccc     C3 2110   1.576   7.348   6.609  0.0249 -0.7279  0.5080
   83ccc     H5 2111   1.544   7.431   6.545  0.9449 -0.9852 -0.3066
   83ccc     C4 2112   1.572   7.396   6.753  0.4064  0.3681  0.2309
   83ccc     H6 2113   1.512   7.261   6.592 -0.9410  0.1707 -0.6361
   83ccc     H7 2114   1.638   7.483   6.760  0.7997 -0.0191  2.0813
   83ccc     H8 2115   1.625   7.324   6.817  0.9128  0.8870  0.4075
   83ccc     N2 2116   1.435   7.411   6.806 -0.2624  0.1569  0.5385
   83ccc     C5 2117   1.367   7.533   6.757  0.7337  0.2212  0.1387
   83ccc     C6 2118   1.347   7.292   6.810  0.1499 -0.5646 -0.2703
   83ccc     H9 2119   1.256   7.312   6.869 -0.1606 -0.0336 -0.9095
   83ccc     C7 2120   1.410   7.155   6.841 -0.1384 -0.4646  1.2636
   83ccc    H10 2121   1.304   7.278   6.710  0.1888 -1.2749 -0.1885
   83ccc    H11 2122   1.440   7.145   6.946 -3.1564 -0.9371  2.1915
   83ccc    H12 2123   1.499   7.141   6.779  0.7034  2.4694  1.6975
   83ccc     C8 2124   1.317   7.039   6.810  0.0616  0.6572 -0.0668
   83ccc     O2 2125   1.245   7.022   6.714 -0.0862 -0.4578 -0.4388
   83ccc     O3 2126   1.297   6.955   6.895 -0.4587 -0.0405  0.0213
   83ccc    H13 2127   1.333   7.518   6.654 -2.4941 -1.0375  1.2793
   83ccc    H14 2128   1.436   7.618   6.749 -0.0091  0.6320 -2.8303
   83ccc     C9 2129   1.246   7.581   6.840 -0.3214 -0.5883 -0.3223
   83ccc    H15 2130   1.156   7.520   6.826  0.4451 -2.5911  2.6198
   83ccc    H16 2131   1.215   7.681   6.806 -0.5207 -0.9031 -1.1004
   83ccc    C10 2132   1.266   7.583   6.995 -0.3702  0.4331  0.3464
   83ccc     O4 2133   1.322   7.680   7.043 -0.4841  0.6774 -0.1139
   83ccc     O5 2134   1.222   7.504   7.076  0.0158 -0.7534  0.5320
   84ccc     N1 2135   1.769   6.170   6.456  0.1015 -0.4152  0.4011
   84ccc     H4 2136   1.828   6.225   6.517 -1.8768  2.1321  0.1452
   84ccc     C3 2137   1.622   6.205   6.450  0.0635 -0.2088 -0.2416
   84ccc     H5 2138   1.594   6.217   6.344  1.9237 -1.0825 -0.8818
   84ccc     C4 2139   1.577   6.336   6.517 -0.6372 -0.5180 -0.0000
   84ccc     H6 2140   1.559   6.127   6.495 -1.0645 -0.5074 -2.2199
   84ccc     H7 2141   1.602   6.406   6.437  0.5565 -2.3348 -1.2944
   84ccc     H8 2142   1.639   6.370   6.600  1.2878  1.4806 -2.1125
   84ccc     N2 2143   1.435   6.350   6.532  0.2222  0.5702  0.7472
   84ccc     C5 2144   1.403   6.494   6.545  0.1014 -0.1156 -0.1042
   84ccc     C6 2145   1.390   6.267   6.654  0.2714 -1.1422  0.5521
   84ccc     H9 2146   1.282   6.255   6.671  0.2123 -2.7588 -0.7385
   84ccc     C7 2147   1.444   6.314   6.788 -0.8907 -0.0276 -0.4762
   84ccc    H10 2148   1.425   6.165   6.639  0.6349 -0.8988 -0.3109
   84ccc    H11 2149   1.435   6.421   6.809 -0.1127 -0.0159 -0.1671
   84ccc    H12 2150   1.551   6.291   6.794 -0.8570  0.4559  1.8834
   84ccc     C8 2151   1.375   6.247   6.913 -0.1054 -0.1021 -0.0722
   84ccc     O2 2152   1.427   6.153   6.980  0.4135  0.2124  0.1199
   84ccc     O3 2153   1.257   6.262   6.930  0.0014 -0.3864  0.5765
   84ccc    H13 2154   1.421   6.532   6.444  0.6617  2.1707  0.7857
   84ccc    H14 2155   1.473   6.541   6.615 -0.5763 -0.7357  1.0255
   84ccc     C9 2156   1.257   6.524   6.588 -0.1187 -0.6168 -0.4962
   84ccc    H15 2157   1.244   6.501   6.694  3.4290  1.7998  0.6587
   84ccc    H16 2158   1.181   6.465   6.535  0.8869 -1.1921 -1.3460
   84ccc    C10 2159   1.229   6.675   6.578 -0.1287 -0.3203 -0.2365
   84ccc     O4 2160   1.243   6.739   6.471  0.0823  0.2302 -0.5117
   84ccc     O5 2161   1.205   6.739   6.679 -0.4038 -0.0296 -0.3740
   85ccc     N1 2162   2.568   5.924   6.546  0.0603  0.0697  0.1143
   85ccc     H4 2163   2.610   5.994   6.486 -2.8598  0.4354 -1.7065
   85ccc     C3 2164   2.654   5.872   6.653 -0.1924 -0.0230  0.1530
   85ccc     H5 2165   2.610   5.897   6.750 -0.2879 -0.8261  0.3255
   85ccc     C4 2166   2.787   5.947   6.645 -0.2350  0.8258  0.0652
   85ccc     H6 2167   2.665   5.763   6.648 -2.5637 -0.3083 -0.3221
   85ccc     H7 2168   2.777   6.053   6.620  1.3084  0.6671 -1.4159
   85ccc     H8 2169   2.844   5.911   6.559  0.9925  0.4930  0.9757
   85ccc     N2 2170   2.877   5.943   6.766  0.1567  0.3525 -0.5904
   85ccc     C5 2171   2.832   6.024   6.885 -0.4007 -0.9796 -0.3757
   85ccc     C6 2172   2.934   5.815   6.816 -0.0837 -0.5478  0.4976
   85ccc     H9 2173   3.009   5.833   6.894  0.9741  2.6025 -1.0550
   85ccc     C7 2174   2.999   5.734   6.705  0.2684 -0.3010 -0.4748
   85ccc    H10 2175   2.856   5.762   6.871  0.3410 -0.9495  0.7176
   85ccc    H11 2176   3.076   5.794   6.655  0.2665 -0.2898 -0.4645
   85ccc    H12 2177   2.931   5.704   6.624 -0.7697 -0.2238  0.3446
   85ccc     C8 2178   3.069   5.612   6.765 -0.2462  0.0370 -0.1966
   85ccc     O2 2179   3.180   5.588   6.714 -0.4757 -0.2877  0.5176
   85ccc     O3 2180   3.018   5.541   6.853  0.1578  1.2329  0.2549
   85ccc    H13 2181   2.916   6.037   6.954  0.1322 -0.3348 -1.1401
   85ccc    H14 2182   2.746   5.970   6.927  0.6175 -1.6007  1.0057
   85ccc     C9 2183   2.782   6.164   6.849  1.2421  0.0428  0.4702
   85ccc    H15 2184   2.683   6.162   6.801  0.8703  0.4786  1.1979
   85ccc    H16 2185   2.858   6.206   6.783  2.0289 -0.9043  0.7490
   85ccc    C10 2186   2.753   6.252   6.965  0.2640 -0.1479 -0.0729
   85ccc     O4 2187   2.687   6.216   7.066  0.9400  0.7600  0.4882
   85ccc     O5 2188   2.805   6.357   6.968  0.5221 -0.3282  0.6687
   86ccc     N1 2189   1.388   6.849   8.190 -0.9302  0.3793 -0.5829
   86ccc     H4 2190   1.345   6.931   8.233 -1.0094 -0.3159  0.7180
   86ccc     C3 2191   1.419   6.735   8.272  0.0448  0.4278  0.0272
   86ccc     H5 2192   1.329   6.713   8.331  0.7958 -0.9008  0.7322
   86ccc     C4 2193   1.539   6.743   8.372 -0.1694  0.2357  0.3714
   86ccc     H6 2194   1.433   6.655   8.198  1.8401  2.0276 -1.4903
   86ccc     H7 2195   1.529   6.840   8.421 -0.7114  1.3643 -1.8240
   86ccc     H8 2196   1.636   6.740   8.320  0.7334 -1.2063  2.0546
   86ccc     N2 2197   1.541   6.627   8.467 -0.0316  0.2128 -0.4220
   86ccc     C5 2198   1.431   6.620   8.561  0.6674 -0.2248 -0.1068
   86ccc     C6 2199   1.572   6.499   8.400 -0.4627  0.9579  0.2909
   86ccc     H9 2200   1.591   6.423   8.477 -1.9597  0.3759  0.1134
   86ccc     C7 2201   1.681   6.491   8.291  0.2012 -0.0718  0.7157
   86ccc    H10 2202   1.480   6.477   8.345 -1.9350  3.8545  1.3957
   86ccc    H11 2203   1.781   6.508   8.332  0.3007 -1.6545  1.2004
   86ccc    H12 2204   1.658   6.552   8.203  1.6792 -2.6240 -1.6077
   86ccc     C8 2205   1.693   6.350   8.223  0.2681  0.2427  0.5877
   86ccc     O2 2206   1.786   6.334   8.146 -0.6504  0.0897  0.2588
   86ccc     O3 2207   1.646   6.244   8.265 -0.1578  0.2012 -0.0985
   86ccc    H13 2208   1.337   6.594   8.512  0.0473  0.4190  0.7055
   86ccc    H14 2209   1.427   6.724   8.596 -0.9137 -1.0399  2.4529
   86ccc     C9 2210   1.440   6.526   8.682 -0.2025  0.0171  0.1594
   86ccc    H15 2211   1.539   6.524   8.728 -0.5888 -0.2694  0.9928
   86ccc    H16 2212   1.414   6.423   8.652 -0.6646  0.1958 -0.0636
   86ccc    C10 2213   1.346   6.552   8.795  0.5561 -0.2804  0.5191
   86ccc     O4 2214   1.320   6.458   8.869  0.4942  0.3846 -0.0196
   86ccc     O5 2215   1.276   6.648   8.805  0.4417 -0.9703  0.4799
   87ccc     N1 2216   1.759   7.188   7.546  0.1733 -0.1732 -0.5776
   87ccc     H4 2217   1.801   7.173   7.637 -0.2153 -0.8965 -0.5089
   87ccc     C3 2218   1.852   7.221   7.436 -0.8073  0.4354  0.3524
   87ccc     H5 2219   1.867   7.138   7.365  0.8363  0.5658  0.5151
   87ccc     C4 2220   1.989   7.234   7.492  0.1779 -0.6645 -0.0839
   87ccc     H6 2221   1.816   7.310   7.381  1.4365 -0.7580 -3.4353
   87ccc     H7 2222   2.059   7.259   7.412  0.3135 -0.2214  0.1655
   87ccc     H8 2223   2.015   7.140   7.542  0.7760 -0.1593  0.5893
   87ccc     N2 2224   2.003   7.342   7.597  0.1467 -0.3386 -0.0312
   87ccc     C5 2225   2.138   7.337   7.668  0.0853  0.2909  0.4467
   87ccc     C6 2226   1.963   7.476   7.546  0.4709 -0.2164  0.0048
   87ccc     H9 2227   2.047   7.547   7.556  1.5348 -1.4318 -0.0742
   87ccc     C7 2228   1.837   7.542   7.609 -0.2397 -0.1942 -0.2134
   87ccc    H10 2229   1.947   7.467   7.438 -1.9090 -1.5239  0.4067
   87ccc    H11 2230   1.838   7.545   7.719 -0.1060  1.3274 -0.2375
   87ccc    H12 2231   1.744   7.494   7.575  0.0091 -1.1771  0.4403
   87ccc     C8 2232   1.814   7.697   7.571  0.2221 -0.1292 -0.0304
   87ccc     O2 2233   1.859   7.782   7.649  0.4996  0.3321  0.4891
   87ccc     O3 2234   1.781   7.740   7.462  0.2765  0.2917  0.3202
   87ccc    H13 2235   2.218   7.358   7.596  0.8167 -1.3910  0.7200
   87ccc    H14 2236   2.149   7.232   7.698 -1.9954 -0.8079 -2.2172
   87ccc     C9 2237   2.144   7.429   7.791 -0.0326 -0.2998 -0.4367
   87ccc    H15 2238   2.062   7.419   7.863  0.2079  3.0830  0.4868
   87ccc    H16 2239   2.128   7.532   7.756  0.4699 -0.1799 -0.3287
   87ccc    C10 2240   2.278   7.410   7.864  0.2962  0.2307  0.1805
   87ccc     O4 2241   2.299   7.304   7.928  0.2448  0.3419  0.1764
   87ccc     O5 2242   2.372   7.485   7.840  0.0271  0.2395 -0.4360
   88ccc     N1 2243   0.294   7.216   6.904 -0.5917  0.2581  0.1295
   88ccc     H4 2244   0.349   7.139   6.942 -4.1954 -1.7111  1.8780
   88ccc     C3 2245   0.160   7.179   6.855 -0.3308 -0.3186 -0.7967
   88ccc     H5 2246   0.116   7.105   6.923  0.0124  1.0061  0.9279
   88ccc     C4 2247   0.147   7.136   6.715 -0.3110  0.3684 -0.5658
   88ccc     H6 2248   0.097   7.267   6.872  0.0026 -0.1119 -0.6293
   88ccc     H7 2249   0.241   7.085   6.689  0.5288  1.8043 -0.4635
   88ccc     H8 2250   0.145   7.229   6.657  0.8032  0.7539 -0.0256
   88ccc     N2 2251   0.026   7.057   6.683  0.0316  0.0108 -0.6159
   88ccc     C5 2252  -0.105   7.127   6.697  0.3617  0.3327 -0.3243
   88ccc     C6 2253   0.017   6.916   6.732 -0.0694 -0.2852  0.2344
   88ccc     H9 2254   0.116   6.872   6.716  0.2697  0.0431  1.3620
   88ccc     C7 2255  -0.095   6.827   6.672 -0.2719  0.3970  0.0739
   88ccc    H10 2256   0.018   6.910   6.841 -0.3240  1.4755  0.3724
   88ccc    H11 2257  -0.093   6.837   6.562  0.6050 -0.2415  0.0203
   88ccc    H12 2258  -0.196   6.855   6.705  0.2247  1.7825  0.4420
   88ccc     C8 2259  -0.079   6.676   6.696  0.5942 -0.3764  0.4769
   88ccc     O2 2260   0.017   6.617   6.641 -0.0509  0.3485 -0.7277
   88ccc     O3 2261  -0.137   6.625   6.793 -0.2097  0.0713  0.0844
   88ccc    H13 2262  -0.140   7.136   6.801  0.2111  1.0227 -0.4333
   88ccc    H14 2263  -0.184   7.072   6.646  1.6677 -0.5514 -1.4643
   88ccc     C9 2264  -0.116   7.272   6.656 -0.2798  1.0005 -0.1367
   88ccc    H15 2265  -0.085   7.283   6.551  1.8550 -0.3003  0.3020
   88ccc    H16 2266  -0.049   7.331   6.720 -1.9947  1.5261  1.2496
   88ccc    C10 2267  -0.255   7.345   6.662  0.6881  0.4218  0.2917
   88ccc     O4 2268  -0.360   7.281   6.663 -0.7223  0.3069 -0.6009
   88ccc     O5 2269  -0.267   7.464   6.649 -0.1237  0.2321 -0.2761
   89ccc     N1 2270   0.738   6.910   6.756  0.0111  0.2673 -0.1362
   89ccc     H4 2271   0.643   6.921   6.788 -1.2251 -1.7912 -2.7194
   89ccc     C3 2272   0.774   6.814   6.652 -0.4710 -0.7264  0.5770
   89ccc     H5 2273   0.691   6.821   6.581  0.2115  0.0476 -0.1755
   89ccc     C4 2274   0.795   6.673   6.692  0.7205 -0.1037  0.1689
   89ccc     H6 2275   0.865   6.846   6.600 -1.1494 -0.0450 -0.2249
   89ccc     H7 2276   0.705   6.642   6.747  0.2127  2.2166  0.7868
   89ccc     H8 2277   0.883   6.672   6.758  1.6331  0.7857 -0.9893
   89ccc     N2 2278   0.814   6.583   6.575  0.5734  0.2833 -0.2424
   89ccc     C5 2279   0.699   6.586   6.477 -1.1541 -0.6275 -0.1550
   89ccc     C6 2280   0.862   6.449   6.626 -0.1797 -0.2806 -0.3086
   89ccc     H9 2281   0.951   6.472   6.686 -0.2212 -0.8248 -0.0350
   89ccc     C7 2282   0.899   6.344   6.512 -0.4027  0.6130 -0.1273
   89ccc    H10 2283   0.782   6.418   6.695 -0.7563 -0.6292 -1.1227
   89ccc    H11 2284   0.970   6.392   6.444 -0.3425 -0.0931 -0.5698
   89ccc    H12 2285   0.812   6.328   6.448  0.7728  0.9533 -1.8712
   89ccc     C8 2286   0.959   6.205   6.554 -0.2808  0.0456 -0.2601
   89ccc     O2 2287   0.990   6.179   6.672 -0.0723 -0.0238 -0.0873
   89ccc     O3 2288   0.987   6.120   6.474 -0.6986 -0.1206 -0.2230
   89ccc    H13 2289   0.721   6.521   6.391  4.3293 -1.6922  1.6445
   89ccc    H14 2290   0.706   6.689   6.439  3.2642 -0.9626 -0.7886
   89ccc     C9 2291   0.562   6.552   6.539  0.2764  0.2203 -0.2993
   89ccc    H15 2292   0.536   6.633   6.609  1.2343 -0.0974  0.4436
   89ccc    H16 2293   0.570   6.462   6.600  2.5219 -0.2428 -1.1638
   89ccc    C10 2294   0.454   6.529   6.441 -0.5842  1.0048  0.9577
   89ccc     O4 2295   0.333   6.535   6.475 -0.6143  0.3845  0.5939
   89ccc     O5 2296   0.472   6.465   6.336  0.2923  0.8594  0.3127
   90ccc     N1 2297   0.670   5.668   7.226  0.0160 -0.1853 -0.4581
   90ccc     H4 2298   0.738   5.734   7.262  1.3896 -0.1009 -2.9820
   90ccc     C3 2299   0.666   5.634   7.085  0.0812 -0.2125 -0.0325
   90ccc     H5 2300   0.575   5.576   7.064 -0.8349 -0.5903  4.0936
   90ccc     C4 2301   0.783   5.549   7.038 -0.2267  0.2143 -0.1984
   90ccc     H6 2302   0.659   5.727   7.029 -2.9748  0.0090  0.5441
   90ccc     H7 2303   0.775   5.544   6.929 -1.6694  0.3297 -0.1150
   90ccc     H8 2304   0.778   5.448   7.081 -2.7850 -0.3609 -1.6244
   90ccc     N2 2305   0.908   5.612   7.058 -0.7609 -0.1811  0.6610
   90ccc     C5 2306   1.023   5.518   7.067 -0.0230  0.4735  0.3104
   90ccc     C6 2307   0.930   5.736   6.974 -0.0316  0.4343  0.1965
   90ccc     H9 2308   0.907   5.712   6.869 -0.5943  0.7041  0.2525
   90ccc     C7 2309   1.071   5.791   6.989 -0.3757  0.1418 -0.5042
   90ccc    H10 2310   0.855   5.813   6.996 -0.0455  0.7561 -0.8941
   90ccc    H11 2311   1.148   5.721   6.954 -0.1261 -0.3839  1.0285
   90ccc    H12 2312   1.095   5.797   7.096  1.0670 -0.4729 -0.7615
   90ccc     C8 2313   1.089   5.928   6.931  0.2320 -0.3847  0.3373
   90ccc     O2 2314   1.133   5.957   6.820  0.7385  0.3642 -0.2306
   90ccc     O3 2315   1.093   6.031   7.003  0.9346  0.0709  0.9618
   90ccc    H13 2316   0.989   5.446   7.143  0.2577  0.3149  0.2864
   90ccc    H14 2317   1.119   5.557   7.103  1.2039 -0.7718 -1.4098
   90ccc     C9 2318   1.065   5.458   6.924 -0.1013 -0.2602 -0.2535
   90ccc    H15 2319   1.097   5.531   6.848  0.3145  0.4267  0.5569
   90ccc    H16 2320   0.972   5.421   6.880  0.5424 -0.6112 -1.3561
   90ccc    C10 2321   1.164   5.344   6.937 -0.1627 -0.0012  0.4584
   90ccc     O4 2322   1.193   5.261   6.849 -0.7435 -0.1212  0.1967
   90ccc     O5 2323   1.215   5.327   7.045 -0.0999  0.9579  0.8699
   91ccc     N1 2324   0.941   6.084   7.694  0.3670  0.3365  0.0947
   91ccc     H4 2325   0.951   6.003   7.754  1.7006 -0.1251 -0.7113
   91ccc     C3 2326   0.977   6.211   7.754  1.0097 -0.3914 -0.8263
   91ccc     H5 2327   0.934   6.289   7.690  0.1485  1.5394  1.9049
   91ccc     C4 2328   1.130   6.225   7.765  0.0424 -0.3174  0.3904
   91ccc     H6 2329   0.921   6.222   7.848 -0.4290 -2.2605 -1.4007
   91ccc     H7 2330   1.161   6.154   7.842 -4.1552 -0.1430  2.5180
   91ccc     H8 2331   1.151   6.320   7.816 -0.2519 -1.2022  2.2237
   91ccc     N2 2332   1.205   6.214   7.632 -0.4504 -0.0518 -0.3845
   91ccc     C5 2333   1.350   6.191   7.655  0.2029  0.7440 -0.1484
   91ccc     C6 2334   1.152   6.306   7.530 -0.2475  0.5607  0.4855
   91ccc     H9 2335   1.062   6.262   7.486 -0.4039  2.3703 -1.1686
   91ccc     C7 2336   1.253   6.311   7.411 -0.2475 -0.4136  0.2246
   91ccc    H10 2337   1.136   6.409   7.566 -1.4436  0.0864  1.3383
   91ccc    H11 2338   1.311   6.219   7.392  0.4863  0.5085 -2.6311
   91ccc    H12 2339   1.328   6.390   7.421 -0.9287  0.0512  1.8554
   91ccc     C8 2340   1.171   6.349   7.290  0.1917  0.2739 -0.1247
   91ccc     O2 2341   1.154   6.462   7.254  0.1059 -0.7351  0.4813
   91ccc     O3 2342   1.148   6.257   7.211 -0.1775 -0.0870 -0.5670
   91ccc    H13 2343   1.400   6.155   7.564 -1.3578  0.3423 -0.8912
   91ccc    H14 2344   1.366   6.103   7.719  0.3478  0.8585 -0.0264
   91ccc     C9 2345   1.431   6.306   7.723 -0.6892  0.1817  0.8620
   91ccc    H15 2346   1.410   6.303   7.831 -0.4031 -0.0184  0.9138
   91ccc    H16 2347   1.395   6.404   7.689  0.9337  0.3178 -0.6000
   91ccc    C10 2348   1.584   6.290   7.704  0.0704 -0.0874 -0.1724
   91ccc     O4 2349   1.649   6.242   7.796 -0.6427  0.8050  0.1430
   91ccc     O5 2350   1.633   6.293   7.590  0.0282 -0.4764 -0.0288
   92ccc     N1 2351   0.175   5.884   7.595  0.5592 -0.1841  0.0100
   92ccc     H4 2352   0.222   5.946   7.661  0.5889  0.9797 -1.0745
   92ccc     C3 2353   0.040   5.831   7.626  0.5961 -0.0904 -0.7468
   92ccc     H5 2354  -0.013   5.817   7.531 -0.9436  0.4837  0.0015
   92ccc     C4 2355  -0.035   5.927   7.720 -0.7432 -0.2888  0.1219
   92ccc     H6 2356   0.035   5.730   7.670 -0.7604 -0.3031 -1.3138
   92ccc     H7 2357  -0.123   5.865   7.741  0.0206 -1.3197  0.3213
   92ccc     H8 2358  -0.061   6.013   7.657 -2.7724  0.5021  1.8836
   92ccc     N2 2359   0.039   5.971   7.848  0.2222 -0.4995 -0.0453
   92ccc     C5 2360   0.101   5.857   7.916  0.2369  0.0288  0.0824
   92ccc     C6 2361  -0.043   6.079   7.909 -0.2061 -0.2809 -0.0069
   92ccc     H9 2362  -0.058   6.160   7.836 -1.8755  0.1957  0.8236
   92ccc     C7 2363   0.017   6.144   8.039  0.4453  0.5361 -0.3523
   92ccc    H10 2364  -0.144   6.043   7.931 -0.3103 -0.5374 -0.8493
   92ccc    H11 2365   0.113   6.195   8.021  1.1304  0.2586  2.1812
   92ccc    H12 2366   0.024   6.066   8.116  0.8041 -2.5049 -3.2156
   92ccc     C8 2367  -0.073   6.249   8.110  0.0730 -0.3347  0.3986
   92ccc     O2 2368  -0.080   6.266   8.230  0.0702  0.1587 -0.5857
   92ccc     O3 2369  -0.150   6.316   8.041 -0.7223  0.3684  0.1331
   92ccc    H13 2370   0.160   5.900   7.999  1.0385  0.7579 -0.8414
   92ccc    H14 2371   0.172   5.812   7.846  1.2530  2.2611 -0.4432
   92ccc     C9 2372  -0.000   5.751   7.971  0.5779  0.9176 -0.2439
   92ccc    H15 2373  -0.049   5.686   7.898  0.4141 -0.2273  0.8575
   92ccc    H16 2374  -0.076   5.811   8.024 -2.7379 -2.6517 -0.5881
   92ccc    C10 2375   0.067   5.670   8.085  0.6625  0.3276  0.2499
   92ccc     O4 2376   0.057   5.701   8.200  0.1848 -0.1407 -1.0933
   92ccc     O5 2377   0.128   5.564   8.061  0.2785  0.0543 -0.3921
   93ccc     N1 2378   0.641   6.010   6.949 -0.5026  0.3512  0.1546
   93ccc     H4 2379   0.553   5.960   6.939  0.2250 -1.2455  1.2510
   93ccc     C3 2380   0.681   6.077   6.830  0.0021  0.4470 -0.2112
   93ccc     H5 2381   0.784   6.112   6.839 -0.0192  0.4304  0.1277
   93ccc     C4 2382   0.585   6.194   6.786  0.1400  0.5772 -0.1127
   93ccc     H6 2383   0.688   5.998   6.755 -0.8033 -1.0511  1.2405
   93ccc     H7 2384   0.636   6.265   6.719  1.4240 -0.1926  0.0302
   93ccc     H8 2385   0.549   6.253   6.871 -0.0203 -0.1279  0.3147
   93ccc     N2 2386   0.465   6.129   6.728  0.3315  0.7296 -0.9248
   93ccc     C5 2387   0.352   6.231   6.727  0.1090 -0.7806  0.2954
   93ccc     C6 2388   0.497   6.055   6.599  0.5334 -0.7433  0.4544
   93ccc     H9 2389   0.568   5.975   6.622  0.4206 -0.7363  0.8334
   93ccc     C7 2390   0.534   6.157   6.484  0.1377  1.0930 -0.5632
   93ccc    H10 2391   0.409   5.999   6.564  0.5219 -0.5193  0.1170
   93ccc    H11 2392   0.605   6.233   6.519  1.4522 -0.8478  1.2723
   93ccc    H12 2393   0.446   6.206   6.442 -1.7281  0.0609  1.8993
   93ccc     C8 2394   0.591   6.077   6.361  0.1843 -0.6724 -0.2282
   93ccc     O2 2395   0.708   6.095   6.328 -0.4205 -0.0292  0.0467
   93ccc     O3 2396   0.526   5.995   6.301  0.0818 -0.1116 -0.5375
   93ccc    H13 2397   0.385   6.319   6.672 -0.5547 -0.6409  0.1113
   93ccc    H14 2398   0.331   6.274   6.826  1.5915  4.6352 -1.4065
   93ccc     C9 2399   0.220   6.170   6.661 -0.0731  0.2012 -0.5141
   93ccc    H15 2400   0.192   6.071   6.699 -0.4127 -0.2894 -1.9900
   93ccc    H16 2401   0.234   6.161   6.553 -1.7840  0.7441 -0.8218
   93ccc    C10 2402   0.102   6.262   6.681 -0.1840 -0.2902  0.3135
   93ccc     O4 2403   0.113   6.362   6.618 -0.2966  0.1190  0.3835
   93ccc     O5 2404   0.023   6.254   6.768  0.6115  0.3074 -0.3145
   94ccc     N1 2405   0.248   7.951  10.068  0.1637 -0.6143  0.2153
   94ccc     H4 2406   0.223   7.944   9.970 -3.1754 -1.1753  0.9720
   94ccc     C3 2407   0.183   7.871  10.168 -0.4807  0.4732 -1.0625
   94ccc     H5 2408   0.255   7.808  10.222 -0.3837  1.9886  0.6917
   94ccc     C4 2409   0.067   7.796  10.105  0.3036 -0.1819 -0.7599
   94ccc     H6 2410   0.144   7.937  10.247 -0.0723  2.0300 -2.1158
   94ccc     H7 2411  -0.011   7.868  10.079 -0.3112  0.1375  1.7355
   94ccc     H8 2412   0.020   7.732  10.181 -2.0899  2.8640  0.5502
   94ccc     N2 2413   0.104   7.705   9.991 -0.5771 -0.3119 -0.4506
   94ccc     C5 2414  -0.008   7.643   9.918 -0.5060 -0.0186  0.9092
   94ccc     C6 2415   0.214   7.608  10.015  0.5906 -0.5453 -0.2924
   94ccc     H9 2416   0.231   7.549   9.924 -0.8779 -1.2275 -0.1523
   94ccc     C7 2417   0.209   7.524  10.147  0.1559 -0.1994 -0.4025
   94ccc    H10 2418   0.299   7.675  10.028 -0.0127  0.5098 -1.5202
   94ccc    H11 2419   0.140   7.440  10.134  1.8092 -1.4928 -1.2014
   94ccc    H12 2420   0.178   7.579  10.237 -0.3625 -0.7252 -0.2534
   94ccc     C8 2421   0.351   7.468  10.176  0.0166  0.1540 -0.7535
   94ccc     O2 2422   0.374   7.402  10.277 -0.3620 -0.1303 -0.3996
   94ccc     O3 2423   0.441   7.486  10.095  0.1001 -0.1843 -0.1516
   94ccc    H13 2424  -0.060   7.572   9.984  0.2067 -0.9135  0.5280
   94ccc    H14 2425   0.031   7.597   9.827  0.8424  0.4714  1.2200
   94ccc     C9 2426  -0.107   7.753   9.866  0.9912 -0.0999 -0.2303
   94ccc    H15 2427  -0.052   7.819   9.799  3.3227  0.9261  2.4943
   94ccc    H16 2428  -0.157   7.813   9.943 -1.7207  0.7164 -2.4481
   94ccc    C10 2429  -0.215   7.685   9.782  0.2708 -0.0231  0.4991
   94ccc     O4 2430  -0.302   7.603   9.822 -0.1934 -0.5668  0.3686
   94ccc     O5 2431  -0.225   7.700   9.659  0.0461 -0.3126  0.5183
   95ccc     N1 2432   0.340   8.312   9.529  0.7886 -0.0878 -0.0481
   95ccc     H4 2433   0.428   8.323   9.480  0.6929 -2.8130 -1.0158
   95ccc     C3 2434   0.237   8.230   9.457 -0.6908 -0.5505 -0.7464
   95ccc     H5 2435   0.198   8.162   9.533  0.2028  0.2531  0.4731
   95ccc     C4 2436   0.299   8.168   9.324 -0.6453 -1.2479  0.0284
   95ccc     H6 2437   0.149   8.295   9.447 -0.2016  0.2386 -0.0026
   95ccc     H7 2438   0.385   8.101   9.336  0.5350  0.0943 -0.5996
   95ccc     H8 2439   0.326   8.259   9.269  0.3165 -0.6423  1.4217
   95ccc     N2 2440   0.199   8.100   9.243  0.5087  0.1548  0.2809
   95ccc     C5 2441   0.235   8.093   9.097 -0.3213 -0.1020 -0.5840
   95ccc     C6 2442   0.161   7.972   9.303  0.0646 -0.1416  0.2822
   95ccc     H9 2443   0.248   7.906   9.300  0.3788  0.2949 -1.0002
   95ccc     C7 2444   0.051   7.902   9.222  0.1564 -0.3837  0.4443
   95ccc    H10 2445   0.113   7.983   9.401 -0.8686  1.0948 -0.2852
   95ccc    H11 2446   0.096   7.841   9.143  0.7914 -1.4474  1.5882
   95ccc    H12 2447  -0.024   7.967   9.175  1.1106  1.5783  1.5175
   95ccc     C8 2448  -0.030   7.804   9.318 -0.2406 -0.8349  0.4445
   95ccc     O2 2449   0.024   7.698   9.348 -0.4285  0.1454 -0.2603
   95ccc     O3 2450  -0.144   7.821   9.359  0.0942 -0.4340 -0.2318
   95ccc    H13 2451   0.262   8.196   9.073 -2.8868  0.5077 -1.2203
   95ccc    H14 2452   0.150   8.067   9.032 -3.6138  0.7928  2.9356
   95ccc     C9 2453   0.361   8.005   9.062 -0.4113 -0.0966  1.1286
   95ccc    H15 2454   0.341   7.900   9.086 -2.3533 -0.3987 -1.3739
   95ccc    H16 2455   0.446   8.028   9.128  0.9018 -2.1317  0.2403
   95ccc    C10 2456   0.393   8.037   8.912 -0.7173  0.3266 -0.2873
   95ccc     O4 2457   0.302   8.041   8.831 -0.2422  0.7669  0.2642
   95ccc     O5 2458   0.503   8.070   8.879  0.2379 -0.0730 -0.0846
   96ccc     N1 2459   0.311   6.735   9.511 -0.1244  0.2706 -0.5642
   96ccc     H4 2460   0.312   6.791   9.595 -0.6566 -0.3283 -0.1592
   96ccc     C3 2461   0.323   6.588   9.508 -0.3972  0.3163 -0.7731
   96ccc     H5 2462   0.262   6.538   9.431 -0.0756 -3.9291  1.4237
   96ccc     C4 2463   0.269   6.536   9.640 -0.0711 -0.0509  0.4287
   96ccc     H6 2464   0.429   6.559   9.509 -0.1376  1.2535  0.6980
   96ccc     H7 2465   0.160   6.541   9.633  0.0204 -0.4861 -2.2773
   96ccc     H8 2466   0.310   6.589   9.727  0.1883  0.2806  0.1061
   96ccc     N2 2467   0.290   6.398   9.656  0.3691 -0.3105  0.0222
   96ccc     C5 2468   0.232   6.313   9.541 -1.0091  0.0130 -0.3043
   96ccc     C6 2469   0.248   6.347   9.791 -0.8591 -0.9682 -0.8057
   96ccc     H9 2470   0.303   6.253   9.810  1.2860  0.3753 -0.0198
   96ccc     C7 2471   0.108   6.330   9.830  0.6551  0.0367 -0.0774
   96ccc    H10 2472   0.295   6.404   9.872 -0.6526 -2.2249 -0.0095
   96ccc    H11 2473   0.116   6.281   9.928 -2.9791 -1.1052 -0.2230
   96ccc    H12 2474   0.047   6.274   9.758  0.0966  0.6682 -0.1089
   96ccc     C8 2475   0.043   6.462   9.862  0.8152  0.1649 -0.0319
   96ccc     O2 2476  -0.029   6.516   9.775 -0.4029 -0.1397 -0.3344
   96ccc     O3 2477   0.033   6.514   9.972  0.0185  0.2693 -0.3609
   96ccc    H13 2478   0.290   6.340   9.452 -1.1605 -0.9947 -0.7198
   96ccc    H14 2479   0.132   6.333   9.499 -0.6106  2.8350 -0.1450
   96ccc     C9 2480   0.256   6.165   9.557  0.6993 -0.0526  0.4240
   96ccc    H15 2481   0.194   6.128   9.639  0.4612  0.2349  0.3765
   96ccc    H16 2482   0.362   6.154   9.583  0.6652 -1.1735  0.1475
   96ccc    C10 2483   0.218   6.077   9.437 -0.0867  0.2693 -0.4197
   96ccc     O4 2484   0.252   5.959   9.436  0.0670  0.1623  0.3279
   96ccc     O5 2485   0.162   6.111   9.337  0.3694  0.1905  0.3443
   97ccc     N1 2486   0.341   7.142   9.866 -0.2544  0.0556  0.1640
   97ccc     H4 2487   0.317   7.054   9.822  2.0070 -1.0484  1.0140
   97ccc     C3 2488   0.228   7.221   9.915 -0.2729 -0.3212  0.4494
   97ccc     H5 2489   0.226   7.244  10.022 -4.0207 -2.0251  0.9275
   97ccc     C4 2490   0.102   7.143   9.886 -0.1452  0.5970 -0.1033
   97ccc     H6 2491   0.222   7.318   9.865  0.0925  0.0927  1.1985
   97ccc     H7 2492   0.022   7.208   9.922 -0.0790 -0.3711  1.9710
   97ccc     H8 2493   0.102   7.064   9.963  0.8901  0.8465  0.1708
   97ccc     N2 2494   0.086   7.094   9.747 -0.7696 -0.3301  0.5408
   97ccc     C5 2495   0.108   7.199   9.642 -0.2916  0.4049  0.0393
   97ccc     C6 2496  -0.048   7.028   9.725 -0.1475  0.6631  0.0148
   97ccc     H9 2497  -0.131   7.099   9.728 -1.9655 -1.3625  2.8794
   97ccc     C7 2498  -0.077   6.916   9.830  0.0686 -0.1367  0.1692
   97ccc    H10 2499  -0.051   6.983   9.625 -0.9368  0.3091  0.1909
   97ccc    H11 2500  -0.085   6.959   9.930  1.3518 -0.1762  0.3108
   97ccc    H12 2501   0.006   6.844   9.839  1.6421  1.6349  0.4522
   97ccc     C8 2502  -0.214   6.851   9.801 -0.5870 -0.0663  0.5423
   97ccc     O2 2503  -0.229   6.732   9.789  0.5578 -1.4645 -0.1439
   97ccc     O3 2504  -0.313   6.916   9.807  0.5493  0.2696 -0.2682
   97ccc    H13 2505   0.106   7.153   9.542  0.7560  1.1584 -0.3379
   97ccc    H14 2506   0.209   7.233   9.665 -1.1578  1.9101  1.9334
   97ccc     C9 2507   0.011   7.320   9.646  0.8798 -0.8557  0.6559
   97ccc    H15 2508   0.032   7.369   9.742  1.4011  1.8980 -0.7677
   97ccc    H16 2509  -0.091   7.278   9.638  1.0799 -1.1150 -0.7687
   97ccc    C10 2510   0.042   7.429   9.542  0.8638 -0.2397 -0.2225
   97ccc     O4 2511   0.035   7.545   9.580  0.6147  0.1803 -0.4648
   97ccc     O5 2512   0.114   7.402   9.442  0.3193 -0.1978 -0.4686
   98ccc     N1 2513   0.497   7.695   7.347  0.3217  0.3048  0.8049
   98ccc     H4 2514   0.402   7.682   7.315  1.0428  1.4162 -2.1455
   98ccc     C3 2515   0.554   7.808   7.284  0.1917 -0.1649  0.6807
   98ccc     H5 2516   0.510   7.902   7.318  1.7393  0.7452  0.2691
   98ccc     C4 2517   0.529   7.809   7.133  0.3628  0.2698  0.2699
   98ccc     H6 2518   0.662   7.815   7.303  0.0892  2.1059  0.6933
   98ccc     H7 2519   0.420   7.810   7.123  0.3172 -0.0106  0.7057
   98ccc     H8 2520   0.571   7.719   7.087 -1.2620  0.2665 -1.3049
   98ccc     N2 2521   0.585   7.926   7.064 -0.0924 -0.2034  0.8011
   98ccc     C5 2522   0.732   7.938   7.068 -0.3955 -0.2791  0.5293
   98ccc     C6 2523   0.543   7.942   6.924  0.6034  0.2670 -0.7086
   98ccc     H9 2524   0.591   8.034   6.890  1.6096 -0.1288 -0.4069
   98ccc     C7 2525   0.392   7.959   6.910  0.4737  0.1823  0.1543
   98ccc    H10 2526   0.571   7.855   6.863  1.8650 -0.8431  1.3264
   98ccc    H11 2527   0.350   8.015   6.995  0.6811  0.3728  0.1317
   98ccc    H12 2528   0.334   7.866   6.913 -1.2529  1.2160  0.3388
   98ccc     C8 2529   0.354   8.036   6.779 -0.6407 -0.3856  0.4636
   98ccc     O2 2530   0.335   7.972   6.675  0.1180 -0.3715  0.7847
   98ccc     O3 2531   0.354   8.154   6.778 -0.4941 -0.2891  0.2015
   98ccc    H13 2532   0.766   7.961   7.170 -0.3622  2.1504  0.0283
   98ccc    H14 2533   0.753   8.033   7.017 -0.6767 -0.9490 -0.8810
   98ccc     C9 2534   0.819   7.819   7.000  0.1861  0.7066 -0.2018
   98ccc    H15 2535   0.810   7.808   6.891  4.8047 -0.4804 -0.6448
   98ccc    H16 2536   0.789   7.725   7.048 -2.1609  1.1969 -0.5810
   98ccc    C10 2537   0.974   7.829   7.016 -0.1775  0.5571 -0.0955
   98ccc     O4 2538   1.050   7.763   7.090  0.5520 -0.3612  0.3666
   98ccc     O5 2539   1.035   7.901   6.935 -0.2983 -0.3064 -0.0218
   99ccc     N1 2540   0.638   6.852   7.370 -0.2019  0.7184 -0.1608
   99ccc     H4 2541   0.614   6.826   7.465 -0.1867 -0.3389 -0.4346
   99ccc     C3 2542   0.676   6.748   7.280  0.1685  0.0835 -0.6198
   99ccc     H5 2543   0.778   6.772   7.246  1.1278 -0.5266  1.6089
   99ccc     C4 2544   0.580   6.728   7.158  0.2845  1.1957 -0.3017
   99ccc     H6 2545   0.698   6.656   7.336  0.7383  1.4137  1.4494
   99ccc     H7 2546   0.597   6.798   7.075  1.6275  0.8443 -0.3372
   99ccc     H8 2547   0.476   6.727   7.194  0.5284  0.8828  0.4060
   99ccc     N2 2548   0.605   6.595   7.097 -0.4472 -0.1220  0.7598
   99ccc     C5 2549   0.513   6.582   6.977  0.9468  0.9628 -0.2538
   99ccc     C6 2550   0.747   6.578   7.065 -0.0523  0.5285  0.2229
   99ccc     H9 2551   0.786   6.650   6.992  1.5824 -1.2065 -0.7250
   99ccc     C7 2552   0.778   6.439   7.006 -0.7166  0.4967 -0.3181
   99ccc    H10 2553   0.813   6.580   7.152 -0.5751  1.0007  0.6114
   99ccc    H11 2554   0.740   6.408   6.907  2.8655 -0.1741 -1.6465
   99ccc    H12 2555   0.742   6.357   7.070  0.6540  0.4910  0.4851
   99ccc     C8 2556   0.931   6.411   6.987 -0.4579 -0.1425 -0.8936
   99ccc     O2 2557   1.009   6.503   6.984  0.3162  0.2176 -0.0324
   99ccc     O3 2558   0.979   6.297   6.987 -0.1428 -0.4773 -1.0921
   99ccc    H13 2559   0.516   6.479   6.939  1.7144  0.2594  1.5613
   99ccc    H14 2560   0.548   6.646   6.895  0.6572 -0.2692 -1.3685
   99ccc     C9 2561   0.367   6.611   7.005 -0.7255 -0.2986  0.0561
   99ccc    H15 2562   0.349   6.712   7.043  0.9083  0.8167 -1.9081
   99ccc    H16 2563   0.328   6.543   7.081  0.4057  0.4951  1.3847
   99ccc    C10 2564   0.285   6.595   6.873  0.0710 -0.3558 -0.2628
   99ccc     O4 2565   0.312   6.656   6.774 -0.2606 -0.1540  0.5148
   99ccc     O5 2566   0.189   6.517   6.878 -0.1714 -0.5580 -0.5424
  100ccc     N1 2567   0.991   7.965   7.718  0.1188  0.3620  0.5306
  100ccc     H4 2568   0.963   7.989   7.812  0.3572 -1.1459  1.0231
  100ccc     C3 2569   1.129   7.908   7.699  0.6316  0.3221 -0.3578
  100ccc     H5 2570   1.133   7.811   7.751  0.9206  1.1873  1.2780
  100ccc     C4 2571   1.242   7.997   7.747 -0.1704 -0.0852  0.2839
  100ccc     H6 2572   1.141   7.876   7.595  0.3021 -1.6594  0.1583
  100ccc     H7 2573   1.338   7.950   7.724 -0.6105 -0.7966 -0.1141
  100ccc     H8 2574   1.243   8.009   7.856 -0.7826 -0.8353  0.3778
  100ccc     N2 2575   1.247   8.130   7.681 -0.0467 -0.1121  0.1233
  100ccc     C5 2576   1.172   8.238   7.745 -0.0221  0.0639  0.4199
  100ccc     C6 2577   1.385   8.166   7.643  0.3706 -0.3219  0.1665
  100ccc     H9 2578   1.404   8.273   7.651 -0.2402 -0.2856  1.3496
  100ccc     C7 2579   1.418   8.121   7.497  0.0006  1.2213  0.0289
  100ccc    H10 2580   1.459   8.115   7.706  1.5301  0.2966 -0.6644
  100ccc    H11 2581   1.371   8.193   7.429 -1.0887  1.3816  0.9149
  100ccc    H12 2582   1.378   8.020   7.485  0.1907  1.1646 -0.1149
  100ccc     C8 2583   1.566   8.118   7.473  0.1003 -0.0398 -0.1178
  100ccc     O2 2584   1.605   8.154   7.363 -0.2985  0.3519 -0.5421
  100ccc     O3 2585   1.650   8.074   7.550  0.1402  0.8024 -0.2054
  100ccc    H13 2586   1.237   8.302   7.806  0.6208  0.9697 -1.1697
  100ccc    H14 2587   1.102   8.190   7.815  0.1309 -1.8045 -0.6411
  100ccc     C9 2588   1.093   8.324   7.641 -0.1271  0.2211 -0.0931
  100ccc    H15 2589   1.005   8.276   7.598 -1.5488  1.8917  0.7816
  100ccc    H16 2590   1.159   8.346   7.557 -2.2124  0.4805 -1.7391
  100ccc    C10 2591   1.047   8.458   7.711  1.0195 -0.3609 -0.6677
  100ccc     O4 2592   1.115   8.562   7.711 -0.3136 -0.4542  0.6499
  100ccc     O5 2593   0.954   8.461   7.788  0.0624 -0.1601 -0.5047
  101ccc     N1 2594   0.353   8.121   7.897 -0.5955  0.0809 -0.7340
  101ccc     H4 2595   0.303   8.034   7.910 -0.0275 -0.0824  0.4979
  101ccc     C3 2596   0.376   8.205   8.021 -0.1404  0.0634 -0.1674
  101ccc     H5 2597   0.406   8.307   7.993  1.0571 -0.1865  0.1475
  101ccc     C4 2598   0.479   8.145   8.118 -0.8528 -0.4368  0.1140
  101ccc     H6 2599   0.283   8.204   8.080  1.1074 -0.4842  1.8975
  101ccc     H7 2600   0.574   8.119   8.070  0.8894  1.6871  2.1146
  101ccc     H8 2601   0.428   8.051   8.143  0.1718 -1.2188 -0.6527
  101ccc     N2 2602   0.503   8.234   8.230  0.4993  0.5202 -0.3824
  101ccc     C5 2603   0.606   8.340   8.220  0.1383 -1.3088 -0.8065
  101ccc     C6 2604   0.392   8.252   8.322  0.4929  0.2019 -0.0276
  101ccc     H9 2605   0.327   8.326   8.274  0.7335  0.2733 -0.2463
  101ccc     C7 2606   0.420   8.296   8.467  0.1296  0.3515  0.1586
  101ccc    H10 2607   0.347   8.153   8.323 -0.4052  0.6088  0.7688
  101ccc    H11 2608   0.321   8.301   8.514 -0.9753  1.7878 -2.1829
  101ccc    H12 2609   0.468   8.393   8.482  1.8892 -0.4004 -0.3573
  101ccc     C8 2610   0.493   8.182   8.542 -0.4508 -0.1543  0.2018
  101ccc     O2 2611   0.597   8.204   8.605 -0.3523 -0.2652  0.3857
  101ccc     O3 2612   0.438   8.074   8.558  0.1242  0.1197 -0.0842
  101ccc    H13 2613   0.676   8.314   8.140  0.5674 -0.7844 -0.6048
  101ccc    H14 2614   0.660   8.360   8.313  1.2348  1.6903 -1.9546
  101ccc     C9 2615   0.541   8.480   8.184 -1.0225  0.3785  0.8339
  101ccc    H15 2616   0.489   8.517   8.273  1.1490  1.8776  1.5720
  101ccc    H16 2617   0.473   8.468   8.099 -0.2707  1.7132  0.0006
  101ccc    C10 2618   0.658   8.578   8.145  0.1718 -0.3489  0.0592
  101ccc     O4 2619   0.662   8.684   8.202  0.9123  0.0578 -0.5873
  101ccc     O5 2620   0.744   8.546   8.065  0.2142 -0.5281  0.4286
  102ccc     N1 2621   2.988   5.055   9.255 -0.5007  0.3970 -0.6925
  102ccc     H4 2622   2.974   5.117   9.176  1.9759  3.3470  0.9632
  102ccc     C3 2623   3.122   5.048   9.321 -0.0206 -0.4611 -0.7217
  102ccc     H5 2624   3.109   4.980   9.406  0.8746 -1.3027 -1.2313
  102ccc     C4 2625   3.179   5.189   9.360 -0.6301  0.5783 -1.1352
  102ccc     H6 2626   3.194   4.997   9.256  0.2636  0.1542 -0.9072
  102ccc     H7 2627   3.090   5.253   9.367 -1.6003 -0.7934 -0.2834
  102ccc     H8 2628   3.239   5.236   9.281  1.7960 -3.1609 -1.7672
  102ccc     N2 2629   3.252   5.185   9.487 -0.0415 -0.1198 -0.4638
  102ccc     C5 2630   3.171   5.156   9.607 -0.5158  0.5454  0.6421
  102ccc     C6 2631   3.380   5.108   9.471 -0.0369  0.0680  0.7431
  102ccc     H9 2632   3.447   5.119   9.557  0.0613  0.9169  0.5648
  102ccc     C7 2633   3.479   5.136   9.358 -0.0203  0.4694 -0.9539
  102ccc    H10 2634   3.356   5.001   9.465  2.4862 -0.7822  3.2116
  102ccc    H11 2635   3.476   5.246   9.367 -1.6481  0.3097  1.4581
  102ccc    H12 2636   3.434   5.103   9.264 -0.2115  0.6673 -0.9322
  102ccc     C8 2637   3.617   5.080   9.386  0.5101  0.6102  0.7031
  102ccc     O2 2638   3.700   5.143   9.453 -0.3657  0.1091 -0.1635
  102ccc     O3 2639   3.645   4.961   9.364 -0.2741 -0.3725 -0.4127
  102ccc    H13 2640   3.243   5.189   9.683  2.7509 -0.8740 -1.5800
  102ccc    H14 2641   3.147   5.049   9.618 -0.2309  0.3637 -0.4146
  102ccc     C9 2642   3.046   5.239   9.608 -0.1328 -0.0605  0.5910
  102ccc    H15 2643   2.975   5.196   9.536 -1.7124  1.7715  0.9664
  102ccc    H16 2644   3.069   5.343   9.581  1.1188 -0.8261 -1.6363
  102ccc    C10 2645   2.966   5.238   9.738 -0.1454  0.3474 -0.0843
  102ccc     O4 2646   2.976   5.142   9.813  0.2390 -0.1013 -0.1637
  102ccc     O5 2647   2.935   5.344   9.787 -0.2323 -0.5035 -0.1763
  103ccc     N1 2648   2.502   5.360   9.857  0.1499  0.2276  0.0713
  103ccc     H4 2649   2.586   5.418   9.860  2.0466 -2.3426 -0.1411
  103ccc     C3 2650   2.395   5.403   9.951  0.6276 -0.0685  0.3302
  103ccc     H5 2651   2.326   5.463   9.891  0.2761 -2.1720 -1.4729
  103ccc     C4 2652   2.460   5.488  10.063 -0.7770  0.5804 -0.5604
  103ccc     H6 2653   2.338   5.323   9.999 -1.7519  1.5352  0.3447
  103ccc     H7 2654   2.380   5.537  10.119 -0.5614 -0.8995  1.1418
  103ccc     H8 2655   2.522   5.562  10.010  0.8750  0.3648  0.9897
  103ccc     N2 2656   2.557   5.416  10.152  0.4124  0.2494  0.3728
  103ccc     C5 2657   2.581   5.500  10.270 -0.5612  0.9574  0.7994
  103ccc     C6 2658   2.677   5.352  10.101 -0.4301  0.1792  0.4838
  103ccc     H9 2659   2.656   5.281  10.020 -3.4731  0.6425  0.7484
  103ccc     C7 2660   2.767   5.272  10.199 -0.3118  0.3569 -0.7352
  103ccc    H10 2661   2.738   5.432  10.059 -0.7745  0.2144  0.0438
  103ccc    H11 2662   2.713   5.198  10.260  1.5892 -0.4077  0.1037
  103ccc    H12 2663   2.807   5.335  10.279 -1.4721 -0.6488  0.6959
  103ccc     C8 2664   2.886   5.221  10.124 -0.0710 -1.4119 -0.3312
  103ccc     O2 2665   2.890   5.108  10.082  0.0424 -0.0675  0.6792
  103ccc     O3 2666   2.995   5.284  10.123 -0.3522  0.4867 -0.3005
  103ccc    H13 2667   2.624   5.444  10.354  1.1421  0.7016 -0.1858
  103ccc    H14 2668   2.482   5.534  10.303 -1.7458 -1.1792 -0.3750
  103ccc     C9 2669   2.676   5.621  10.260  0.7317  0.7990 -0.5136
  103ccc    H15 2670   2.650   5.680  10.171  1.1312 -0.9929 -1.9031
  103ccc    H16 2671   2.779   5.587  10.244  0.7829  0.0061  1.3311
  103ccc    C10 2672   2.674   5.706  10.384 -0.4935  0.0125  0.3559
  103ccc     O4 2673   2.730   5.670  10.484 -0.5024  0.2588 -0.1612
  103ccc     O5 2674   2.603   5.804  10.386  0.3927 -0.6634 -0.2733
  104ccc     N1 2675   2.368   5.842   8.176 -0.0977  0.3526 -0.3825
  104ccc     H4 2676   2.453   5.869   8.128  0.6957 -2.5649 -0.8435
  104ccc     C3 2677   2.376   5.710   8.244  0.2046  0.3311  0.6546
  104ccc     H5 2678   2.364   5.735   8.350 -2.5991  0.1235  0.4761
  104ccc     C4 2679   2.503   5.628   8.222 -0.5009 -0.2097  0.4221
  104ccc     H6 2680   2.287   5.650   8.220 -0.9367  1.3128  2.2020
  104ccc     H7 2681   2.502   5.530   8.271  0.5677 -1.0374 -1.0973
  104ccc     H8 2682   2.590   5.681   8.263  0.8662 -1.0791 -1.2162
  104ccc     N2 2683   2.538   5.602   8.080  0.5155  0.3776  0.3249
  104ccc     C5 2684   2.670   5.533   8.064 -0.0061  0.3372  0.1069
  104ccc     C6 2685   2.422   5.531   8.008  1.2031 -0.6602 -0.0460
  104ccc     H9 2686   2.334   5.595   8.016  1.8569  0.0431  2.5057
  104ccc     C7 2687   2.395   5.382   8.058  0.8408 -0.3944 -0.0006
  104ccc    H10 2688   2.439   5.519   7.900 -0.4504 -3.9992 -0.0767
  104ccc    H11 2689   2.400   5.382   8.168 -0.5149  0.1532  0.0778
  104ccc    H12 2690   2.462   5.308   8.013 -0.9542 -2.4076  0.4723
  104ccc     C8 2691   2.250   5.352   8.016 -0.2118 -0.0613 -0.8598
  104ccc     O2 2692   2.156   5.394   8.086  0.2492 -0.1965 -0.1000
  104ccc     O3 2693   2.224   5.258   7.944 -0.4098  0.6653 -0.5649
  104ccc    H13 2694   2.662   5.440   8.123 -0.4768  0.4546  0.2342
  104ccc    H14 2695   2.745   5.592   8.117  0.0273 -1.0825  1.7401
  104ccc     C9 2696   2.732   5.509   7.919  0.2666 -0.1162 -0.7736
  104ccc    H15 2697   2.739   5.598   7.856 -1.5465  0.9501  0.4131
  104ccc    H16 2698   2.666   5.443   7.861  0.4452 -1.3490  0.3521
  104ccc    C10 2699   2.876   5.456   7.941  0.6401  0.0337  0.3066
  104ccc     O4 2700   2.913   5.350   7.901 -0.2980 -0.2031  0.5682
  104ccc     O5 2701   2.950   5.525   8.002  0.4993  0.3371  0.3203
  105ccc     N1 2702   2.841   6.145   8.341  0.2988  0.0581  0.2448
  105ccc     H4 2703   2.832   6.045   8.356 -1.6082  0.3890  1.6004
  105ccc     C3 2704   2.943   6.203   8.249  0.7933 -0.6628 -0.6510
  105ccc     H5 2705   2.934   6.167   8.146  0.4450 -1.0627 -0.4845
  105ccc     C4 2706   3.084   6.182   8.303  0.1789 -0.2179 -0.0336
  105ccc     H6 2707   2.931   6.312   8.244 -2.6449 -0.7083  2.5378
  105ccc     H7 2708   3.092   6.084   8.353  2.4792  1.7273  3.8879
  105ccc     H8 2709   3.098   6.261   8.378 -0.0714 -1.2284  1.1123
  105ccc     N2 2710   3.186   6.198   8.196  0.0364 -0.5731 -0.0361
  105ccc     C5 2711   3.323   6.245   8.238  0.5242 -0.3210  0.1196
  105ccc     C6 2712   3.198   6.084   8.107 -0.1899 -0.4103  0.6704
  105ccc     H9 2713   3.101   6.044   8.076 -0.2034  0.6170 -0.7051
  105ccc     C7 2714   3.275   5.964   8.163 -0.4759  0.4246 -0.1164
  105ccc    H10 2715   3.226   6.119   8.007 -0.0072 -0.9772  0.5225
  105ccc    H11 2716   3.286   5.953   8.272  0.2236 -2.2749 -0.3853
  105ccc    H12 2717   3.378   5.972   8.125 -0.1027 -2.7903 -0.0685
  105ccc     C8 2718   3.211   5.828   8.118 -0.0287  0.0638  0.0556
  105ccc     O2 2719   3.131   5.758   8.175 -0.1951  0.0564 -0.5902
  105ccc     O3 2720   3.241   5.804   8.005 -0.2131 -0.4325 -0.3682
  105ccc    H13 2721   3.380   6.266   8.146 -0.7963  2.2841 -0.2050
  105ccc    H14 2722   3.376   6.172   8.301 -2.9840 -1.2073  2.3136
  105ccc     C9 2723   3.324   6.372   8.313  0.5264 -0.2575  0.7752
  105ccc    H15 2724   3.258   6.368   8.400 -1.1746  1.0379 -0.3897
  105ccc    H16 2725   3.280   6.449   8.249  0.8234  0.0781  0.9766
  105ccc    C10 2726   3.467   6.416   8.346 -0.1793  0.1014 -0.0826
  105ccc     O4 2727   3.512   6.516   8.297 -0.4802  0.6116  0.2315
  105ccc     O5 2728   3.544   6.347   8.413  0.4345 -0.3245  0.4249
  106ccc     N1 2729   0.745   6.775   9.649  0.2828  0.8279  0.2611
  106ccc     H4 2730   0.740   6.867   9.691  1.1592  0.1561  1.9692
  106ccc     C3 2731   0.669   6.657   9.707 -0.4708 -0.0522  0.4481
  106ccc     H5 2732   0.601   6.607   9.637  0.2761 -3.4957  1.9796
  106ccc     C4 2733   0.582   6.703   9.826  0.4546  0.1986  0.4677
  106ccc     H6 2734   0.733   6.575   9.741  0.8117  0.6804 -0.1203
  106ccc     H7 2735   0.538   6.609   9.861 -0.9790 -0.0173 -1.7158
  106ccc     H8 2736   0.497   6.760   9.788  1.5257  2.6810  1.6063
  106ccc     N2 2737   0.650   6.790   9.929 -0.2367  0.9266  0.2355
  106ccc     C5 2738   0.777   6.736   9.973  0.8676 -1.0206  0.2056
  106ccc     C6 2739   0.556   6.861  10.016  0.4938  0.7533  0.1224
  106ccc     H9 2740   0.471   6.885   9.950  1.3310 -0.9609 -1.6783
  106ccc     C7 2741   0.617   6.983  10.086  0.0002 -0.8070 -0.0993
  106ccc    H10 2742   0.519   6.795  10.094  1.1869  0.0736 -0.1140
  106ccc    H11 2743   0.651   7.054  10.010  0.5128 -1.7396 -0.7770
  106ccc    H12 2744   0.708   6.965  10.145  0.5717  1.2466 -0.2839
  106ccc     C8 2745   0.511   7.069  10.158 -0.1909 -0.2827  0.1699
  106ccc     O2 2746   0.400   7.023  10.198 -0.4489  0.1197 -0.5094
  106ccc     O3 2747   0.540   7.181  10.201  0.0193  0.3887  0.0371
  106ccc    H13 2748   0.817   6.809  10.044 -2.7916 -1.2441  2.7871
  106ccc    H14 2749   0.846   6.719   9.889 -0.2541 -2.2374 -0.5072
  106ccc     C9 2750   0.769   6.600  10.048  0.3060 -0.2787 -0.1440
  106ccc    H15 2751   0.722   6.516   9.995 -0.1193 -1.1928  1.6306
  106ccc    H16 2752   0.707   6.612  10.137 -0.4354  0.6766 -0.7635
  106ccc    C10 2753   0.915   6.553  10.076  0.3085  0.2080 -0.1401
  106ccc     O4 2754   0.972   6.466  10.000 -0.3075 -0.5809 -0.4015
  106ccc     O5 2755   0.992   6.615  10.145 -0.7239 -0.3035 -0.4539
  107ccc     N1 2756   0.776   7.242   9.139  0.4625 -0.5765 -0.4093
  107ccc     H4 2757   0.723   7.157   9.124 -2.3253  1.0663 -0.5040
  107ccc     C3 2758   0.704   7.373   9.141 -0.3053  0.7359  0.1990
  107ccc     H5 2759   0.618   7.356   9.208 -0.2387 -2.5693 -0.3508
  107ccc     C4 2760   0.648   7.419   9.003 -0.3868 -0.4095 -0.1811
  107ccc     H6 2761   0.760   7.446   9.201  1.3947 -1.1539  1.0301
  107ccc     H7 2762   0.584   7.338   8.964 -1.5936 -0.0194  0.8999
  107ccc     H8 2763   0.733   7.421   8.933 -0.5188 -0.8185 -0.3589
  107ccc     N2 2764   0.565   7.547   8.988  0.0554  0.0071  0.0737
  107ccc     C5 2765   0.530   7.586   8.845 -0.2921 -0.3869  0.1400
  107ccc     C6 2766   0.440   7.541   9.071  0.1753  0.1361  0.0400
  107ccc     H9 2767   0.449   7.520   9.178 -1.7875 -1.2822 -0.0197
  107ccc     C7 2768   0.327   7.431   9.028 -0.8032 -0.3019  0.8975
  107ccc    H10 2769   0.388   7.638   9.068 -0.1035 -0.0168 -0.0973
  107ccc    H11 2770   0.360   7.327   9.040  0.8692  0.3239  1.9115
  107ccc    H12 2771   0.292   7.449   8.926 -3.2211  0.3800  1.7817
  107ccc     C8 2772   0.207   7.447   9.117  1.3813  0.4097  0.4249
  107ccc     O2 2773   0.097   7.394   9.094  0.2985  0.4558  0.2050
  107ccc     O3 2774   0.202   7.541   9.201 -0.0159  0.5244  0.3318
  107ccc    H13 2775   0.464   7.507   8.808  0.3064 -0.7019 -0.2882
  107ccc    H14 2776   0.620   7.583   8.783 -0.2865  0.6692  0.0938
  107ccc     C9 2777   0.475   7.735   8.828 -0.3925 -0.3029 -0.1516
  107ccc    H15 2778   0.539   7.804   8.885  0.7085 -1.5138  0.1398
  107ccc    H16 2779   0.375   7.736   8.874 -0.6579 -1.2318 -0.6726
  107ccc    C10 2780   0.475   7.794   8.689  0.2178  0.3014  0.3179
  107ccc     O4 2781   0.374   7.826   8.631  0.2383 -0.0399 -0.1343
  107ccc     O5 2782   0.578   7.840   8.633 -0.3595 -0.0654  0.3233
  108ccc     N1 2783   1.568   7.225  10.250  0.0580 -0.0793 -0.5591
  108ccc     H4 2784   1.522   7.149  10.201 -1.1247 -0.0995  0.5180
  108ccc     C3 2785   1.610   7.201  10.389  0.5095 -0.0869 -0.8042
  108ccc     H5 2786   1.719   7.190  10.395  0.5878  0.4434 -1.1835
  108ccc     C4 2787   1.537   7.072  10.442 -0.5766  0.3243  0.5539
  108ccc     H6 2788   1.582   7.283  10.456  2.2977 -0.4405  0.4536
  108ccc     H7 2789   1.433   7.101  10.459 -1.0096 -1.0962  0.4517
  108ccc     H8 2790   1.580   7.050  10.541 -0.9496  2.1268  1.1507
  108ccc     N2 2791   1.554   6.957  10.342  0.0669  0.0584  0.4144
  108ccc     C5 2792   1.476   6.837  10.379  0.0649  0.5654  0.1736
  108ccc     C6 2793   1.698   6.937  10.304  0.9133  0.2701 -0.4651
  108ccc     H9 2794   1.697   6.892  10.204  0.7031  1.3402 -0.9606
  108ccc     C7 2795   1.789   6.853  10.402 -0.1137  0.4323 -0.3629
  108ccc    H10 2796   1.738   7.035  10.276 -0.1339  0.9593  0.3428
  108ccc    H11 2797   1.735   6.762  10.432  0.1518 -0.1537 -1.5870
  108ccc    H12 2798   1.802   6.907  10.496  0.0016 -1.0009  0.4714
  108ccc     C8 2799   1.925   6.806  10.350 -0.1617  0.5684  0.9592
  108ccc     O2 2800   2.021   6.882  10.341 -0.3077 -0.2374  0.1903
  108ccc     O3 2801   1.959   6.691  10.325 -0.0909 -0.3746 -0.2273
  108ccc    H13 2802   1.377   6.877  10.404  0.6101  1.2464  1.2982
  108ccc    H14 2803   1.509   6.783  10.469  0.3107  0.7940  0.2184
  108ccc     C9 2804   1.464   6.728  10.267  0.1267  0.4002  0.8312
  108ccc    H15 2805   1.559   6.688  10.230 -1.0425  0.3434 -2.3391
  108ccc    H16 2806   1.432   6.778  10.175 -0.0560 -0.0546  0.6436
  108ccc    C10 2807   1.367   6.610  10.302  0.1113  0.4209 -0.2137
  108ccc     O4 2808   1.251   6.614  10.269 -0.1200  0.1445  0.1916
  108ccc     O5 2809   1.414   6.506  10.347  0.1532  0.2704  0.3706
  109ccc     N1 2810   1.217   7.352   9.705  0.0131  0.3752  0.1962
  109ccc     H4 2811   1.255   7.305   9.787 -1.7588 -0.0994  0.7846
  109ccc     C3 2812   1.077   7.308   9.661 -0.3621 -0.9558 -0.8390
  109ccc     H5 2813   1.017   7.394   9.694  2.3349  0.1685  1.6482
  109ccc     C4 2814   1.038   7.182   9.739 -0.0243 -0.0591  0.2997
  109ccc     H6 2815   1.055   7.312   9.554  0.9187 -0.9325 -1.1219
  109ccc     H7 2816   1.092   7.097   9.696 -0.3780 -0.1519  0.0319
  109ccc     H8 2817   0.930   7.171   9.722  0.0919  1.1618 -1.5300
  109ccc     N2 2818   1.076   7.183   9.884  0.8586 -0.1546  0.2349
  109ccc     C5 2819   1.082   7.047   9.943 -0.1376  0.3949 -0.3816
  109ccc     C6 2820   1.009   7.277   9.972  0.2612 -0.3738  0.2866
  109ccc     H9 2821   1.053   7.280  10.073  1.4868  1.8666 -0.2584
  109ccc     C7 2822   0.859   7.260   9.987  0.2065 -0.1569 -0.4161
  109ccc    H10 2823   1.022   7.377   9.930 -0.1622 -0.6349 -0.4815
  109ccc    H11 2824   0.836   7.163  10.034  1.7311 -0.0404  0.5991
  109ccc    H12 2825   0.819   7.253   9.885  1.2283 -1.1861 -0.7691
  109ccc     C8 2826   0.778   7.373  10.062 -0.3112  0.5819  0.4587
  109ccc     O2 2827   0.770   7.376  10.186 -0.2128  0.1877  0.0655
  109ccc     O3 2828   0.723   7.461   9.996 -0.1624  0.0050  0.2654
  109ccc    H13 2829   0.988   6.991   9.937 -0.3101  0.7009 -0.5450
  109ccc    H14 2830   1.101   7.053  10.051 -0.4780  0.7958 -0.3456
  109ccc     C9 2831   1.193   6.956   9.883 -0.2606  0.6326 -0.3665
  109ccc    H15 2832   1.292   7.002   9.882  1.5285 -2.8856 -1.7352
  109ccc    H16 2833   1.162   6.926   9.783  1.9287 -1.2211 -0.5804
  109ccc    C10 2834   1.199   6.828   9.968 -0.5010  1.3336  0.0957
  109ccc     O4 2835   1.199   6.836  10.091  0.3435 -0.1040  0.0595
  109ccc     O5 2836   1.175   6.717   9.915 -0.2926 -0.1849 -0.1198
  110ccc     N1 2837   2.950   8.519   8.109  0.3509 -0.3208 -0.6159
  110ccc     H4 2838   2.858   8.481   8.127  0.1018  0.8138  0.6612
  110ccc     C3 2839   2.991   8.522   7.974  0.2201 -0.2971  0.5248
  110ccc     H5 2840   3.035   8.621   7.956 -0.3004 -0.2484 -0.6176
  110ccc     C4 2841   2.871   8.495   7.877  0.4367 -0.3023  0.0358
  110ccc     H6 2842   3.060   8.436   7.966 -0.2627 -0.5999 -0.7084
  110ccc     H7 2843   2.775   8.533   7.914  1.0232 -1.9492  3.6872
  110ccc     H8 2844   2.856   8.386   7.877 -2.5981 -0.0480 -2.5690
  110ccc     N2 2845   2.896   8.532   7.741 -0.6382 -0.5285 -0.0727
  110ccc     C5 2846   3.033   8.512   7.686  0.0753  0.0970 -0.1621
  110ccc     C6 2847   2.784   8.494   7.656  0.2667  0.7840  0.1026
  110ccc     H9 2848   2.763   8.386   7.649 -0.8097  0.9147  1.0234
  110ccc     C7 2849   2.789   8.541   7.512  0.0007 -0.1760  0.1613
  110ccc    H10 2850   2.691   8.544   7.688 -0.2137 -0.6946  1.1624
  110ccc    H11 2851   2.696   8.512   7.462 -0.6269  0.5984  0.8471
  110ccc    H12 2852   2.864   8.491   7.450 -0.1318 -0.2800  0.0863
  110ccc     C8 2853   2.817   8.694   7.502  0.0425  0.3285  0.4469
  110ccc     O2 2854   2.883   8.737   7.409  0.0386  0.2583 -0.4411
  110ccc     O3 2855   2.742   8.778   7.558 -0.2543  0.0514 -0.2180
  110ccc    H13 2856   3.106   8.560   7.752  0.8483  1.1319 -1.7035
  110ccc    H14 2857   3.039   8.575   7.596  1.4350  1.8527  1.0953
  110ccc     C9 2858   3.069   8.363   7.667  0.4786 -0.6387  0.5338
  110ccc    H15 2859   2.997   8.314   7.600 -0.4779  0.7497  0.5039
  110ccc    H16 2860   3.066   8.320   7.768  1.2726  2.1444  1.8422
  110ccc    C10 2861   3.213   8.362   7.616  0.1773 -0.6358 -0.3775
  110ccc     O4 2862   3.245   8.416   7.507  0.0392 -0.1176 -0.7288
  110ccc     O5 2863   3.313   8.316   7.676  0.1550 -0.4841 -0.4607
  111ccc     N1 2864   2.599   8.064   8.372 -0.4842  0.3710  0.1676
  111ccc     H4 2865   2.574   8.159   8.350  1.6631  0.7980 -0.6113
  111ccc     C3 2866   2.512   7.949   8.393  0.3706  0.0393  0.4515
  111ccc     H5 2867   2.558   7.868   8.450  1.2939  0.0015 -0.3198
  111ccc     C4 2868   2.466   7.896   8.256  1.0706  0.1253  0.5030
  111ccc     H6 2869   2.423   7.985   8.446 -0.7465 -1.0622 -0.6148
  111ccc     H7 2870   2.547   7.839   8.209  1.9569  0.9159  1.0181
  111ccc     H8 2871   2.455   7.982   8.189  0.1303  1.3061  2.0815
  111ccc     N2 2872   2.332   7.825   8.260 -0.6112 -0.7669  0.5721
  111ccc     C5 2873   2.318   7.714   8.357 -0.4411 -0.0555  0.5961
  111ccc     C6 2874   2.276   7.794   8.125 -0.5440  0.0539  0.4605
  111ccc     H9 2875   2.331   7.721   8.064 -2.8644 -2.8107  1.5283
  111ccc     C7 2876   2.250   7.924   8.046  0.4192  0.4732  0.7167
  111ccc    H10 2877   2.185   7.733   8.133 -0.2313 -0.6820 -1.1002
  111ccc    H11 2878   2.344   7.949   7.995 -0.3823 -0.5342 -1.3595
  111ccc    H12 2879   2.229   8.006   8.116 -0.2849 -0.0262  1.0957
  111ccc     C8 2880   2.128   7.914   7.952  0.4675  0.1449 -0.1031
  111ccc     O2 2881   2.041   8.002   7.945 -0.1243  0.2386 -0.0752
  111ccc     O3 2882   2.121   7.826   7.867  0.8298 -0.4982 -0.6496
  111ccc    H13 2883   2.224   7.660   8.341  0.2545 -1.0223 -0.3944
  111ccc    H14 2884   2.322   7.752   8.459  1.1150 -0.8941  0.8690
  111ccc     C9 2885   2.427   7.605   8.333 -0.1846  0.2860 -0.3267
  111ccc    H15 2886   2.411   7.524   8.405 -1.5460 -0.9712 -1.9534
  111ccc    H16 2887   2.526   7.653   8.345 -0.7163  1.6703 -1.1364
  111ccc    C10 2888   2.411   7.532   8.199  0.3143 -0.1488  0.1116
  111ccc     O4 2889   2.308   7.472   8.170 -0.0245  0.5381  0.5498
  111ccc     O5 2890   2.503   7.529   8.118 -0.3248  0.5212  0.3871
  112ccc     N1 2891   3.426   8.053   8.549  0.6438  0.4987  0.1071
  112ccc     H4 2892   3.439   7.987   8.473  0.8318  1.8583 -1.0669
  112ccc     C3 2893   3.478   8.191   8.532  0.4750 -0.2720  0.4406
  112ccc     H5 2894   3.397   8.257   8.565  0.5723  0.1852 -0.2084
  112ccc     C4 2895   3.513   8.232   8.383 -0.5282 -0.1620  0.5192
  112ccc     H6 2896   3.557   8.214   8.604  0.2668  0.4579  0.4403
  112ccc     H7 2897   3.533   8.339   8.374 -1.2013  0.2395  3.0852
  112ccc     H8 2898   3.420   8.217   8.326  0.6926 -1.3927 -1.2484
  112ccc     N2 2899   3.618   8.143   8.320 -0.1240  0.4059  0.1357
  112ccc     C5 2900   3.625   8.159   8.168 -0.0156  0.6010  0.0480
  112ccc     C6 2901   3.748   8.127   8.390  0.4173 -0.3675 -0.3751
  112ccc     H9 2902   3.801   8.221   8.413 -0.5848 -0.4598  2.7574
  112ccc     C7 2903   3.846   8.036   8.324 -0.7954  1.0286  0.4991
  112ccc    H10 2904   3.732   8.079   8.487 -1.1270 -0.0498 -0.4381
  112ccc    H11 2905   3.886   8.074   8.230  1.6609  0.9357  1.4192
  112ccc    H12 2906   3.797   7.943   8.294  0.5670  0.7046 -0.8248
  112ccc     C8 2907   3.969   8.025   8.425 -0.2764  0.3971 -0.1414
  112ccc     O2 2908   3.967   8.057   8.545  0.5254 -0.2928  0.5338
  112ccc     O3 2909   4.080   7.990   8.383  0.0497 -0.0751  0.1299
  112ccc    H13 2910   3.525   8.153   8.124 -0.3344  1.0075  0.7025
  112ccc    H14 2911   3.682   8.074   8.130 -2.1378 -2.1872  2.6620
  112ccc     C9 2912   3.693   8.291   8.126 -0.3124 -0.2272 -0.3297
  112ccc    H15 2913   3.787   8.296   8.182 -0.9114  0.6296  0.6570
  112ccc    H16 2914   3.637   8.381   8.154  0.4958 -0.1705  1.2715
  112ccc    C10 2915   3.727   8.309   7.976  0.7811  0.1743  0.2405
  112ccc     O4 2916   3.647   8.271   7.894  0.0673 -0.0488  0.9118
  112ccc     O5 2917   3.818   8.383   7.937 -0.0197  0.0225 -0.1919
  113ccc     N1 2918   3.158   7.358   8.275  0.2205  0.9508  0.0915
  113ccc     H4 2919   3.113   7.310   8.353  1.1250 -0.4047 -0.1879
  113ccc     C3 2920   3.129   7.319   8.133 -0.7175  0.4080  0.7397
  113ccc     H5 2921   3.050   7.385   8.094  1.3339  1.6567 -1.6161
  113ccc     C4 2922   3.083   7.171   8.121 -0.6243  0.3689  0.9005
  113ccc     H6 2923   3.223   7.338   8.080 -0.2831 -1.7661  0.6642
  113ccc     H7 2924   2.990   7.143   8.171  0.0469 -0.0906  1.9071
  113ccc     H8 2925   3.165   7.112   8.164 -0.0388  1.1963  0.9623
  113ccc     N2 2926   3.071   7.122   7.978  0.2823  0.4790  0.0455
  113ccc     C5 2927   3.086   6.972   7.969  0.6273  0.1957  0.0249
  113ccc     C6 2928   2.954   7.188   7.904 -0.4741 -0.0541 -0.0013
  113ccc     H9 2929   2.956   7.297   7.921 -4.5847  0.0840  0.6304
  113ccc     C7 2930   2.813   7.142   7.943 -0.2500  1.0692  0.2954
  113ccc    H10 2931   2.970   7.189   7.796 -2.9672 -1.0570 -0.4362
  113ccc    H11 2932   2.788   7.174   8.045 -1.5742  2.0598 -0.2988
  113ccc    H12 2933   2.807   7.033   7.944 -2.6997  1.1499 -0.5412
  113ccc     C8 2934   2.710   7.192   7.845 -0.2292  0.0989 -0.0705
  113ccc     O2 2935   2.602   7.237   7.880  0.1281 -0.0358 -0.4500
  113ccc     O3 2936   2.736   7.174   7.726  0.1595 -0.5573 -0.7755
  113ccc    H13 2937   2.988   6.930   7.993 -0.1676  2.1547  0.4583
  113ccc    H14 2938   3.168   6.938   8.032  1.5779  2.5944  0.2055
  113ccc     C9 2939   3.122   6.927   7.823  0.0047 -0.1239  0.1344
  113ccc    H15 2940   3.218   6.972   7.795  0.8268 -1.0576  1.3648
  113ccc    H16 2941   3.049   6.961   7.747 -0.1212  0.6292  0.5826
  113ccc    C10 2942   3.144   6.779   7.803  0.9685  0.2893  0.2231
  113ccc     O4 2943   3.060   6.694   7.783  0.4189 -0.3627 -0.2161
  113ccc     O5 2944   3.259   6.738   7.825 -0.6521  0.2766  0.1591
  114ccc     N1 2945   2.938   7.981   7.507 -0.6486  0.6399 -0.5420
  114ccc     H4 2946   2.999   8.000   7.585 -2.1226  0.8643  0.5994
  114ccc     C3 2947   2.982   7.980   7.370 -0.4393  0.7839 -0.5537
  114ccc     H5 2948   3.076   7.923   7.362 -0.5037  0.5123  0.5414
  114ccc     C4 2949   3.009   8.120   7.317 -0.1579 -0.4974 -0.5098
  114ccc     H6 2950   2.907   7.932   7.306 -0.3178  0.9985 -0.8589
  114ccc     H7 2951   3.080   8.160   7.390  0.8270  0.6113 -2.0107
  114ccc     H8 2952   2.911   8.169   7.323 -0.0357 -0.4073  3.0592
  114ccc     N2 2953   3.050   8.141   7.176 -1.0712 -0.1815 -0.1992
  114ccc     C5 2954   3.040   8.285   7.137  0.1402  0.1374  0.2601
  114ccc     C6 2955   2.992   8.049   7.076 -0.2321 -0.0581 -0.0285
  114ccc     H9 2956   3.045   8.069   6.983 -0.2498  0.4847  0.0743
  114ccc     C7 2957   2.838   8.063   7.041 -0.6347  0.1050  0.2765
  114ccc    H10 2958   3.012   7.943   7.099  2.1102 -0.1810 -2.2699
  114ccc    H11 2959   2.818   8.165   7.007  1.5008 -0.0491 -1.7103
  114ccc    H12 2960   2.786   8.056   7.137  0.6577 -0.1610  0.9874
  114ccc     C8 2961   2.782   7.964   6.935 -0.4063  1.2505  0.2842
  114ccc     O2 2962   2.678   7.979   6.874  0.3175 -0.4921  0.5836
  114ccc     O3 2963   2.849   7.874   6.879  0.0151  0.5693 -0.3445
  114ccc    H13 2964   3.086   8.349   7.214  1.1632  0.1914 -0.3777
  114ccc    H14 2965   2.936   8.319   7.136 -0.2279 -0.8600  1.5076
  114ccc     C9 2966   3.117   8.328   7.010  0.6604 -0.6663  0.2193
  114ccc    H15 2967   3.099   8.265   6.922  2.8357  0.4021 -1.0761
  114ccc    H16 2968   3.224   8.330   7.033  0.8021 -0.7141 -0.4146
  114ccc    C10 2969   3.081   8.477   6.980 -0.4279 -0.0740  0.3887
  114ccc     O4 2970   2.995   8.510   6.899 -0.4563 -0.3072 -0.1090
  114ccc     O5 2971   3.130   8.570   7.046  0.2191 -0.1128  0.0941
  115ccc     N1 2972   2.467   8.310   7.721  0.1083  0.0821  0.6816
  115ccc     H4 2973   2.444   8.216   7.692 -1.3380  0.3902  0.7560
  115ccc     C3 2974   2.413   8.428   7.648  0.0012  0.4585  0.1569
  115ccc     H5 2975   2.316   8.460   7.688 -0.4941 -0.2330 -0.4669
  115ccc     C4 2976   2.394   8.402   7.497  0.4255 -0.0266  0.3484
  115ccc     H6 2977   2.483   8.512   7.656  1.9576 -0.8280 -2.1093
  115ccc     H7 2978   2.494   8.389   7.453  1.4446  0.5996  2.3772
  115ccc     H8 2979   2.339   8.485   7.451 -2.1444 -0.3705  2.5651
  115ccc     N2 2980   2.327   8.272   7.468 -0.1713 -0.0329 -0.3084
  115ccc     C5 2981   2.193   8.266   7.527 -0.1553  0.0777  0.0133
  115ccc     C6 2982   2.334   8.236   7.325  0.1414  0.2158  0.5393
  115ccc     H9 2983   2.268   8.150   7.307 -0.8804  0.9910  0.4889
  115ccc     C7 2984   2.472   8.199   7.262 -0.0370  0.2933  0.0534
  115ccc    H10 2985   2.283   8.311   7.264 -0.9110 -0.1298  0.9629
  115ccc    H11 2986   2.543   8.160   7.336  0.0862  0.2775 -0.0722
  115ccc    H12 2987   2.516   8.294   7.227  0.7098  0.2532  0.8512
  115ccc     C8 2988   2.467   8.107   7.136  0.1191  0.3412  1.0068
  115ccc     O2 2989   2.479   7.987   7.136  0.6713  0.0972 -0.4477
  115ccc     O3 2990   2.429   8.147   7.030  0.4597  0.0849 -0.3297
  115ccc    H13 2991   2.138   8.357   7.501 -0.7652 -0.3930 -0.3548
  115ccc    H14 2992   2.215   8.263   7.635  2.7175 -0.5510 -0.5066
  115ccc     C9 2993   2.098   8.152   7.500 -0.0683  0.5204 -0.3233
  115ccc    H15 2994   2.142   8.054   7.523 -1.9512  0.1158  1.9565
  115ccc    H16 2995   2.071   8.150   7.394 -1.6133  2.6905 -0.0426
  115ccc    C10 2996   1.975   8.161   7.589  0.3571  0.0815 -0.2352
  115ccc     O4 2997   1.930   8.262   7.645 -0.6583  0.2133  0.6882
  115ccc     O5 2998   1.936   8.054   7.632 -0.1520 -0.1940 -0.4410
  116ccc     N1 2999   2.657   7.371   7.146 -0.3369 -0.4612 -0.0380
  116ccc     H4 3000   2.659   7.470   7.127 -0.8638 -0.4667 -0.1485
  116ccc     C3 3001   2.567   7.280   7.071 -0.0484  0.1678 -0.4292
  116ccc     H5 3002   2.623   7.203   7.017  1.0467  0.0213  0.8770
  116ccc     C4 3003   2.469   7.362   6.982  0.5304 -0.1481  0.5977
  116ccc     H6 3004   2.502   7.225   7.140  0.8919  0.5381  0.7774
  116ccc     H7 3005   2.399   7.417   7.046  0.5465 -0.4229  0.8540
  116ccc     H8 3006   2.401   7.287   6.937  1.4839 -0.9317  0.4211
  116ccc     N2 3007   2.522   7.435   6.867  0.0117  0.1465 -0.3456
  116ccc     C5 3008   2.424   7.506   6.788 -0.8979 -0.3276  0.0976
  116ccc     C6 3009   2.622   7.354   6.790 -0.1585 -0.7131  0.3472
  116ccc     H9 3010   2.700   7.313   6.856 -0.7317 -1.9013  0.3109
  116ccc     C7 3011   2.699   7.431   6.674  0.0578 -0.4132 -0.7285
  116ccc    H10 3012   2.575   7.267   6.742  0.0246  0.3990 -1.9718
  116ccc    H11 3013   2.637   7.494   6.610  1.3589  0.1272 -1.5108
  116ccc    H12 3014   2.754   7.356   6.615  0.9067  0.1074 -0.6179
  116ccc     C8 3015   2.800   7.533   6.727  0.3716 -0.2320  0.0698
  116ccc     O2 3016   2.789   7.653   6.706 -0.1330  0.3682  0.8498
  116ccc     O3 3017   2.900   7.496   6.788  0.5291 -0.5548  0.1656
  116ccc    H13 3018   2.350   7.444   6.736 -1.0460  0.9686 -1.3132
  116ccc    H14 3019   2.469   7.564   6.706 -1.5617  1.9056  1.2415
  116ccc     C9 3020   2.334   7.609   6.858  0.5670  0.1329 -0.1182
  116ccc    H15 3021   2.276   7.554   6.933 -0.3886 -0.5214 -1.2964
  116ccc    H16 3022   2.256   7.635   6.786  0.1021 -0.7514  0.0454
  116ccc    C10 3023   2.408   7.730   6.912  0.3039 -0.5726 -0.1351
  116ccc     O4 3024   2.344   7.829   6.953 -0.6435  0.2506 -0.1886
  116ccc     O5 3025   2.525   7.747   6.880  0.5297 -0.3913  0.0897
  117ccc     N1 3026   3.321   7.841   7.378  0.3195  0.0269  0.8249
  117ccc     H4 3027   3.264   7.860   7.460  0.4372 -0.7888  1.1019
  117ccc     C3 3028   3.414   7.942   7.324 -0.4531  0.2112 -0.1053
  117ccc     H5 3029   3.516   7.903   7.336 -0.2192  1.2192  1.4736
  117ccc     C4 3030   3.398   8.069   7.406  0.6692 -0.3622  0.0967
  117ccc     H6 3031   3.408   7.955   7.215 -0.7265  0.4071 -0.0693
  117ccc     H7 3032   3.416   8.042   7.511  0.3927 -1.5367 -0.1508
  117ccc     H8 3033   3.292   8.092   7.390  0.0286 -2.8812  0.2902
  117ccc     N2 3034   3.494   8.178   7.360  0.3359  0.0323 -0.1184
  117ccc     C5 3035   3.639   8.150   7.361 -0.0755 -0.0333 -0.0920
  117ccc     C6 3036   3.454   8.239   7.235  0.4000 -0.2763 -0.1799
  117ccc     H9 3037   3.481   8.162   7.162  3.0853  1.1702 -0.8309
  117ccc     C7 3038   3.516   8.377   7.190  0.8263  0.2317  0.5368
  117ccc    H10 3039   3.345   8.258   7.238  0.3830 -0.3715 -0.2036
  117ccc    H11 3040   3.484   8.390   7.086 -1.4285  0.0823  1.1490
  117ccc    H12 3041   3.625   8.379   7.184  0.8021  0.4532  0.1924
  117ccc     C8 3042   3.468   8.494   7.278 -0.1098 -0.1470 -0.2386
  117ccc     O2 3043   3.375   8.567   7.249 -0.3330  0.4649  0.5142
  117ccc     O3 3044   3.500   8.505   7.397  0.0199  0.1749  0.2138
  117ccc    H13 3045   3.696   8.237   7.325  1.0625 -1.5636 -2.1940
  117ccc    H14 3046   3.671   8.073   7.290  1.9680  0.0369  0.6667
  117ccc     C9 3047   3.688   8.126   7.504 -0.6647 -0.8152  0.1326
  117ccc    H15 3048   3.789   8.085   7.500  0.0547  0.6092  2.0070
  117ccc    H16 3049   3.634   8.046   7.556 -0.8116 -0.5758  0.3560
  117ccc    C10 3050   3.699   8.252   7.590  0.0239 -1.0948  0.4007
  117ccc     O4 3051   3.803   8.311   7.613  0.3811  0.3967  0.3269
  117ccc     O5 3052   3.597   8.314   7.627 -0.6573  0.1823 -0.4240
  118ccc     N1 3053   2.016   6.248   8.961 -0.1952 -0.2083  0.2230
  118ccc     H4 3054   2.065   6.174   8.913 -0.7416  0.5226 -1.5612
  118ccc     C3 3055   1.893   6.216   9.030  0.5450 -0.2899 -0.1931
  118ccc     H5 3056   1.898   6.238   9.138 -2.7121  0.3288 -0.0653
  118ccc     C4 3057   1.859   6.069   9.001  0.4684 -0.3924 -0.0470
  118ccc     H6 3058   1.824   6.280   8.974  0.5305 -0.4413 -0.3466
  118ccc     H7 3059   1.953   6.017   9.021  0.4971  0.3117  1.8525
  118ccc     H8 3060   1.840   6.072   8.893  1.7195  0.3137 -0.2575
  118ccc     N2 3061   1.740   6.016   9.073 -0.7160 -0.5731  0.4506
  118ccc     C5 3062   1.717   5.875   9.039  0.5248 -0.2605  0.2364
  118ccc     C6 3063   1.621   6.102   9.053  0.3191  0.2544 -0.1023
  118ccc     H9 3064   1.631   6.180   8.976  0.7643 -1.6638 -2.1080
  118ccc     C7 3065   1.565   6.164   9.182 -0.0347  0.2870 -0.2446
  118ccc    H10 3066   1.541   6.033   9.020 -0.8214  1.0200  0.9560
  118ccc    H11 3067   1.635   6.243   9.212  0.1931 -0.0897  0.2323
  118ccc    H12 3068   1.548   6.091   9.262  0.3417 -0.2508 -0.6461
  118ccc     C8 3069   1.432   6.237   9.176 -1.1612  0.4243  0.8381
  118ccc     O2 3070   1.394   6.315   9.260  0.2326 -0.1761 -0.1886
  118ccc     O3 3071   1.354   6.194   9.100 -0.1740 -0.1554 -0.1949
  118ccc    H13 3072   1.807   5.816   9.060  0.9671  0.2025 -0.3333
  118ccc    H14 3073   1.679   5.865   8.936 -3.0023 -1.9895  1.5345
  118ccc     C9 3074   1.607   5.802   9.123 -0.6934  0.2573 -0.2866
  118ccc    H15 3075   1.502   5.830   9.106 -0.9815 -0.5956  0.0465
  118ccc    H16 3076   1.618   5.806   9.232  0.3227  1.3988 -0.4020
  118ccc    C10 3077   1.620   5.657   9.095  0.6315  0.1507 -0.2741
  118ccc     O4 3078   1.717   5.600   9.139 -0.0243 -0.1415 -0.3481
  118ccc     O5 3079   1.561   5.596   9.008  0.2737 -0.2824  0.5051
  119ccc     N1 3080   2.683   6.612   8.566 -0.3349  0.3169 -0.2340
  119ccc     H4 3081   2.715   6.518   8.545 -0.5014  0.7786 -2.8960
  119ccc     C3 3082   2.748   6.710   8.484  0.8401 -0.0866 -0.1486
  119ccc     H5 3083   2.684   6.799   8.494 -1.3450 -1.6310  0.5286
  119ccc     C4 3084   2.745   6.662   8.336 -0.2456  0.4229  0.0990
  119ccc     H6 3085   2.849   6.729   8.521  1.5849 -1.4459 -1.3649
  119ccc     H7 3086   2.649   6.617   8.307  1.4490 -3.0073 -0.7896
  119ccc     H8 3087   2.810   6.574   8.341  0.5540  1.0285  0.4620
  119ccc     N2 3088   2.790   6.769   8.246 -0.4391  0.4064 -0.1710
  119ccc     C5 3089   2.937   6.792   8.250 -0.1241  0.3966 -0.0063
  119ccc     C6 3090   2.730   6.904   8.253  0.0754  0.8457 -0.2749
  119ccc     H9 3091   2.741   6.946   8.353 -0.2791  2.2684 -0.8152
  119ccc     C7 3092   2.580   6.906   8.224  0.3295 -0.1274  1.3333
  119ccc    H10 3093   2.794   6.977   8.201  0.8747 -0.2354 -0.8605
  119ccc    H11 3094   2.539   7.003   8.253 -3.1614 -0.8048 -0.7128
  119ccc    H12 3095   2.520   6.852   8.299 -1.3099  0.4788  0.5044
  119ccc     C8 3096   2.547   6.881   8.070  0.3805  0.0321 -0.5539
  119ccc     O2 3097   2.537   6.766   8.028  0.0250 -0.3545  0.0292
  119ccc     O3 3098   2.505   6.980   8.016 -0.0669 -0.3881  0.5549
  119ccc    H13 3099   2.951   6.815   8.357 -0.7335 -1.5819  0.5483
  119ccc    H14 3100   2.961   6.882   8.193 -1.8253 -0.1687 -1.7263
  119ccc     C9 3101   3.036   6.667   8.213  0.5211 -0.5713  0.1011
  119ccc    H15 3102   3.014   6.667   8.105 -0.3124 -0.0564  0.2606
  119ccc    H16 3103   3.021   6.567   8.255 -2.4128 -0.1397  0.3025
  119ccc    C10 3104   3.184   6.712   8.231 -0.0007 -1.0158 -0.2248
  119ccc     O4 3105   3.216   6.780   8.331 -0.2709  0.5849 -0.3771
  119ccc     O5 3106   3.274   6.693   8.146  0.1822 -0.2032 -0.4554
  120ccc     N1 3107   3.729   5.924   8.088 -0.0320  0.4021 -0.2433
  120ccc     H4 3108   3.652   5.981   8.120 -0.7026  0.9199 -2.6298
  120ccc     C3 3109   3.779   5.971   7.951  0.0780  0.2393 -0.3404
  120ccc     H5 3110   3.887   5.989   7.940  0.1628  0.7972  1.1137
  120ccc     C4 3111   3.707   6.098   7.908  0.3312  0.3387  0.2051
  120ccc     H6 3112   3.751   5.888   7.885  1.2067  1.2022 -2.0961
  120ccc     H7 3113   3.600   6.079   7.891  0.3033  2.6535 -3.2691
  120ccc     H8 3114   3.755   6.124   7.813  0.4800 -0.0497  0.1728
  120ccc     N2 3115   3.734   6.213   8.000 -0.3636 -0.2184  0.1684
  120ccc     C5 3116   3.618   6.303   8.004 -0.5161  0.2279  0.1677
  120ccc     C6 3117   3.872   6.274   7.988  0.4077 -0.1256 -0.2948
  120ccc     H9 3118   3.955   6.202   7.998  1.3524  0.6038 -2.2666
  120ccc     C7 3119   3.900   6.386   8.092 -0.4327  0.2603 -0.2125
  120ccc    H10 3120   3.867   6.311   7.885 -0.0264 -1.5496 -0.8144
  120ccc    H11 3121   3.884   6.338   8.190  0.8206 -0.8181 -0.5164
  120ccc    H12 3122   3.825   6.467   8.089  0.3611  1.1436  1.7234
  120ccc     C8 3123   4.035   6.451   8.100  0.6303  0.0880 -0.0007
  120ccc     O2 3124   4.102   6.470   7.996  0.9860 -0.2254 -0.2142
  120ccc     O3 3125   4.076   6.481   8.205 -0.4388 -0.4723 -0.3662
  120ccc    H13 3126   3.631   6.356   8.099  2.1862 -0.4899  0.2775
  120ccc    H14 3127   3.528   6.242   8.007  0.1387 -1.0577 -2.7257
  120ccc     C9 3128   3.608   6.401   7.886  0.7023  0.1706  0.4817
  120ccc    H15 3129   3.615   6.348   7.791  3.8335  1.0497  0.1248
  120ccc    H16 3130   3.693   6.469   7.898 -0.9030  2.0138  2.4410
  120ccc    C10 3131   3.483   6.493   7.904 -0.2302 -0.6188 -0.2917
  120ccc     O4 3132   3.384   6.481   7.832 -0.3316  0.7211  0.0610
  120ccc     O5 3133   3.468   6.558   8.004 -0.0152 -0.3892  1.1217
  121ccc     N1 3134   3.537   5.591   8.604 -0.2149 -0.1260  0.4107
  121ccc     H4 3135   3.568   5.638   8.519 -0.4736  1.1840  1.0036
  121ccc     C3 3136   3.453   5.475   8.588 -0.3313  0.7699 -0.0275
  121ccc     H5 3137   3.503   5.383   8.621 -0.9791  0.5125  0.2681
  121ccc     C4 3138   3.403   5.467   8.441 -0.0419 -0.7637 -0.3368
  121ccc     H6 3139   3.368   5.494   8.655 -0.3498  1.3062 -0.2015
  121ccc     H7 3140   3.363   5.562   8.405  0.4752 -0.0608  0.8867
  121ccc     H8 3141   3.323   5.392   8.434 -3.6442  2.7587 -0.1275
  121ccc     N2 3142   3.504   5.431   8.341  0.1927  0.2401  0.0792
  121ccc     C5 3143   3.614   5.336   8.379  0.4095 -0.1630  0.0137
  121ccc     C6 3144   3.446   5.423   8.197 -0.1353  0.0844  0.3823
  121ccc     H9 3145   3.518   5.368   8.135  0.4748  1.7623 -0.4605
  121ccc     C7 3146   3.421   5.562   8.125 -0.0842  0.2940 -0.5530
  121ccc    H10 3147   3.358   5.357   8.199  0.4624 -0.7595 -0.3450
  121ccc    H11 3148   3.512   5.618   8.102 -1.3631  3.5153  1.5855
  121ccc    H12 3149   3.372   5.630   8.196  3.5215  0.8566  1.6359
  121ccc     C8 3150   3.351   5.536   7.997  0.3365  0.0582  0.5630
  121ccc     O2 3151   3.230   5.516   7.987  0.0738 -0.5401 -0.2974
  121ccc     O3 3152   3.412   5.529   7.891  0.5642  0.2126 -0.2675
  121ccc    H13 3153   3.571   5.236   8.393 -2.9667  1.2089  0.3674
  121ccc    H14 3154   3.649   5.374   8.475 -0.1548  0.9921 -0.2259
  121ccc     C9 3155   3.735   5.331   8.276  0.0516 -0.2967  0.1135
  121ccc    H15 3156   3.738   5.422   8.215 -3.0909 -1.6436 -2.3686
  121ccc    H16 3157   3.704   5.259   8.199  1.9120  0.2981 -1.2634
  121ccc    C10 3158   3.873   5.276   8.316  0.2237  0.3372 -0.8439
  121ccc     O4 3159   3.884   5.216   8.423  0.4299  0.1824  0.2033
  121ccc     O5 3160   3.971   5.310   8.246 -0.6515 -0.3602 -0.5014
  122ccc     N1 3161   3.693   6.328  10.376 -0.1361  0.0641  0.3666
  122ccc     H4 3162   3.660   6.263  10.306  1.3461 -1.6904  1.1897
  122ccc     C3 3163   3.786   6.276  10.478  0.2003  0.4260  0.2651
  122ccc     H5 3164   3.745   6.308  10.574  0.0842 -1.3876  0.8519
  122ccc     C4 3165   3.925   6.328  10.464 -0.1046 -0.0078  0.3955
  122ccc     H6 3166   3.798   6.167  10.478 -0.8001  0.3025  0.2993
  122ccc     H7 3167   3.983   6.292  10.550  2.7938  0.2012 -1.3361
  122ccc     H8 3168   3.910   6.436  10.473  0.7580  0.1206  0.4262
  122ccc     N2 3169   3.990   6.288  10.335  0.3522 -0.4922 -0.3816
  122ccc     C5 3170   4.128   6.358  10.333  0.1532  0.2957 -0.4039
  122ccc     C6 3171   3.997   6.144  10.301 -0.0136 -0.3551 -0.6487
  122ccc     H9 3172   4.049   6.091  10.383  1.0252  2.2058  0.4784
  122ccc     C7 3173   4.086   6.106  10.180 -0.0408  0.0191  0.2584
  122ccc    H10 3174   3.896   6.104  10.292 -0.5675  1.0035 -0.6217
  122ccc    H11 3175   4.065   6.000  10.158 -0.8866  0.3096 -0.3734
  122ccc    H12 3176   4.195   6.112  10.193  0.5095 -2.1377 -2.4391
  122ccc     C8 3177   4.063   6.173  10.042 -0.6851  0.6216 -0.4704
  122ccc     O2 3178   3.958   6.232  10.015 -0.3051  0.0385 -0.0507
  122ccc     O3 3179   4.166   6.213   9.986  0.2166 -0.1096  0.1063
  122ccc    H13 3180   4.194   6.313  10.258  1.1421 -0.6052  0.9551
  122ccc    H14 3181   4.178   6.341  10.429 -1.6064 -2.4984  0.1316
  122ccc     C9 3182   4.118   6.509  10.295 -0.2183  0.3872 -0.3703
  122ccc    H15 3183   4.217   6.555  10.283  0.8736 -1.1785  1.7941
  122ccc    H16 3184   4.071   6.563  10.378 -1.0645 -0.7038 -0.1283
  122ccc    C10 3185   4.032   6.523  10.173  0.2647  0.5007  0.3119
  122ccc     O4 3186   3.912   6.545  10.174  0.6528  0.4984 -0.2184
  122ccc     O5 3187   4.078   6.511  10.060 -0.1864 -0.0542  0.5739
  123ccc     N1 3188   2.894   6.558  10.535 -0.0813  0.9807  0.0550
  123ccc     H4 3189   2.883   6.587  10.438  1.6936 -1.4623 -1.0011
  123ccc     C3 3190   2.780   6.518  10.617  0.4767 -0.3541 -0.0451
  123ccc     H5 3191   2.797   6.427  10.675  0.7706 -0.4427 -0.2662
  123ccc     C4 3192   2.645   6.486  10.544  0.3516 -0.8573 -0.6993
  123ccc     H6 3193   2.767   6.594  10.695 -0.5725  0.6383 -1.1349
  123ccc     H7 3194   2.576   6.444  10.618 -0.5021 -2.2137 -2.2092
  123ccc     H8 3195   2.673   6.404  10.478  3.3994 -0.4404 -0.1054
  123ccc     N2 3196   2.589   6.596  10.461  0.8098  0.0259  0.4577
  123ccc     C5 3197   2.488   6.540  10.368  0.1703 -0.2948 -0.1223
  123ccc     C6 3198   2.543   6.718  10.532  0.1916 -1.0043 -0.0592
  123ccc     H9 3199   2.467   6.692  10.606  1.4798 -1.0500  1.3070
  123ccc     C7 3200   2.499   6.842  10.445  0.4594 -0.8863 -0.0025
  123ccc    H10 3201   2.627   6.757  10.590 -0.3939 -0.8506  0.6914
  123ccc    H11 3202   2.567   6.851  10.359  1.8985 -2.4273  0.9164
  123ccc    H12 3203   2.511   6.936  10.501 -0.3044 -1.7206  1.6128
  123ccc     C8 3204   2.356   6.827  10.387 -0.0665 -0.3682 -0.1414
  123ccc     O2 3205   2.263   6.802  10.462 -0.6652  0.6902 -0.2009
  123ccc     O3 3206   2.336   6.820  10.266  0.0003  0.6244 -0.1368
  123ccc    H13 3207   2.535   6.455  10.317  1.8324 -0.4082  1.5160
  123ccc    H14 3208   2.472   6.618  10.293 -0.3373 -1.3014 -1.0953
  123ccc     C9 3209   2.354   6.489  10.432  0.1631  0.0679 -0.1380
  123ccc    H15 3210   2.306   6.565  10.495 -0.1598  0.9112 -1.3582
  123ccc    H16 3211   2.382   6.397  10.484 -0.3651  0.1819  0.3541
  123ccc    C10 3212   2.260   6.454  10.313 -0.3916 -0.2396  0.2475
  123ccc     O4 3213   2.237   6.339  10.280  0.2295 -0.2183  0.0854
  123ccc     O5 3214   2.222   6.544  10.241 -0.5181  0.6503 -0.4834
  124ccc     N1 3215   3.187   6.080   9.726  0.0111  0.2044  0.5182
  124ccc     H4 3216   3.256   6.006   9.736  0.0983  0.6086  4.3702
  124ccc     C3 3217   3.187   6.173   9.833  0.3424  0.1190 -0.2853
  124ccc     H5 3218   3.283   6.226   9.827  0.5885 -0.1980  0.6532
  124ccc     C4 3219   3.178   6.114   9.982  0.4292  0.0219 -0.1696
  124ccc     H6 3220   3.109   6.248   9.814 -2.4128 -2.5731 -0.4007
  124ccc     H7 3221   3.073   6.087  10.002  0.2654 -0.3130 -1.3839
  124ccc     H8 3222   3.212   6.190  10.053 -0.6978  0.4952 -0.1197
  124ccc     N2 3223   3.265   5.997  10.006  1.1750  0.0065  0.0394
  124ccc     C5 3224   3.412   6.009   9.995  0.3360  0.1970 -0.1333
  124ccc     C6 3225   3.216   5.861   9.973  0.5848 -0.5269 -0.6070
  124ccc     H9 3226   3.191   5.855   9.866  1.6866  1.1314 -0.9915
  124ccc     C7 3227   3.090   5.829  10.046  0.0843 -0.2463  0.3410
  124ccc    H10 3228   3.286   5.783  10.005  1.9041  0.7608 -0.2157
  124ccc    H11 3229   3.011   5.898  10.013 -1.0897 -0.9930  1.5060
  124ccc    H12 3230   3.110   5.840  10.154  1.9200 -1.7607  0.2078
  124ccc     C8 3231   3.054   5.683  10.014  0.7581  0.2157  0.3539
  124ccc     O2 3232   3.120   5.586  10.044 -0.7182 -0.8603 -0.1491
  124ccc     O3 3233   2.970   5.658   9.929 -0.1578 -0.1136 -0.2323
  124ccc    H13 3234   3.446   6.004   9.891 -0.4102  1.4167 -0.4484
  124ccc    H14 3235   3.449   5.919  10.046  0.0939 -0.3751 -0.9457
  124ccc     C9 3236   3.476   6.131  10.071  0.2379 -0.1906  0.3128
  124ccc    H15 3237   3.441   6.117  10.174 -1.7940 -2.3507 -0.5757
  124ccc    H16 3238   3.431   6.225  10.037  1.0838  1.0770  2.4355
  124ccc    C10 3239   3.631   6.126  10.058  0.4407  0.3631 -0.4104
  124ccc     O4 3240   3.695   6.191  10.139  0.0471  0.5270  0.0614
  124ccc     O5 3241   3.680   6.108   9.950 -0.5966 -0.3203  0.4093
  125ccc     N1 3242   3.492   6.116   9.482 -0.3543 -1.0190 -0.2352
  125ccc     H4 3243   3.478   6.133   9.383 -3.5822  0.5183  0.3478
  125ccc     C3 3244   3.500   6.229   9.575  0.0214  0.4571 -0.0704
  125ccc     H5 3245   3.406   6.285   9.572 -0.0214  0.4365  0.6322
  125ccc     C4 3246   3.610   6.333   9.532 -0.4236  1.2001  0.5787
  125ccc     H6 3247   3.530   6.181   9.669  2.3477 -2.6438 -2.1829
  125ccc     H7 3248   3.584   6.365   9.430 -1.0027 -1.1009 -0.0520
  125ccc     H8 3249   3.700   6.271   9.526 -0.9903  0.3030  1.0896
  125ccc     N2 3250   3.628   6.439   9.632 -0.4215 -0.3910 -0.2092
  125ccc     C5 3251   3.510   6.487   9.716 -0.1396 -0.5554  0.6394
  125ccc     C6 3252   3.713   6.546   9.583 -0.1665 -0.4593  0.7798
  125ccc     H9 3253   3.679   6.590   9.488  0.7935  0.8376  1.0099
  125ccc     C7 3254   3.861   6.503   9.573 -0.5612  0.3212 -0.4265
  125ccc    H10 3255   3.709   6.626   9.658 -0.6372  0.4863 -0.2177
  125ccc    H11 3256   3.923   6.585   9.534 -1.7158  1.6019  0.3481
  125ccc    H12 3257   3.865   6.412   9.511 -1.5908 -0.7731  1.0496
  125ccc     C8 3258   3.910   6.459   9.711 -0.4248 -0.4055  0.4928
  125ccc     O2 3259   3.934   6.349   9.747 -0.3999  0.2027  0.2919
  125ccc     O3 3260   3.943   6.546   9.794  0.4348  0.1504 -0.0071
  125ccc    H13 3261   3.407   6.467   9.683 -0.3068 -0.3293  1.0209
  125ccc    H14 3262   3.523   6.596   9.722  1.5738 -0.5051 -2.0969
  125ccc     C9 3263   3.541   6.434   9.857  0.2743 -0.3219  0.0995
  125ccc    H15 3264   3.536   6.325   9.864 -0.1814 -0.3333 -0.3300
  125ccc    H16 3265   3.456   6.466   9.918  1.6346  0.2657  1.7349
  125ccc    C10 3266   3.664   6.501   9.930  0.9875 -0.4937 -0.3888
  125ccc     O4 3267   3.752   6.422   9.961 -0.4606 -0.0879  0.2135
  125ccc     O5 3268   3.679   6.624   9.937 -0.0477 -0.2192  0.2664
  126SOL     OW 3269   2.947   1.622   9.060 -0.5757  0.4817 -0.1412
  126SOL    HW1 3270   3.026   1.569   9.063 -0.0560  1.1954 -0.7553
  126SOL    HW2 3271   2.889   1.576   8.999 -0.5939  0.0238  0.2147
  127SOL     OW 3272   3.028   7.972   4.624  0.0805 -0.4489  0.0220
  127SOL    HW1 3273   3.016   7.891   4.674 -0.8558  1.0251  2.3569
  127SOL    HW2 3274   3.106   8.012   4.662 -0.3043  0.4443 -0.1233
  128SOL     OW 3275   6.143   0.234   0.630  0.4365 -0.1865  0.4277
  128SOL    HW1 3276   6.227   0.190   0.622 -0.2641 -1.7789  1.2817
  128SOL    HW2 3277   6.135   0.253   0.724 -0.2193 -0.2101  0.3813
  129SOL     OW 3278   5.117   3.399   8.698 -0.0123 -0.0563 -0.0325
  129SOL    HW1 3279   5.111   3.433   8.787 -1.1512  1.2166 -0.5634
  129SOL    HW2 3280   5.169   3.463   8.651 -1.7262  0.7427 -0.9206
  130SOL     OW 3281   1.339   7.543   2.091 -0.3214 -0.3492  0.0735
  130SOL    HW1 3282   1.394   7.467   2.110  1.1787  0.4994 -0.7032
  130SOL    HW2 3283   1.259   7.506   2.053  0.5533 -1.5370 -0.6939
  131SOL     OW 3284   9.003   7.622   1.419  0.2924  0.2225 -0.0522
  131SOL    HW1 3285   8.936   7.682   1.451  1.5083  2.1450 -0.9916
  131SOL    HW2 3286   9.084   7.672   1.422  1.3858 -1.4144 -0.7811
  132SOL     OW 3287   0.502   1.606   4.419 -0.0160 -0.5226 -0.2310
  132SOL    HW1 3288   0.571   1.543   4.436 -1.4684 -1.7468  1.4758
  132SOL    HW2 3289   0.483   1.645   4.504  0.4677  1.9079 -1.1351
  133SOL     OW 3290   1.924   5.573   2.601 -0.5987 -0.6529  0.0191
  133SOL    HW1 3291   1.901   5.497   2.548  0.6521 -0.8042 -0.3461
  133SOL    HW2 3292   1.997   5.543   2.656  0.9039  0.6533 -1.1629
  134SOL     OW 3293   2.684   1.238   6.127 -0.4013 -0.9129 -0.4759
  134SOL    HW1 3294   2.674   1.255   6.033 -0.6949  0.2362 -0.2420
  134SOL    HW2 3295   2.595   1.237   6.162 -0.2722 -0.9864 -0.1409
  135SOL     OW 3296   8.800   6.311   4.487 -0.0726 -0.0522  0.4931
  135SOL    HW1 3297   8.778   6.265   4.568 -0.0736  0.2581  0.6710
  135SOL    HW2 3298   8.896   6.315   4.487 -0.0164  3.7045  2.6728
  136SOL     OW 3299   2.724   9.040   6.311 -0.4644  0.1846 -0.5385
  136SOL    HW1 3300   2.774   9.114   6.345 -1.1623  0.2161  0.4761
  136SOL    HW2 3301   2.645   9.038   6.365 -0.7084 -0.9732 -0.9073
  137SOL     OW 3302   8.786   0.931   6.587  0.0606  0.2012  0.7002
  137SOL    HW1 3303   8.820   0.974   6.666 -0.0954  0.8585  0.4175
  137SOL    HW2 3304   8.863   0.918   6.532  0.4103 -1.5832  1.5487
  138SOL     OW 3305   1.191   7.271   2.647 -0.3586 -0.3330  0.5689
  138SOL    HW1 3306   1.271   7.232   2.684 -0.2433  0.5790  1.3400
  138SOL    HW2 3307   1.207   7.365   2.652 -1.1761 -0.1582 -0.0030
  139SOL     OW 3308   0.726   2.610   7.071 -0.3049  0.0811  0.2959
  139SOL    HW1 3309   0.701   2.518   7.084 -1.9210  0.5429  0.6730
  139SOL    HW2 3310   0.779   2.609   6.992 -1.7728 -0.9701 -0.7344
  140SOL     OW 3311   9.537   3.343   9.225 -0.2985  0.5392 -0.4272
  140SOL    HW1 3312   9.587   3.281   9.172 -2.1530 -0.8452 -0.6873
  140SOL    HW2 3313   9.535   3.305   9.312  0.5811  1.5002  0.0275
  141SOL     OW 3314   0.829   2.416   4.572 -0.5537 -0.2535 -0.2690
  141SOL    HW1 3315   0.815   2.505   4.540  0.5006  0.7438  1.8383
  141SOL    HW2 3316   0.773   2.409   4.649  0.6303 -0.8013  0.5720
  142SOL     OW 3317   7.053   8.692   7.799 -0.0419 -0.8895  0.0769
  142SOL    HW1 3318   6.977   8.749   7.788  1.1352  1.0289  1.3097
  142SOL    HW2 3319   7.056   8.675   7.893  2.2087  0.8849  0.4120
  143SOL     OW 3320   2.690   8.885   4.943 -0.9355 -0.0405  0.5296
  143SOL    HW1 3321   2.744   8.962   4.921 -1.1398 -0.2072 -0.6188
  143SOL    HW2 3322   2.634   8.915   5.015 -0.1209  0.4845  0.9689
  144SOL     OW 3323   3.997   8.839   6.915 -0.1839  0.1077 -0.1976
  144SOL    HW1 3324   4.078   8.858   6.867  0.8704  0.4952  1.6294
  144SOL    HW2 3325   3.969   8.753   6.882  1.7256 -0.6637  0.0740
  145SOL     OW 3326   0.351   9.198   3.039 -0.6283  0.0114 -0.9959
  145SOL    HW1 3327   0.310   9.114   3.056 -2.1669  0.7874 -0.6830
  145SOL    HW2 3328   0.373   9.232   3.126 -0.5320  0.1924 -1.0902
  146SOL     OW 3329   7.319   8.496   4.255  0.1400  0.0926  0.4920
  146SOL    HW1 3330   7.228   8.498   4.223  0.3095  2.5751 -0.0320
  146SOL    HW2 3331   7.361   8.427   4.203 -1.3743 -1.0465  0.6769
  147SOL     OW 3332   6.536   6.243   8.218  0.4026 -0.3101 -0.0207
  147SOL    HW1 3333   6.596   6.292   8.161  0.0957 -0.3231 -0.3571
  147SOL    HW2 3334   6.593   6.188   8.272  0.9072  1.6096  1.5511
  148SOL     OW 3335   2.437   5.103   7.826 -0.0644  0.3191 -0.1051
  148SOL    HW1 3336   2.418   5.021   7.780 -0.6466 -0.2510  1.1026
  148SOL    HW2 3337   2.363   5.115   7.886  0.0470  1.7024 -0.2003
  149SOL     OW 3338   3.203   2.298   9.548 -0.2563 -0.2473  0.6651
  149SOL    HW1 3339   3.256   2.361   9.498 -1.0855  1.0055  1.3192
  149SOL    HW2 3340   3.141   2.352   9.597 -3.1708 -1.6756 -1.1566
  150SOL     OW 3341   9.251   6.744   8.141 -0.0458 -0.0671  0.7005
  150SOL    HW1 3342   9.313   6.746   8.068  0.5839  2.1407  1.2204
  150SOL    HW2 3343   9.303   6.718   8.217 -0.6596 -2.1681  0.4648
  151SOL     OW 3344   1.154   0.330   9.644 -0.1704  0.0192 -0.2983
  151SOL    HW1 3345   1.171   0.399   9.580  0.9174 -0.6562 -0.7703
  151SOL    HW2 3346   1.130   0.253   9.591 -2.3492  0.2597  0.2577
  152SOL     OW 3347   6.987   3.580   1.503 -0.1275  0.0075 -0.2500
  152SOL    HW1 3348   6.955   3.512   1.562  0.6539 -0.9251 -0.8599
  152SOL    HW2 3349   7.037   3.639   1.559 -1.0734  0.2758  0.3377
  153SOL     OW 3350   3.685   4.336   9.156 -0.4172  0.3616  0.5791
  153SOL    HW1 3351   3.601   4.370   9.188 -0.2118  0.1032  1.3997
  153SOL    HW2 3352   3.738   4.325   9.234  0.3102  0.2950  0.0842
  154SOL     OW 3353   4.237   4.613   1.725  0.2247  1.0186  0.9235
  154SOL    HW1 3354   4.293   4.636   1.650 -0.2009 -0.6469  0.0465
  154SOL    HW2 3355   4.295   4.567   1.785 -0.2788 -1.5617 -0.4095
  155SOL     OW 3356   6.015   3.559   6.896  0.0294 -0.5933 -0.0172
  155SOL    HW1 3357   6.081   3.520   6.954  1.4601  0.2677 -0.9994
  155SOL    HW2 3358   6.022   3.653   6.912  1.5308 -0.1971 -2.6106
  156SOL     OW 3359   4.584   4.296   0.362 -0.0732 -0.1538  0.6992
  156SOL    HW1 3360   4.616   4.250   0.285 -1.8144  0.1977 -0.2799
  156SOL    HW2 3361   4.646   4.368   0.374  0.5304 -0.5396 -0.0455
  157SOL     OW 3362   2.989   9.622   4.231  0.1573  0.4711  0.1088
  157SOL    HW1 3363   3.085   9.621   4.223  0.2483 -1.2742  0.8376
  157SOL    HW2 3364   2.961   9.695   4.177  1.9456  1.3735  0.3293
  158SOL     OW 3365   4.760   4.476   9.526 -0.3195  0.5441  0.2069
  158SOL    HW1 3366   4.680   4.425   9.512 -0.2867  0.5175  0.1130
  158SOL    HW2 3367   4.771   4.477   9.621  1.1344 -1.8892  0.1384
  159SOL     OW 3368   7.586   2.595   1.716  0.0200 -0.2578  0.1753
  159SOL    HW1 3369   7.672   2.619   1.751 -0.0984 -0.5806  0.7001
  159SOL    HW2 3370   7.562   2.515   1.764 -0.5490 -0.2003 -0.0034
  160SOL     OW 3371   5.410   1.446   1.920  0.1927  0.2511 -0.0452
  160SOL    HW1 3372   5.341   1.509   1.939  0.2068  0.3515 -0.3249
  160SOL    HW2 3373   5.491   1.496   1.924  0.1170  0.5255 -1.4647
  161SOL     OW 3374   1.919   0.563   5.611  0.1104 -0.2187  0.0813
  161SOL    HW1 3375   1.901   0.537   5.521 -1.2507  0.9890 -0.0389
  161SOL    HW2 3376   1.833   0.579   5.649  0.7497  1.9356  0.7568
  162SOL     OW 3377   0.255   3.644   8.687 -0.1569  0.4241 -0.9919
  162SOL    HW1 3378   0.328   3.705   8.695  0.0686  0.0982 -0.5336
  162SOL    HW2 3379   0.296   3.557   8.686 -0.3405  0.2986 -3.1675
  163SOL     OW 3380   0.910   4.147   2.636 -0.0073  0.0282 -0.3365
  163SOL    HW1 3381   0.973   4.081   2.608  0.4297  0.8660 -1.3763
  163SOL    HW2 3382   0.852   4.100   2.696  0.0597 -1.4014 -1.3335
  164SOL     OW 3383   8.385   3.011   1.447  0.4728 -0.4391  0.1372
  164SOL    HW1 3384   8.428   2.952   1.508  0.6647 -0.5115 -0.0707
  164SOL    HW2 3385   8.414   3.098   1.474 -0.4921 -0.3609  1.0000
  165SOL     OW 3386   7.460   1.451   1.429  0.0142  0.3608  0.4316
  165SOL    HW1 3387   7.484   1.543   1.435  0.0236  0.3917 -0.0221
  165SOL    HW2 3388   7.380   1.443   1.480 -0.0344  0.6399  0.4008
  166SOL     OW 3389   6.410   9.600   3.055 -0.0604 -0.4843  0.0492
  166SOL    HW1 3390   6.452   9.627   2.974 -1.2309 -1.5836 -0.9685
  166SOL    HW2 3391   6.475   9.547   3.100  0.5232 -0.0383 -0.2607
  167SOL     OW 3392   6.435   7.812   5.694  0.2950  0.5623 -0.0049
  167SOL    HW1 3393   6.404   7.747   5.757  1.0813 -0.1376 -0.3256
  167SOL    HW2 3394   6.404   7.779   5.609  1.9472 -0.1891 -0.3411
  168SOL     OW 3395   2.458   1.983   0.968  0.5753 -0.1241 -0.7486
  168SOL    HW1 3396   2.543   2.012   0.935 -0.4901  2.3791 -1.5481
  168SOL    HW2 3397   2.416   1.940   0.893  0.7464 -0.4839 -0.6403
  169SOL     OW 3398   1.646   7.602   2.304 -0.4415  0.2355 -0.1641
  169SOL    HW1 3399   1.679   7.534   2.245 -1.1069  0.2278 -0.5436
  169SOL    HW2 3400   1.717   7.665   2.311 -0.3596  0.2440 -0.9959
  170SOL     OW 3401   4.881   4.431   5.747 -0.1408  0.0657 -0.2386
  170SOL    HW1 3402   4.964   4.460   5.708 -1.4805  1.0300 -2.5950
  170SOL    HW2 3403   4.819   4.430   5.673 -1.6669 -3.0847  0.9111
  171SOL     OW 3404   3.581   9.129   1.190 -0.1235  0.1228  0.1820
  171SOL    HW1 3405   3.508   9.080   1.151  0.1125 -0.1417  0.0689
  171SOL    HW2 3406   3.649   9.127   1.122 -0.6091  1.8231 -0.4190
  172SOL     OW 3407   2.193   2.723   0.994  0.3164  0.6888 -0.0694
  172SOL    HW1 3408   2.285   2.712   1.020  1.2693  2.9669 -2.0669
  172SOL    HW2 3409   2.191   2.696   0.902 -1.7372 -2.0397  0.6519
  173SOL     OW 3410   4.136   5.304   1.014  0.0468  0.5244  0.6465
  173SOL    HW1 3411   4.126   5.230   1.074 -0.5704 -0.9716 -1.2020
  173SOL    HW2 3412   4.046   5.327   0.990  0.2970  0.7680 -0.0847
  174SOL     OW 3413   7.523   2.523   8.375  0.1380  0.1644  0.1530
  174SOL    HW1 3414   7.440   2.491   8.409  0.1198  0.9584  0.8989
  174SOL    HW2 3415   7.502   2.607   8.334  0.4141 -0.0908 -0.5390
  175SOL     OW 3416   7.586   9.488   0.208 -0.4913 -0.3065 -0.2051
  175SOL    HW1 3417   7.494   9.472   0.189 -1.2966  0.0183  2.9048
  175SOL    HW2 3418   7.606   9.570   0.162 -1.6363 -0.5508 -1.1850
  176SOL     OW 3419   5.976   0.551   7.753 -0.1767 -0.4008 -0.0204
  176SOL    HW1 3420   6.014   0.464   7.742 -0.8077 -0.5010 -1.7936
  176SOL    HW2 3421   6.021   0.588   7.829  0.7508 -1.9167  0.2058
  177SOL     OW 3422   1.378   1.974   6.258 -0.3607 -0.0266  0.3111
  177SOL    HW1 3423   1.327   2.053   6.244 -0.6757 -0.4382 -1.0289
  177SOL    HW2 3424   1.448   1.979   6.192 -0.3393 -0.8096  0.2627
  178SOL     OW 3425   3.813   9.207   5.899 -0.1709  0.2848 -0.3080
  178SOL    HW1 3426   3.812   9.282   5.959  0.7887 -1.4394  2.0302
  178SOL    HW2 3427   3.724   9.204   5.864 -0.0404  2.9028 -1.0789
  179SOL     OW 3428   2.226   1.054   1.421 -0.1353 -0.2493 -0.8445
  179SOL    HW1 3429   2.170   1.128   1.397  0.7332  0.5721 -0.3757
  179SOL    HW2 3430   2.251   1.070   1.512  0.3081 -0.9582 -0.8301
  180SOL     OW 3431   3.981   0.681   2.297  0.1109 -0.2279  0.4436
  180SOL    HW1 3432   4.052   0.737   2.326 -0.4465  1.2517 -0.9394
  180SOL    HW2 3433   3.969   0.702   2.205 -2.1232 -0.4184  0.6383
  181SOL     OW 3434   6.177   8.668   7.203  0.8337 -0.1307 -0.3738
  181SOL    HW1 3435   6.193   8.617   7.283  2.0079  2.8276  1.4257
  181SOL    HW2 3436   6.259   8.659   7.153  0.4884 -1.1373 -0.7843
  182SOL     OW 3437   4.761   1.225   0.427 -0.3262 -0.5780  0.2172
  182SOL    HW1 3438   4.818   1.298   0.451  2.3680 -2.2883 -0.4589
  182SOL    HW2 3439   4.684   1.266   0.388  0.3837  1.9022  1.2444
  183SOL     OW 3440   3.199   0.261   9.025 -0.2120  0.0374  0.3385
  183SOL    HW1 3441   3.231   0.351   9.018  0.6451 -0.2425  0.5053
  183SOL    HW2 3442   3.204   0.226   8.936 -0.7986  0.2295  0.2237
  184SOL     OW 3443   1.976   8.471   4.661  0.0505 -0.2433  0.1862
  184SOL    HW1 3444   1.983   8.430   4.575  3.5306  2.1209 -0.8324
  184SOL    HW2 3445   2.064   8.467   4.697 -0.9757  0.2525  3.0343
  185SOL     OW 3446   6.716   1.560   7.819  0.0376 -0.1723 -0.0162
  185SOL    HW1 3447   6.663   1.624   7.866 -0.5898 -0.0658 -0.8419
  185SOL    HW2 3448   6.720   1.484   7.877 -2.9956 -1.0981 -0.8427
  186SOL     OW 3449   4.494   9.057   8.263 -0.1061  0.0209  0.2848
  186SOL    HW1 3450   4.543   9.105   8.330  1.0001  0.1601 -0.5974
  186SOL    HW2 3451   4.425   9.012   8.312 -0.1060  1.1205  1.3504
  187SOL     OW 3452   5.242   6.516   5.217  0.1405  0.1175  0.0317
  187SOL    HW1 3453   5.278   6.599   5.185 -0.4839  0.2180 -0.4393
  187SOL    HW2 3454   5.314   6.454   5.208  1.0385  0.8689  1.6246
  188SOL     OW 3455   6.314   8.757   9.323  0.1828 -0.2072  0.2140
  188SOL    HW1 3456   6.238   8.703   9.342 -0.3922  0.7226  0.6225
  188SOL    HW2 3457   6.282   8.824   9.263  0.7774 -0.0430  0.0689
  189SOL     OW 3458   7.226   3.734   2.271 -0.0959 -0.0493 -0.0252
  189SOL    HW1 3459   7.176   3.654   2.290  0.7778 -0.3865  0.9040
  189SOL    HW2 3460   7.292   3.707   2.207 -0.6163  0.2326 -0.6947
  190SOL     OW 3461   1.555   6.457   9.446  0.1214 -0.0363 -0.4867
  190SOL    HW1 3462   1.593   6.511   9.376  0.1443  1.8407  0.8880
  190SOL    HW2 3463   1.481   6.412   9.404  1.9187 -1.3388 -2.4265
  191SOL     OW 3464   0.383   4.860   4.820  0.1117  0.2208  0.4198
  191SOL    HW1 3465   0.298   4.869   4.777  0.3489 -0.2271 -0.1540
  191SOL    HW2 3466   0.376   4.915   4.898 -1.3919 -1.3106  1.4366
  192SOL     OW 3467   3.583   6.469   6.982  0.0394 -1.1951 -0.5980
  192SOL    HW1 3468   3.493   6.477   6.950 -0.1839  0.2765  0.3027
  192SOL    HW2 3469   3.623   6.404   6.924 -1.4484 -1.5054 -1.3347
  193SOL     OW 3470   2.196   6.618   4.636 -0.3487 -0.5764  0.4338
  193SOL    HW1 3471   2.130   6.555   4.663 -0.7326  0.5376  2.2785
  193SOL    HW2 3472   2.264   6.612   4.704 -0.0627  0.4798  0.2558
  194SOL     OW 3473   3.706   9.017   7.255  0.4130  0.1336  0.2356
  194SOL    HW1 3474   3.759   8.994   7.332 -0.7705 -0.2148  0.9688
  194SOL    HW2 3475   3.770   9.035   7.187  1.4949 -1.8692  0.6249
  195SOL     OW 3476   3.166   1.530   5.329  0.4850  0.3398  0.0968
  195SOL    HW1 3477   3.093   1.513   5.269 -0.3247  0.5513  0.9992
  195SOL    HW2 3478   3.140   1.488   5.411  1.9879 -0.7354  0.0632
  196SOL     OW 3479   4.764   8.309   1.720 -0.7929  0.3624  0.5171
  196SOL    HW1 3480   4.782   8.278   1.631  1.7606  1.1787  0.6532
  196SOL    HW2 3481   4.741   8.401   1.709  0.9880  0.8670  0.7565
  197SOL     OW 3482   2.812   1.831   8.483 -0.5908  0.3847 -0.1954
  197SOL    HW1 3483   2.883   1.878   8.527 -0.5324  1.2129 -1.1371
  197SOL    HW2 3484   2.854   1.754   8.446 -0.4363  0.2248  0.3045
  198SOL     OW 3485   9.077   6.969   7.855 -0.3604  0.3153  0.1401
  198SOL    HW1 3486   9.164   6.980   7.816  1.2830  1.4497  3.6718
  198SOL    HW2 3487   9.025   7.041   7.820  1.4823  2.1946  1.0099
  199SOL     OW 3488   0.854   4.108   4.577  0.6425  0.1402 -0.1610
  199SOL    HW1 3489   0.920   4.175   4.593  2.4414 -1.1675 -1.7856
  199SOL    HW2 3490   0.871   4.076   4.489 -1.8510 -0.6453 -0.4611
  200SOL     OW 3491   9.522   6.100   5.377 -0.1014 -0.4570  0.0892
  200SOL    HW1 3492   9.540   6.139   5.463 -0.2724  1.3784 -0.6570
  200SOL    HW2 3493   9.583   6.027   5.370  0.3225 -0.2741  1.5274
  201SOL     OW 3494   1.875   2.917   0.522 -0.1629 -0.0329  0.2379
  201SOL    HW1 3495   1.879   2.928   0.617  1.5239  1.3923  0.0498
  201SOL    HW2 3496   1.829   2.995   0.490  0.9133  0.4319 -0.2274
  202SOL     OW 3497   7.082   3.211   8.976  0.4713 -0.1589 -0.4160
  202SOL    HW1 3498   7.134   3.135   9.000  1.4213  0.2475 -1.1302
  202SOL    HW2 3499   7.145   3.275   8.943 -0.5355  0.0381 -2.0966
  203SOL     OW 3500   6.613   9.510   7.200 -0.2947  0.0082 -0.1443
  203SOL    HW1 3501   6.675   9.565   7.153  0.1884 -2.6942 -3.0062
  203SOL    HW2 3502   6.668   9.451   7.252 -0.6713  0.2776  0.5704
  204SOL     OW 3503   6.982   2.809   1.764  0.0800  0.3669  0.7157
  204SOL    HW1 3504   6.916   2.746   1.796  0.1868 -0.1565 -0.0782
  204SOL    HW2 3505   7.037   2.825   1.840  0.6364 -1.2589  0.7052
  205SOL     OW 3506   9.324   8.353   7.487  0.1090 -0.1972  0.2142
  205SOL    HW1 3507   9.273   8.273   7.476 -0.7190  0.3883 -0.3834
  205SOL    HW2 3508   9.297   8.387   7.573 -0.4423  0.0526 -0.0511
  206SOL     OW 3509   7.267   6.790   0.284  0.3236 -0.0820 -0.5682
  206SOL    HW1 3510   7.275   6.880   0.253  1.3498  0.9988  2.4494
  206SOL    HW2 3511   7.352   6.750   0.266  1.1457  0.7402  1.2179
  207SOL     OW 3512   5.436   6.715   5.592  0.2661  0.2513 -0.1068
  207SOL    HW1 3513   5.483   6.636   5.617  1.2210  0.5193 -0.9984
  207SOL    HW2 3514   5.392   6.693   5.510 -2.3908 -0.4435  1.3776
  208SOL     OW 3515   3.794   7.482   1.870  0.5213 -0.2615  0.2789
  208SOL    HW1 3516   3.737   7.460   1.943  1.1547  0.1377  0.8979
  208SOL    HW2 3517   3.810   7.398   1.826  1.5748 -0.8051  1.6473
  209SOL     OW 3518   2.293   0.333   7.559  0.6846 -0.2724  0.2073
  209SOL    HW1 3519   2.320   0.418   7.524 -1.7825 -0.3354 -2.1524
  209SOL    HW2 3520   2.201   0.324   7.533  0.5983 -3.2878  1.1471
  210SOL     OW 3521   9.469   6.811   4.829  0.1511 -0.2892  0.4483
  210SOL    HW1 3522   9.446   6.895   4.788 -1.2294 -0.2564  1.2339
  210SOL    HW2 3523   9.487   6.753   4.755  1.1136  0.6802 -0.1097
  211SOL     OW 3524   5.428   2.471   1.910 -0.6589  0.7498 -0.0671
  211SOL    HW1 3525   5.353   2.530   1.909 -0.1703  1.4259 -1.9339
  211SOL    HW2 3526   5.390   2.384   1.899 -1.2027  1.0510 -0.6412
  212SOL     OW 3527   0.287   1.084   1.277 -0.2238 -0.3730 -0.0558
  212SOL    HW1 3528   0.355   1.045   1.332  0.6000  2.0253  0.7652
  212SOL    HW2 3529   0.334   1.142   1.217 -1.4057 -0.0392 -0.7030
  213SOL     OW 3530   5.852   7.477   8.615 -0.2321  0.1659  0.0314
  213SOL    HW1 3531   5.925   7.538   8.618  1.7536 -2.0088 -0.8095
  213SOL    HW2 3532   5.773   7.532   8.615  1.4028  2.6240 -0.0201
  214SOL     OW 3533   7.033   5.785   2.448  0.1810 -0.5698  0.4257
  214SOL    HW1 3534   6.978   5.862   2.465 -0.0750 -0.9282  1.2405
  214SOL    HW2 3535   7.123   5.819   2.449  0.0464 -0.2110  0.3850
  215SOL     OW 3536   3.277   4.064   4.003 -0.1820  0.2376 -0.0131
  215SOL    HW1 3537   3.261   4.073   3.910  0.0154  0.6246 -0.0122
  215SOL    HW2 3538   3.345   3.997   4.010  0.3669  0.7621 -0.1999
  216SOL     OW 3539   5.849   2.747   8.802 -0.4243 -0.9389 -0.5979
  216SOL    HW1 3540   5.835   2.700   8.884 -0.0860 -0.3964 -0.2159
  216SOL    HW2 3541   5.941   2.732   8.781 -0.3385 -0.5298 -0.5233
  217SOL     OW 3542   2.965   3.056   2.630 -0.5184 -0.1499 -0.3958
  217SOL    HW1 3543   2.952   3.115   2.556  1.4581 -0.2846 -0.8841
  217SOL    HW2 3544   2.918   3.098   2.702 -1.3585  0.6545 -1.3812
  218SOL     OW 3545   2.221   9.281   4.522 -0.3642 -0.0071  0.2183
  218SOL    HW1 3546   2.145   9.225   4.507 -0.1321  0.0996 -1.4836
  218SOL    HW2 3547   2.276   9.270   4.445  1.6597 -0.5032  1.6385
  219SOL     OW 3548   1.785   0.261   8.445  0.4203  0.0226  0.2351
  219SOL    HW1 3549   1.829   0.220   8.371 -1.4082  0.1661 -0.9942
  219SOL    HW2 3550   1.844   0.246   8.520  2.1405 -0.4343 -1.1499
  220SOL     OW 3551   5.763   6.191   2.815  0.0945  0.2153 -0.2520
  220SOL    HW1 3552   5.773   6.255   2.885 -0.5233 -0.2268  0.2465
  220SOL    HW2 3553   5.808   6.112   2.847  0.0434  0.0981 -0.4658
  221SOL     OW 3554   3.614   1.323   2.917 -0.0455  0.0252 -0.6678
  221SOL    HW1 3555   3.700   1.325   2.876 -0.2899  2.1451 -1.2304
  221SOL    HW2 3556   3.561   1.385   2.866 -1.1422  0.7272  1.2057
  222SOL     OW 3557   4.690   1.430   7.523 -0.0816  0.0667  0.1319
  222SOL    HW1 3558   4.759   1.495   7.538 -0.5426  0.4678  0.5782
  222SOL    HW2 3559   4.646   1.459   7.443 -1.3836  1.3369  1.2168
  223SOL     OW 3560   4.294   7.874   7.176  0.1301  0.2779 -0.3200
  223SOL    HW1 3561   4.303   7.832   7.261  0.6463  1.8098  0.4150
  223SOL    HW2 3562   4.239   7.950   7.192 -0.1918  0.3168 -1.4760
  224SOL     OW 3563   5.249   4.900   1.390 -1.0413  0.1846  0.0540
  224SOL    HW1 3564   5.164   4.900   1.346 -2.2422 -0.3651  2.2385
  224SOL    HW2 3565   5.230   4.929   1.479  1.1530  0.4539  0.4875
  225SOL     OW 3566   7.244   8.199   5.157 -0.3617 -0.0460 -0.3954
  225SOL    HW1 3567   7.207   8.149   5.084 -0.8001 -0.8226  0.3374
  225SOL    HW2 3568   7.176   8.264   5.177 -0.1896  0.2464 -0.7500
  226SOL     OW 3569   6.217   2.348   3.565 -0.7945 -0.1898  0.8181
  226SOL    HW1 3570   6.286   2.414   3.559  0.8788 -1.9894 -1.5064
  226SOL    HW2 3571   6.262   2.268   3.593 -1.8721 -1.4453 -0.8445
  227SOL     OW 3572   4.899   5.630   8.324 -0.0735 -0.2894  0.0715
  227SOL    HW1 3573   4.930   5.630   8.415  1.3743  1.2826 -0.3908
  227SOL    HW2 3574   4.818   5.681   8.327 -0.8471 -1.4893  0.6909
  228SOL     OW 3575   9.169   5.754   0.749  0.1475  0.3413 -0.2098
  228SOL    HW1 3576   9.216   5.833   0.776  0.4102 -0.5022  1.9435
  228SOL    HW2 3577   9.083   5.785   0.722  0.3301  1.3933  0.3645
  229SOL     OW 3578   1.074   1.380   2.496 -0.2876  0.2068  0.0965
  229SOL    HW1 3579   1.164   1.406   2.517 -0.4621  0.2078  0.8660
  229SOL    HW2 3580   1.075   1.368   2.401  1.0068 -1.5972  0.2877
  230SOL     OW 3581   5.470   9.506   3.188 -0.0744 -0.6067 -0.0160
  230SOL    HW1 3582   5.489   9.559   3.265  0.0512 -0.5095 -0.1147
  230SOL    HW2 3583   5.384   9.468   3.206  0.5181 -1.6369  0.7536
  231SOL     OW 3584   3.102   0.988   1.422  0.6371 -0.0425 -0.2415
  231SOL    HW1 3585   3.039   0.986   1.493  2.4859 -0.2177  1.4830
  231SOL    HW2 3586   3.125   0.897   1.407 -0.6438 -0.1341 -1.9935
  232SOL     OW 3587   4.525   6.274   4.608 -0.1597  0.3172 -0.6365
  232SOL    HW1 3588   4.460   6.213   4.573  0.9001 -1.2492  0.0371
  232SOL    HW2 3589   4.476   6.356   4.620 -2.1698 -0.9409  0.3504
  233SOL     OW 3590   3.849   7.247   1.314 -0.5377  0.0463  0.0397
  233SOL    HW1 3591   3.835   7.186   1.387  1.3815 -1.4869 -0.7800
  233SOL    HW2 3592   3.808   7.204   1.239 -0.6727  0.6013 -0.2074
  234SOL     OW 3593   7.034   7.083   4.656 -0.1805  0.0381  0.1265
  234SOL    HW1 3594   6.998   7.168   4.681  0.1634  0.6604 -1.3868
  234SOL    HW2 3595   6.974   7.020   4.695 -1.3718  1.0100 -0.0599
  235SOL     OW 3596   6.054   1.386   4.111  0.1985  0.6502  0.3652
  235SOL    HW1 3597   6.107   1.308   4.129  0.3175  0.7184  0.3127
  235SOL    HW2 3598   6.096   1.455   4.162  0.4618  0.8176 -0.0741
  236SOL     OW 3599   4.722   8.655   6.076 -0.5131  0.0602  0.1339
  236SOL    HW1 3600   4.738   8.749   6.079  0.4316 -0.1013  0.2757
  236SOL    HW2 3601   4.653   8.645   6.010 -1.1133  0.9051  0.6121
  237SOL     OW 3602   6.007   7.845   8.208  0.0521 -0.1085 -0.3094
  237SOL    HW1 3603   5.988   7.895   8.288 -0.1614 -2.3972  1.1686
  237SOL    HW2 3604   5.921   7.815   8.178  0.1428  0.6488 -1.3869
  238SOL     OW 3605   4.057   6.146   7.574 -0.2981  0.7925  0.0095
  238SOL    HW1 3606   4.104   6.190   7.645 -1.0430  1.3878  0.1427
  238SOL    HW2 3607   3.992   6.210   7.545 -1.2210 -0.1195  0.0174
  239SOL     OW 3608   5.742   4.883   8.502  0.2417 -0.1732  0.4943
  239SOL    HW1 3609   5.837   4.884   8.511  0.1632 -0.5767  1.5249
  239SOL    HW2 3610   5.712   4.958   8.553  0.0825  1.0935 -1.3484
  240SOL     OW 3611   8.924   3.994   3.101  0.2574  0.5111 -0.7071
  240SOL    HW1 3612   8.902   3.957   3.015  0.1637 -2.3610  0.4276
  240SOL    HW2 3613   8.890   4.083   3.098 -1.0168  0.0393 -3.1505
  241SOL     OW 3614   4.147   6.401   1.123  0.1314 -0.0646 -0.1254
  241SOL    HW1 3615   4.239   6.375   1.121 -0.3311 -1.8553 -2.1304
  241SOL    HW2 3616   4.144   6.484   1.074  0.5102 -0.8660 -1.5822
  242SOL     OW 3617   0.178   6.912   1.775  0.3876 -0.5083  0.8121
  242SOL    HW1 3618   0.122   6.852   1.726 -0.3854 -0.6870  1.8883
  242SOL    HW2 3619   0.159   6.894   1.867  1.1386  0.4569  1.1826
  243SOL     OW 3620   8.308   5.752   9.531  0.1666  0.0673  0.2143
  243SOL    HW1 3621   8.397   5.720   9.543 -0.3832 -1.1099  1.3739
  243SOL    HW2 3622   8.279   5.713   9.449  0.2619 -0.6391  0.5130
  244SOL     OW 3623   3.419   0.823   1.884 -0.5071 -0.1060  0.1572
  244SOL    HW1 3624   3.458   0.808   1.971  1.8683  2.2209 -0.3634
  244SOL    HW2 3625   3.335   0.778   1.887  0.0797 -1.2351  3.1921
  245SOL     OW 3626   2.775   0.805   4.238  0.0429 -0.2715 -0.2703
  245SOL    HW1 3627   2.758   0.808   4.332  1.1057 -0.7622 -0.0491
  245SOL    HW2 3628   2.760   0.714   4.213 -0.0917 -0.1756 -0.5421
  246SOL     OW 3629   8.879   6.274   5.129  0.4793 -0.0021  0.3285
  246SOL    HW1 3630   8.884   6.290   5.034  2.6547  2.3915  0.7194
  246SOL    HW2 3631   8.803   6.324   5.158  1.1736  1.2114  0.1139
  247SOL     OW 3632   7.316   3.910   6.264 -0.1261 -0.4917 -0.1542
  247SOL    HW1 3633   7.374   3.843   6.228 -2.5263 -2.6424 -0.2605
  247SOL    HW2 3634   7.257   3.934   6.193 -0.6370  0.2067  0.4759
  248SOL     OW 3635   8.935   8.778   3.121 -0.4780 -0.0633 -0.8014
  248SOL    HW1 3636   8.999   8.735   3.065  2.3464  1.7279  0.7813
  248SOL    HW2 3637   8.982   8.793   3.203 -2.6099  2.3164  0.1043
  249SOL     OW 3638   1.033   2.700   1.029  0.4559  0.2711  0.1149
  249SOL    HW1 3639   1.106   2.751   0.994  0.3686  1.7695  1.9733
  249SOL    HW2 3640   0.955   2.742   0.993  0.3745  1.7014  1.8037
  250SOL     OW 3641   4.521   5.952   2.909 -0.1806 -0.0576  0.1203
  250SOL    HW1 3642   4.501   6.030   2.856  0.3875  1.4820  2.0411
  250SOL    HW2 3643   4.616   5.940   2.898 -0.3760 -0.9545 -0.7303
  251SOL     OW 3644   7.867   7.504   7.713  0.9195 -0.0469 -0.1358
  251SOL    HW1 3645   7.902   7.592   7.703 -0.9426  0.7338 -0.1088
  251SOL    HW2 3646   7.851   7.494   7.807 -0.4030  0.2203 -0.3212
  252SOL     OW 3647   3.642   9.394   9.217  0.3189 -0.1891  0.2496
  252SOL    HW1 3648   3.681   9.404   9.129 -0.3416  2.8809  0.1644
  252SOL    HW2 3649   3.716   9.370   9.273  1.2244  0.0741 -0.7833
  253SOL     OW 3650   8.630   3.593   5.964 -0.4161  0.1299 -0.4614
  253SOL    HW1 3651   8.582   3.594   6.046 -1.2637  1.3076 -0.9432
  253SOL    HW2 3652   8.716   3.629   5.986  1.0755 -3.7127  0.8035
  254SOL     OW 3653   4.264   4.264   2.777 -0.0455 -0.5848 -0.0517
  254SOL    HW1 3654   4.333   4.205   2.744 -0.0900 -0.6992  0.0561
  254SOL    HW2 3655   4.221   4.213   2.846  0.3420 -0.1781  0.4973
  255SOL     OW 3656   7.072   4.732   8.794  0.0818 -0.3915 -0.1561
  255SOL    HW1 3657   6.981   4.747   8.767  0.1360 -1.0674 -0.7390
  255SOL    HW2 3658   7.121   4.726   8.712  0.5822 -0.4677  0.1447
  256SOL     OW 3659   1.711   2.443   6.568  0.0767 -0.1291 -0.5645
  256SOL    HW1 3660   1.665   2.516   6.525 -0.9577 -1.5795 -2.0312
  256SOL    HW2 3661   1.803   2.468   6.565 -0.0996  0.4664 -2.4032
  257SOL     OW 3662   0.187   8.642   5.385 -0.2189  0.4142  0.6626
  257SOL    HW1 3663   0.243   8.720   5.385 -1.8936  1.6814  0.3135
  257SOL    HW2 3664   0.228   8.583   5.448  1.6175  1.1831  0.2492
  258SOL     OW 3665   8.686   1.364   2.827  0.3876 -0.4123 -0.1221
  258SOL    HW1 3666   8.647   1.405   2.905 -0.6856 -1.5485 -0.0207
  258SOL    HW2 3667   8.695   1.272   2.851 -0.3846 -0.8669 -1.4987
  259SOL     OW 3668   8.288   5.902   3.290  0.4848  0.3991 -0.8322
  259SOL    HW1 3669   8.301   5.988   3.332  1.3736  0.5676 -1.4296
  259SOL    HW2 3670   8.229   5.856   3.349  0.2776  1.2935 -0.3148
  260SOL     OW 3671   3.652   1.248   9.187  0.6207  0.1802 -0.0547
  260SOL    HW1 3672   3.719   1.192   9.226 -0.4132 -2.1255 -1.3818
  260SOL    HW2 3673   3.613   1.294   9.261 -0.6636 -3.3014  1.6469
  261SOL     OW 3674   7.178   6.403   7.984  0.1140 -0.3263 -0.6660
  261SOL    HW1 3675   7.150   6.370   8.069 -1.3700  1.1736 -0.5096
  261SOL    HW2 3676   7.097   6.417   7.936  0.8641  0.0413 -1.8719
  262SOL     OW 3677   8.363   1.890   8.045  0.0269 -0.1692 -0.6755
  262SOL    HW1 3678   8.437   1.858   7.994  1.2967 -0.2265  1.0898
  262SOL    HW2 3679   8.312   1.812   8.065 -0.0537 -0.2509 -1.1911
  263SOL     OW 3680   2.219   0.217   5.331 -0.0917 -0.7800  0.4561
  263SOL    HW1 3681   2.301   0.187   5.370 -0.5066 -1.2519  0.9826
  263SOL    HW2 3682   2.151   0.184   5.390 -0.6080  0.6121  0.6619
  264SOL     OW 3683   7.576   0.858   7.243  0.1990 -0.2287 -0.6982
  264SOL    HW1 3684   7.629   0.840   7.165  1.5285 -0.2935  0.1737
  264SOL    HW2 3685   7.545   0.772   7.271  1.8345 -0.5678  0.2427
  265SOL     OW 3686   7.362   9.095   7.015  0.2647  0.6029  0.1355
  265SOL    HW1 3687   7.275   9.070   7.046  0.7395  0.2884  1.2499
  265SOL    HW2 3688   7.386   9.027   6.952 -0.8844  1.4764 -1.3271
  266SOL     OW 3689   9.240   8.967   6.361  0.5305 -0.0306 -0.0803
  266SOL    HW1 3690   9.146   8.985   6.366  0.3606 -0.9497  0.2428
  266SOL    HW2 3691   9.255   8.946   6.269  0.3434 -0.2306 -0.0685
  267SOL     OW 3692   0.732   2.262   0.895 -0.0687  0.6861 -0.2033
  267SOL    HW1 3693   0.758   2.353   0.882  0.2365  0.6738  0.2695
  267SOL    HW2 3694   0.738   2.222   0.809  2.7269  0.3659  0.0504
  268SOL     OW 3695   3.499   7.773   5.668  0.0470  0.0342 -0.5169
  268SOL    HW1 3696   3.510   7.780   5.762 -1.7071  0.3885 -0.2966
  268SOL    HW2 3697   3.543   7.692   5.644  0.3429 -0.1580  0.6384
  269SOL     OW 3698   1.761   5.755   6.157 -0.1390 -0.7182  0.2197
  269SOL    HW1 3699   1.785   5.836   6.203  0.8286 -1.0028  0.2390
  269SOL    HW2 3700   1.805   5.761   6.073 -1.4670 -0.4554 -0.4780
  270SOL     OW 3701   6.429   7.819   9.158  0.2903  0.0566 -0.1755
  270SOL    HW1 3702   6.465   7.906   9.172  1.1654 -0.5851  2.1712
  270SOL    HW2 3703   6.476   7.785   9.082  0.2756  1.4348 -0.8241
  271SOL     OW 3704   7.046   1.929   6.835  0.0088  0.0545  0.3974
  271SOL    HW1 3705   7.056   1.934   6.930  0.4380 -1.9328  0.5056
  271SOL    HW2 3706   7.124   1.882   6.805 -0.4170  0.1189 -0.8670
  272SOL     OW 3707   9.613   2.847   3.636 -0.3365  0.2840  0.6325
  272SOL    HW1 3708   9.536   2.893   3.670  0.0110  0.9863  0.4925
  272SOL    HW2 3709   9.682   2.912   3.638  0.2459 -0.3251  0.6950
  273SOL     OW 3710   1.670   6.807   3.326  0.1807 -0.6526  0.3453
  273SOL    HW1 3711   1.652   6.895   3.358  0.6339 -1.0110  1.6323
  273SOL    HW2 3712   1.587   6.760   3.337  0.4388 -0.8856  1.4305
  274SOL     OW 3713   1.046   1.822   0.969 -0.3080 -0.0959  0.2440
  274SOL    HW1 3714   0.988   1.855   0.900  1.0042 -0.2732 -0.9727
  274SOL    HW2 3715   1.004   1.740   0.997 -1.3353  0.4351  0.3165
  275SOL     OW 3716   2.590   5.233   4.440 -0.0976  0.4873 -0.4434
  275SOL    HW1 3717   2.679   5.224   4.407 -0.0662 -1.0014 -0.0066
  275SOL    HW2 3718   2.596   5.300   4.508  1.2867 -1.4624  1.5042
  276SOL     OW 3719   7.023   5.141   5.901 -0.1045  0.0850 -0.7464
  276SOL    HW1 3720   7.022   5.198   5.977  0.0275 -0.9751  0.0746
  276SOL    HW2 3721   7.040   5.053   5.937  0.9838 -0.2867 -2.0933
  277SOL     OW 3722   9.344   8.486   0.826 -0.0529 -0.1797 -0.3136
  277SOL    HW1 3723   9.271   8.437   0.787  0.2142 -0.5273 -0.3794
  277SOL    HW2 3724   9.414   8.421   0.836  0.8542  0.4845 -1.8205
  278SOL     OW 3725   2.385   5.271   5.635 -0.1195  0.3719 -0.1572
  278SOL    HW1 3726   2.313   5.332   5.648 -0.4724 -0.3844  1.7182
  278SOL    HW2 3727   2.371   5.202   5.700  0.0637 -1.9230 -2.3507
  279SOL     OW 3728   9.252   7.700   4.939  0.2316 -0.5278  0.0229
  279SOL    HW1 3729   9.308   7.776   4.922 -0.7193 -0.1065 -1.4196
  279SOL    HW2 3730   9.206   7.685   4.856 -0.3954 -2.0221  0.6081
  280SOL     OW 3731   5.374   3.667   7.832 -0.4738  0.6932 -0.2422
  280SOL    HW1 3732   5.331   3.620   7.904  0.9869  1.2276  1.0482
  280SOL    HW2 3733   5.421   3.599   7.783  0.9158  0.6235  1.0988
  281SOL     OW 3734   7.636   6.793   4.546  0.5146  0.1615  0.4789
  281SOL    HW1 3735   7.663   6.877   4.509  2.8523 -0.4399  0.7156
  281SOL    HW2 3736   7.569   6.816   4.611 -0.2272  1.6369 -0.7316
  282SOL     OW 3737   1.463   7.161   4.748  0.4117  0.2064 -0.0508
  282SOL    HW1 3738   1.452   7.087   4.688  0.3600  0.6593 -0.6027
  282SOL    HW2 3739   1.487   7.120   4.831  0.0629 -0.4582 -0.2622
  283SOL     OW 3740   9.096   5.982   0.459  0.4218 -0.2802  0.1066
  283SOL    HW1 3741   9.169   6.016   0.511  0.7737  0.1332 -0.6381
  283SOL    HW2 3742   9.131   5.974   0.370 -1.0519  2.0589 -0.7803
  284SOL     OW 3743   9.524   4.239   0.406 -0.0288  0.4320 -0.2966
  284SOL    HW1 3744   9.554   4.149   0.392  1.9393  1.1469 -1.0887
  284SOL    HW2 3745   9.599   4.282   0.447 -0.4116  2.0386 -1.2224
  285SOL     OW 3746   0.361   1.428   0.278 -1.0680  0.3315  0.2924
  285SOL    HW1 3747   0.399   1.348   0.315 -2.3694 -1.2899 -1.6801
  285SOL    HW2 3748   0.269   1.405   0.263 -1.4498  2.2062 -0.3783
  286SOL     OW 3749   4.501   1.473   5.765 -0.1972 -0.1006  0.0538
  286SOL    HW1 3750   4.558   1.548   5.783 -0.7295  0.1794  0.5988
  286SOL    HW2 3751   4.425   1.486   5.822  0.1023 -1.5027  0.8157
  287SOL     OW 3752   0.124   6.463   0.573 -0.3989 -0.3665 -0.1848
  287SOL    HW1 3753   0.100   6.485   0.483  0.9719  1.7415 -0.1099
  287SOL    HW2 3754   0.186   6.391   0.565 -2.6600 -2.3602 -0.6669
  288SOL     OW 3755   3.519   2.432   5.826  0.3148  0.5614  0.0156
  288SOL    HW1 3756   3.604   2.391   5.840  0.0219  0.4126  1.5623
  288SOL    HW2 3757   3.540   2.521   5.798  0.9527 -0.1803 -2.0139
  289SOL     OW 3758   8.963   0.984   0.175 -0.4004 -0.0214 -0.2442
  289SOL    HW1 3759   8.952   0.957   0.083 -1.2907 -0.0684 -0.1348
  289SOL    HW2 3760   8.982   0.902   0.221 -0.6791 -0.1123 -0.2844
  290SOL     OW 3761   1.959   6.077   8.300  0.1450 -0.0933  0.3364
  290SOL    HW1 3762   1.998   6.154   8.343 -1.4264  1.1183 -0.3136
  290SOL    HW2 3763   2.032   6.015   8.292  1.6400  1.5842  0.2498
  291SOL     OW 3764   9.196   9.073   4.951 -0.0606 -0.2974 -0.2287
  291SOL    HW1 3765   9.207   9.166   4.970  0.6593 -0.4976  0.3697
  291SOL    HW2 3766   9.150   9.072   4.867  0.3672  0.6032 -0.4947
  292SOL     OW 3767   1.329   2.340   9.186  0.7418  0.3586 -0.1039
  292SOL    HW1 3768   1.352   2.328   9.093 -0.6481 -1.7342 -0.2499
  292SOL    HW2 3769   1.350   2.432   9.204 -2.1842  1.9505 -3.5027
  293SOL     OW 3770   0.327   1.067   6.117 -0.2737 -0.3924  0.2974
  293SOL    HW1 3771   0.394   1.032   6.059  0.9955  1.4161  0.6081
  293SOL    HW2 3772   0.307   1.153   6.082 -1.6174 -0.4495  0.8792
  294SOL     OW 3773   7.827   1.398   0.830  0.2344  0.0376 -0.0001
  294SOL    HW1 3774   7.809   1.360   0.916  0.5548 -0.3242 -0.0890
  294SOL    HW2 3775   7.916   1.432   0.837  0.3653 -0.2410 -0.2715
  295SOL     OW 3776   1.613   4.586   5.613 -0.2286 -0.2633 -0.1056
  295SOL    HW1 3777   1.594   4.660   5.670 -0.3449 -1.9760  2.2333
  295SOL    HW2 3778   1.605   4.621   5.524 -1.4794  2.1894  0.8824
  296SOL     OW 3779   9.467   6.493   3.325  0.4273  0.1425  0.4248
  296SOL    HW1 3780   9.384   6.446   3.328  0.2368  0.5045  1.0886
  296SOL    HW2 3781   9.444   6.583   3.303  0.8308 -0.1290 -1.2673
  297SOL     OW 3782   4.522   2.349   8.276  0.1052 -0.0590 -0.4162
  297SOL    HW1 3783   4.503   2.272   8.222  0.4249 -0.4257 -0.0159
  297SOL    HW2 3784   4.437   2.390   8.289  0.0853  0.3213 -1.6132
  298SOL     OW 3785   5.999   6.460   8.345  0.1634  0.1200  0.3682
  298SOL    HW1 3786   6.070   6.410   8.304  0.5414 -1.5299  2.8423
  298SOL    HW2 3787   6.043   6.512   8.412 -0.5307  2.1784 -0.6973
  299SOL     OW 3788   5.719   4.661   1.325 -0.0862  0.4682 -0.0390
  299SOL    HW1 3789   5.762   4.700   1.249  0.5349 -0.8955 -0.4251
  299SOL    HW2 3790   5.707   4.569   1.301 -1.3635  0.3672  0.8865
  300SOL     OW 3791   5.638   6.827   0.779  0.0543  0.5282 -0.4853
  300SOL    HW1 3792   5.679   6.846   0.694 -0.0915  1.3025 -0.3850
  300SOL    HW2 3793   5.682   6.747   0.809 -0.0318  0.1392 -1.3786
  301SOL     OW 3794   2.909   3.063   6.977 -0.6389  0.0413  0.2014
  301SOL    HW1 3795   2.929   3.081   6.885  0.8434 -3.2771 -0.2641
  301SOL    HW2 3796   2.822   3.100   6.991 -0.6398  1.1616 -2.3280
  302SOL     OW 3797   0.911   2.151   5.866 -0.1709  0.0500 -0.2961
  302SOL    HW1 3798   0.966   2.215   5.911 -0.2231 -1.1803  1.6627
  302SOL    HW2 3799   0.827   2.155   5.913 -0.7971 -0.1349 -1.3712
  303SOL     OW 3800   6.631   3.579   8.671  0.3074  0.0230 -0.0871
  303SOL    HW1 3801   6.685   3.558   8.747 -0.3584 -1.4021  0.0277
  303SOL    HW2 3802   6.571   3.646   8.702  1.4448  1.0216  0.0167
  304SOL     OW 3803   5.397   5.868   7.078 -0.4496  0.4066  0.4061
  304SOL    HW1 3804   5.334   5.881   7.006 -1.0433  0.5077  0.9374
  304SOL    HW2 3805   5.405   5.773   7.085  0.9395  0.3818 -0.9238
  305SOL     OW 3806   1.188   4.687   4.620  0.3656 -0.5583  0.0694
  305SOL    HW1 3807   1.097   4.683   4.652  0.1430 -1.7972 -0.6561
  305SOL    HW2 3808   1.237   4.631   4.681  0.2678 -1.4638 -0.6591
  306SOL     OW 3809   2.556   1.804   2.447  0.5193  0.1356  0.4823
  306SOL    HW1 3810   2.614   1.820   2.521  0.9169  1.8222 -0.1415
  306SOL    HW2 3811   2.588   1.722   2.409 -0.1801 -1.1800  2.5830
  307SOL     OW 3812   7.676   3.845   8.276 -0.1115 -0.0894 -0.3675
  307SOL    HW1 3813   7.724   3.860   8.194 -0.4023  0.3841 -0.4562
  307SOL    HW2 3814   7.584   3.857   8.252 -0.3798 -1.9368 -0.4251
  308SOL     OW 3815   9.228   7.115   0.307  0.2176  0.0963  0.2090
  308SOL    HW1 3816   9.135   7.112   0.333  0.1989 -0.1617  0.1132
  308SOL    HW2 3817   9.246   7.028   0.271  0.8282 -0.2820  1.3636
  309SOL     OW 3818   8.474   5.108   5.219  0.1425  0.4483 -0.5629
  309SOL    HW1 3819   8.455   5.169   5.291  1.1608  0.5727 -0.3779
  309SOL    HW2 3820   8.497   5.026   5.263 -0.0572  0.2738 -0.7788
  310SOL     OW 3821   3.428   3.143   7.364  0.4133 -0.0358 -0.2444
  310SOL    HW1 3822   3.485   3.092   7.421  2.4052  1.5393 -0.6877
  310SOL    HW2 3823   3.398   3.081   7.298  1.6392 -0.9447  0.0140
  311SOL     OW 3824   1.953   4.842   4.479  0.2743  0.1651  0.3225
  311SOL    HW1 3825   1.871   4.794   4.473 -0.1940  1.0173 -0.2693
  311SOL    HW2 3826   1.995   4.828   4.394  0.6132 -0.0102  0.5114
  312SOL     OW 3827   8.569   9.010   2.394  0.1329  0.0579 -0.6306
  312SOL    HW1 3828   8.655   8.979   2.423 -0.4640 -1.1813 -0.1298
  312SOL    HW2 3829   8.549   8.955   2.318 -0.0629  0.5989 -0.9772
  313SOL     OW 3830   3.911   3.416   5.660  0.0104  0.9215  0.3793
  313SOL    HW1 3831   3.964   3.494   5.675  0.9273 -0.0628  2.7404
  313SOL    HW2 3832   3.927   3.361   5.737 -1.3547 -1.1753 -0.7408
  314SOL     OW 3833   5.321   5.097   4.476 -0.2020  0.0952  0.1003
  314SOL    HW1 3834   5.277   5.147   4.407  1.0211 -0.3173 -1.0112
  314SOL    HW2 3835   5.407   5.077   4.441  0.5743  0.1026  1.8706
  315SOL     OW 3836   9.408   4.865   5.480 -0.2089  0.3381  0.3655
  315SOL    HW1 3837   9.343   4.794   5.469 -0.7209  0.7269  0.8154
  315SOL    HW2 3838   9.384   4.929   5.413  0.7937 -0.2840 -0.6327
  316SOL     OW 3839   9.121   9.270   4.491  0.4054  0.0313  1.2046
  316SOL    HW1 3840   9.210   9.239   4.508 -0.2106 -1.7868  1.2929
  316SOL    HW2 3841   9.132   9.337   4.423  1.6019 -2.2997 -1.0706
  317SOL     OW 3842   1.022   8.375   3.398  0.3988  0.0012 -0.1204
  317SOL    HW1 3843   0.951   8.312   3.404 -0.4098  0.8541 -0.4201
  317SOL    HW2 3844   1.069   8.367   3.481  0.1796 -0.8240 -0.0694
  318SOL     OW 3845   3.452   6.268   8.647  0.2424  0.1123  0.3390
  318SOL    HW1 3846   3.507   6.283   8.570  0.1975 -0.5284  0.1770
  318SOL    HW2 3847   3.390   6.341   8.647  0.9334  0.7200  0.3923
  319SOL     OW 3848   2.369   6.623   7.753 -0.0095  0.0685  0.7772
  319SOL    HW1 3849   2.281   6.605   7.783 -0.5691  0.9731 -0.2200
  319SOL    HW2 3850   2.376   6.576   7.670  0.2187  0.4866  0.5544
  320SOL     OW 3851   8.255   2.932   0.397 -0.1916 -0.0663  0.8113
  320SOL    HW1 3852   8.232   2.979   0.317  0.2740 -0.3691  0.4909
  320SOL    HW2 3853   8.180   2.946   0.455 -1.8439 -2.0870 -0.6510
  321SOL     OW 3854   1.898   2.823   6.470  0.2842  0.3654  0.3255
  321SOL    HW1 3855   1.955   2.899   6.470 -3.4865  3.5724  1.8331
  321SOL    HW2 3856   1.868   2.815   6.379  1.0963  0.2925  0.0600
  322SOL     OW 3857   7.623   6.720   9.267 -0.1143 -0.1124  0.0545
  322SOL    HW1 3858   7.533   6.692   9.249  0.3356 -1.6926  0.0445
  322SOL    HW2 3859   7.644   6.781   9.196 -1.0008 -0.1533 -0.2569
  323SOL     OW 3860   0.125   2.569   3.580  0.0537  0.3437  1.0395
  323SOL    HW1 3861   0.078   2.651   3.571  0.7985  0.7289  0.4514
  323SOL    HW2 3862   0.153   2.566   3.671 -1.8432 -0.3266  1.6405
  324SOL     OW 3863   9.538   1.384   7.205  0.5012 -0.0209  0.1222
  324SOL    HW1 3864   9.513   1.431   7.284 -2.8268  0.1997 -0.9115
  324SOL    HW2 3865   9.472   1.316   7.194  0.2337  0.5618 -2.9279
  325SOL     OW 3866   4.356   9.603   0.892  0.3254 -0.2114 -0.1998
  325SOL    HW1 3867   4.371   9.631   0.983  1.5135  0.0756 -0.4731
  325SOL    HW2 3868   4.443   9.578   0.860 -0.1528 -0.7401 -1.1240
  326SOL     OW 3869   4.332   4.041   8.451 -0.5005  0.8257  0.3112
  326SOL    HW1 3870   4.283   4.067   8.529  0.4297 -1.2473  1.6525
  326SOL    HW2 3871   4.320   3.947   8.445 -0.2069  0.8722 -1.8570
  327SOL     OW 3872   8.758   5.606   4.875  0.6280  0.4667  0.1942
  327SOL    HW1 3873   8.811   5.630   4.951  1.0510 -1.2173  0.4698
  327SOL    HW2 3874   8.800   5.652   4.802  0.5296  1.6842  0.8685
  328SOL     OW 3875   1.618   6.599   6.258 -0.4545  0.7216 -0.0053
  328SOL    HW1 3876   1.595   6.585   6.166 -0.5607 -0.5596  0.1947
  328SOL    HW2 3877   1.681   6.529   6.277 -0.6694  0.7883  0.9761
  329SOL     OW 3878   0.658   2.940   1.914  0.4705 -0.3999  0.5727
  329SOL    HW1 3879   0.725   2.965   1.850  0.0984 -0.3724  0.1892
  329SOL    HW2 3880   0.680   2.851   1.939  0.9917 -0.1869  0.8917
  330SOL     OW 3881   4.871   1.128   3.497  0.0312 -0.0689  0.0559
  330SOL    HW1 3882   4.892   1.050   3.444  3.0750  0.0895  0.8546
  330SOL    HW2 3883   4.906   1.201   3.447  2.1459  0.1770  1.7829
  331SOL     OW 3884   0.910   2.181   6.146  0.6665 -0.8743  0.2754
  331SOL    HW1 3885   0.865   2.234   6.210 -0.1571 -1.3023  0.0608
  331SOL    HW2 3886   0.842   2.153   6.085  1.2388 -1.4186 -0.1321
  332SOL     OW 3887   1.076   5.254   3.841 -0.6848 -0.8626  0.8332
  332SOL    HW1 3888   1.024   5.174   3.847 -1.2338 -0.6371 -0.6152
  332SOL    HW2 3889   1.143   5.234   3.775  0.8678 -1.0106  2.3646
  333SOL     OW 3890   9.488   3.304   1.220 -0.2065  0.1077  0.2720
  333SOL    HW1 3891   9.533   3.223   1.245 -1.6053 -0.4001  1.2311
  333SOL    HW2 3892   9.442   3.282   1.139 -0.0558  0.1590  0.1702
  334SOL     OW 3893   6.540   4.386   2.459 -0.1713 -0.0552 -0.1706
  334SOL    HW1 3894   6.573   4.298   2.479  0.5561  0.7255  2.4717
  334SOL    HW2 3895   6.455   4.390   2.504 -0.5457  0.3519 -0.9074
  335SOL     OW 3896   8.681   8.842   0.660  0.0431  0.2910 -0.0409
  335SOL    HW1 3897   8.692   8.929   0.620  1.6937 -0.2708 -0.8932
  335SOL    HW2 3898   8.587   8.836   0.677 -0.0428  2.4673  0.5880
  336SOL     OW 3899   6.728   8.913   8.106 -0.2555 -0.3697  0.0755
  336SOL    HW1 3900   6.697   8.992   8.062  0.0088 -1.6307 -2.5795
  336SOL    HW2 3901   6.823   8.914   8.093 -0.3245 -1.4675 -0.6682
  337SOL     OW 3902   3.820   9.168   2.221 -0.3199  0.5601 -0.6726
  337SOL    HW1 3903   3.739   9.182   2.172 -0.2997  1.1282 -0.5519
  337SOL    HW2 3904   3.802   9.207   2.307 -0.1554  0.0855 -0.4248
  338SOL     OW 3905   4.136   4.600   3.393  0.0592  0.1074  0.7067
  338SOL    HW1 3906   4.056   4.627   3.349  0.5132  1.2424  0.5564
  338SOL    HW2 3907   4.172   4.530   3.338  0.7834  1.7012 -0.9258
  339SOL     OW 3908   5.067   1.135   5.964 -0.1617 -0.0170  0.4356
  339SOL    HW1 3909   5.059   1.111   6.057  0.3027 -0.6189  0.3246
  339SOL    HW2 3910   4.981   1.113   5.927  0.0574 -0.9853  0.4640
  340SOL     OW 3911   6.889   3.721   7.404  0.1929  0.4009 -0.2692
  340SOL    HW1 3912   6.906   3.734   7.311  2.0652  0.8511  0.1049
  340SOL    HW2 3913   6.947   3.782   7.449  0.3563 -0.7845  1.2397
  341SOL     OW 3914   6.446   4.977   8.941  0.2491  1.2629 -0.1395
  341SOL    HW1 3915   6.367   4.945   8.985 -0.1589  0.7627 -1.1781
  341SOL    HW2 3916   6.518   4.949   8.997 -0.2297  0.3661  0.0489
  342SOL     OW 3917   0.434   4.029   8.769 -0.0618 -0.2620 -0.5214
  342SOL    HW1 3918   0.346   4.055   8.741 -1.1480 -0.9243  1.9508
  342SOL    HW2 3919   0.486   4.027   8.689 -1.6938  2.4083 -1.7910
  343SOL     OW 3920   1.455   9.526   9.310 -0.7746  0.1602  0.5897
  343SOL    HW1 3921   1.451   9.574   9.228 -0.8905 -1.8671 -0.6509
  343SOL    HW2 3922   1.368   9.489   9.321 -0.3227 -0.8853  0.7859
  344SOL     OW 3923   7.907   5.226   1.466 -0.2316  0.0159 -0.5084
  344SOL    HW1 3924   7.909   5.136   1.433 -1.0213 -0.3299  0.3240
  344SOL    HW2 3925   7.880   5.279   1.392  2.1557 -0.1216 -1.5867
  345SOL     OW 3926   5.291   9.291   7.673  0.0522 -0.0544 -0.4282
  345SOL    HW1 3927   5.238   9.216   7.702  0.9907  0.1765  2.1021
  345SOL    HW2 3928   5.359   9.253   7.618 -0.0208 -0.9513  0.0903
  346SOL     OW 3929   0.614   8.861   8.002 -0.6185  0.7836 -0.2968
  346SOL    HW1 3930   0.641   8.813   8.080 -0.3448  1.3735 -0.0293
  346SOL    HW2 3931   0.557   8.930   8.034  0.7157  1.9956 -0.4321
  347SOL     OW 3932   4.159   5.852   1.486 -0.3370  0.3181 -0.4699
  347SOL    HW1 3933   4.184   5.849   1.393 -1.4483 -0.8238 -0.7530
  347SOL    HW2 3934   4.093   5.921   1.491  1.0341  1.6688 -0.1550
  348SOL     OW 3935   2.788   4.872   7.869 -0.2093  0.1481  0.2435
  348SOL    HW1 3936   2.810   4.786   7.834 -0.0735  0.7560 -1.2098
  348SOL    HW2 3937   2.698   4.888   7.842 -0.8924 -0.2848  2.0854
  349SOL     OW 3938   3.194   1.593   5.011  0.0882  0.4293  0.0593
  349SOL    HW1 3939   3.277   1.546   5.015 -0.6404 -0.8802  0.2308
  349SOL    HW2 3940   3.194   1.635   4.925  0.8040  0.2279 -0.0431
  350SOL     OW 3941   2.828   2.281   2.280  0.2064  1.0114  0.1880
  350SOL    HW1 3942   2.914   2.256   2.244  1.3336  3.8488  0.6668
  350SOL    HW2 3943   2.771   2.285   2.204  1.2949  2.0548 -0.6100
  351SOL     OW 3944   1.571   5.181   2.098 -0.0855  0.6158  0.1134
  351SOL    HW1 3945   1.476   5.189   2.095 -0.4604 -2.2804  1.1987
  351SOL    HW2 3946   1.597   5.169   2.007 -0.6182  2.1728 -0.2743
  352SOL     OW 3947   8.833   7.783   9.379  0.1653 -0.5361  0.2418
  352SOL    HW1 3948   8.923   7.811   9.397 -0.3027  0.2156  1.5600
  352SOL    HW2 3949   8.784   7.865   9.369 -0.1684 -0.9363 -1.7423
  353SOL     OW 3950   0.471   3.435   5.826  0.1888  0.0509 -0.1341
  353SOL    HW1 3951   0.563   3.437   5.855  0.8935 -2.0313 -1.9058
  353SOL    HW2 3952   0.454   3.524   5.795  1.3332  0.6977  0.9662
  354SOL     OW 3953   5.227   3.028   7.612 -0.3712  0.5147  0.2129
  354SOL    HW1 3954   5.205   2.940   7.642  0.7982  0.2328  0.3247
  354SOL    HW2 3955   5.172   3.086   7.663 -1.4045 -0.1604 -0.0965
  355SOL     OW 3956   8.284   0.066   2.277 -0.2648 -0.3069  0.1705
  355SOL    HW1 3957   8.281   0.082   2.371 -0.2482  0.0369  0.1146
  355SOL    HW2 3958   8.344  -0.007   2.267  1.3250  0.9480  0.2662
  356SOL     OW 3959   6.743   2.019   2.592 -0.4879  0.4632 -0.6198
  356SOL    HW1 3960   6.688   2.061   2.659 -0.1788  0.9417 -0.6644
  356SOL    HW2 3961   6.812   1.975   2.642 -1.3992 -0.9007 -0.5041
  357SOL     OW 3962   5.577   4.971   8.017  0.5784  0.0913 -0.2412
  357SOL    HW1 3963   5.627   4.967   8.098  0.7892 -0.3682 -0.3863
  357SOL    HW2 3964   5.560   5.064   8.003  0.4997  0.1682  0.3522
  358SOL     OW 3965   0.097   1.287   0.998  0.2215  0.3158  0.8311
  358SOL    HW1 3966   0.072   1.224   1.066 -1.6567  0.3132  0.1831
  358SOL    HW2 3967   0.042   1.363   1.014 -0.1019  0.3962 -0.5554
  359SOL     OW 3968   6.694   4.793   2.141 -0.4439  0.0948  0.2073
  359SOL    HW1 3969   6.751   4.838   2.078 -0.1953  0.9153  0.9922
  359SOL    HW2 3970   6.729   4.705   2.148  1.2885  0.8155  1.2943
  360SOL     OW 3971   7.724   7.277   5.290 -0.4593 -0.1145  0.2526
  360SOL    HW1 3972   7.745   7.185   5.275 -1.5024 -0.2183 -0.6698
  360SOL    HW2 3973   7.699   7.281   5.382  0.3292 -0.5991  0.4984
  361SOL     OW 3974   3.783   8.052   3.379 -0.2461  0.3484 -0.2017
  361SOL    HW1 3975   3.778   7.960   3.402 -0.7689  0.6117  0.8239
  361SOL    HW2 3976   3.789   8.098   3.463 -0.7546  1.2827 -0.6520
  362SOL     OW 3977   6.632   2.873   9.264 -0.6966  0.6905 -0.1510
  362SOL    HW1 3978   6.606   2.785   9.292 -0.5197  0.7588  0.2352
  362SOL    HW2 3979   6.655   2.918   9.345  0.9523  0.5197 -0.4832
  363SOL     OW 3980   8.693   0.465   5.673  0.3500  0.0450  0.0522
  363SOL    HW1 3981   8.771   0.520   5.665  0.0665  0.2841 -1.2538
  363SOL    HW2 3982   8.724   0.387   5.719  0.6005  1.5524  2.6495
  364SOL     OW 3983   3.549   1.032   4.011 -0.0184 -0.3126  0.2515
  364SOL    HW1 3984   3.567   1.105   4.070  1.4235 -1.4061  1.2389
  364SOL    HW2 3985   3.603   1.048   3.934  1.7728 -1.2052  1.2448
  365SOL     OW 3986   7.441   8.240   2.027  0.0001 -0.9669  0.0931
  365SOL    HW1 3987   7.505   8.305   1.997  1.2606 -1.9349  0.5883
  365SOL    HW2 3988   7.422   8.264   2.117 -1.0802 -0.1254 -0.3450
  366SOL     OW 3989   5.077   2.269   5.141  0.1684 -0.0575 -0.0392
  366SOL    HW1 3990   5.057   2.304   5.054  1.6889  1.0813  0.0365
  366SOL    HW2 3991   5.170   2.248   5.137  0.3116  0.2449  1.3882
  367SOL     OW 3992   1.244   0.264   5.817 -0.1598  0.2762 -0.2548
  367SOL    HW1 3993   1.204   0.221   5.892 -0.4118 -0.3440 -0.7362
  367SOL    HW2 3994   1.332   0.228   5.812  0.2998  1.2447  0.4820
  368SOL     OW 3995   0.551   5.270   7.163  0.3554 -0.4501  0.0677
  368SOL    HW1 3996   0.494   5.248   7.089 -0.8403 -0.8776  1.0853
  368SOL    HW2 3997   0.514   5.351   7.199  1.4578  0.2459 -0.3100
  369SOL     OW 3998   6.451   7.065   1.405 -0.3751 -0.1336 -0.0682
  369SOL    HW1 3999   6.431   7.156   1.382 -3.0329 -0.3188  1.1890
  369SOL    HW2 4000   6.433   7.060   1.499  0.2098 -1.8499 -0.0316
  370SOL     OW 4001   6.887   5.057   3.801  0.6649 -0.2044 -0.1294
  370SOL    HW1 4002   6.867   5.133   3.747  1.5956 -1.2990 -2.0829
  370SOL    HW2 4003   6.965   5.083   3.851  1.0126  0.1028 -0.8235
  371SOL     OW 4004   3.344   3.800   8.402 -0.0162 -0.0849 -0.0705
  371SOL    HW1 4005   3.408   3.856   8.446 -0.7190  1.7431 -1.2666
  371SOL    HW2 4006   3.297   3.756   8.474  1.0480  0.2850  0.8775
  372SOL     OW 4007   9.439   9.125   4.229  0.1847  0.3363  0.6666
  372SOL    HW1 4008   9.351   9.135   4.193 -0.1354 -0.7107  1.1083
  372SOL    HW2 4009   9.441   9.036   4.263  2.0822 -0.3504 -1.0819
  373SOL     OW 4010   9.214   5.026   7.434 -0.7700 -0.2367  0.0862
  373SOL    HW1 4011   9.126   5.008   7.400 -0.9339  0.1779  0.2888
  373SOL    HW2 4012   9.253   4.940   7.446 -1.1865 -0.4251  0.0921
  374SOL     OW 4013   8.351   5.228   8.388  0.2160  0.0677  0.1429
  374SOL    HW1 4014   8.366   5.310   8.341  0.0846  0.8642  1.4437
  374SOL    HW2 4015   8.271   5.193   8.349 -0.2856  1.0716  0.2235
  375SOL     OW 4016   4.184   0.017   4.214  0.2512 -0.5216  0.2817
  375SOL    HW1 4017   4.179  -0.077   4.195  0.4187 -0.5202  0.2296
  375SOL    HW2 4018   4.273   0.030   4.247  0.0848 -0.4586  0.7063
  376SOL     OW 4019   2.827   0.798   1.569  0.5366 -0.0485 -0.2312
  376SOL    HW1 4020   2.797   0.816   1.480  0.3598 -0.4074 -0.2465
  376SOL    HW2 4021   2.783   0.864   1.623 -2.0823 -1.8585  0.0565
  377SOL     OW 4022   4.115   0.652   7.626 -0.6340  0.1689  0.1654
  377SOL    HW1 4023   4.113   0.712   7.552 -0.2251  1.0580  0.8506
  377SOL    HW2 4024   4.201   0.610   7.621 -1.2506 -1.0656 -0.8237
  378SOL     OW 4025   4.689   0.258   8.670  0.4493  0.1291 -0.2739
  378SOL    HW1 4026   4.735   0.183   8.708  1.6332 -0.2236 -2.2968
  378SOL    HW2 4027   4.598   0.230   8.666  0.6388 -0.6287  0.3218
  379SOL     OW 4028   1.784   4.252   3.726 -0.6409  0.2074 -0.2549
  379SOL    HW1 4029   1.838   4.270   3.649 -0.0532  0.8597  0.2924
  379SOL    HW2 4030   1.800   4.327   3.784 -0.0020 -0.9234  1.0973
  380SOL     OW 4031   7.793   0.581   2.280 -0.3769  0.1803  0.2399
  380SOL    HW1 4032   7.775   0.663   2.326  0.1836  0.2769  0.2929
  380SOL    HW2 4033   7.799   0.605   2.188 -2.4683 -0.1617 -0.0338
  381SOL     OW 4034   4.199   0.562   4.132 -0.2677  0.2937  0.0732
  381SOL    HW1 4035   4.214   0.468   4.146  1.3078  0.4170 -0.5194
  381SOL    HW2 4036   4.124   0.566   4.073  0.6452 -0.7019 -1.2391
  382SOL     OW 4037   1.179   0.391   7.136  0.3538  0.2637 -0.0358
  382SOL    HW1 4038   1.201   0.367   7.226 -1.5776 -0.8827  0.1921
  382SOL    HW2 4039   1.244   0.345   7.083  2.3759  2.0358  0.7401
  383SOL     OW 4040   1.058   8.185   9.198 -0.3896  0.4854  0.2278
  383SOL    HW1 4041   1.034   8.230   9.117  1.1048  0.1173 -0.4428
  383SOL    HW2 4042   1.136   8.134   9.176  1.2876  1.9302  2.3701
  384SOL     OW 4043   7.764   5.334   2.119  0.1034  0.4471  0.1737
  384SOL    HW1 4044   7.681   5.331   2.168 -0.3145  1.0632 -0.4694
  384SOL    HW2 4045   7.764   5.421   2.079  0.4329 -0.0331 -0.9081
  385SOL     OW 4046   4.220   2.764   2.540  0.5381 -0.5588  0.2137
  385SOL    HW1 4047   4.293   2.760   2.601 -1.9225 -1.2474  3.3472
  385SOL    HW2 4048   4.156   2.821   2.582 -1.3012 -1.0536 -1.7262
  386SOL     OW 4049   5.706   4.715   1.880 -0.1085 -0.3589 -0.0776
  386SOL    HW1 4050   5.647   4.786   1.852 -0.1047  0.1051  1.0350
  386SOL    HW2 4051   5.666   4.682   1.960  2.3398  1.5492  2.0840
  387SOL     OW 4052   1.387   2.922   7.768 -0.0022  0.2451  0.2451
  387SOL    HW1 4053   1.365   2.855   7.833 -1.2700 -0.4955 -0.8832
  387SOL    HW2 4054   1.432   2.990   7.817  0.2555 -0.8960  1.6481
  388SOL     OW 4055   2.717   5.033   4.898 -0.2886  0.1304 -0.0527
  388SOL    HW1 4056   2.791   5.010   4.842  0.1430  1.8590 -0.2646
  388SOL    HW2 4057   2.752   5.098   4.959 -1.3313  0.0428  0.6702
  389SOL     OW 4058   2.567   0.732   5.406  0.0067  0.5526 -0.2988
  389SOL    HW1 4059   2.652   0.758   5.442 -0.0675  0.9598 -0.4198
  389SOL    HW2 4060   2.586   0.651   5.358  0.1200  0.0287  0.5884
  390SOL     OW 4061   9.532   6.441   7.022  0.3778 -0.2571  0.4118
  390SOL    HW1 4062   9.538   6.347   7.039 -0.9366 -0.0184  2.5747
  390SOL    HW2 4063   9.508   6.479   7.107 -0.5828  1.8756 -0.7385
  391SOL     OW 4064   8.047   8.737   9.492  0.1809  0.4401  0.1569
  391SOL    HW1 4065   8.088   8.780   9.566 -0.4434  1.3770 -0.0318
  391SOL    HW2 4066   8.098   8.765   9.416  0.4335 -0.0250  0.1446
  392SOL     OW 4067   7.376   4.542   9.432 -0.1158  0.0905 -0.3440
  392SOL    HW1 4068   7.426   4.461   9.429 -1.6913 -0.9525  0.1524
  392SOL    HW2 4069   7.394   4.577   9.519 -0.8841 -0.7293  0.1629
  393SOL     OW 4070   7.329   7.176   8.450  0.1632  0.1376 -0.1357
  393SOL    HW1 4071   7.295   7.087   8.442  0.0389 -0.0002  1.5410
  393SOL    HW2 4072   7.298   7.221   8.371 -1.8576 -0.6431  0.1488
  394SOL     OW 4073   1.864   7.692   7.212 -0.0135 -0.2138 -0.7430
  394SOL    HW1 4074   1.828   7.758   7.153 -1.5606  0.2376  0.6142
  394SOL    HW2 4075   1.828   7.714   7.298  2.4217 -0.6183  0.4864
  395SOL     OW 4076   4.016   3.726   0.315 -0.4526 -0.1231  0.2793
  395SOL    HW1 4077   3.941   3.686   0.360 -0.9792  1.1110  0.5316
  395SOL    HW2 4078   4.023   3.814   0.352  0.0296  0.4084 -0.9988
  396SOL     OW 4079   8.408   6.821   7.058 -0.5583  0.2162 -0.4394
  396SOL    HW1 4080   8.435   6.734   7.088  0.1381  0.2896 -0.8257
  396SOL    HW2 4081   8.346   6.804   6.987  0.9327 -0.0069 -1.7460
  397SOL     OW 4082   7.318   1.616   6.337 -0.3390  0.6646 -0.1046
  397SOL    HW1 4083   7.388   1.586   6.395 -0.9276 -1.8380 -0.5627
  397SOL    HW2 4084   7.363   1.663   6.267  0.7584  0.2809  0.3203
  398SOL     OW 4085   1.592   8.089   6.580 -0.3821  0.1681 -0.8061
  398SOL    HW1 4086   1.667   8.034   6.557 -0.3316 -0.0081 -0.2521
  398SOL    HW2 4087   1.517   8.029   6.577 -0.2091 -0.1677  0.6537
  399SOL     OW 4088   0.713   0.136   7.506  0.8294  0.2494 -0.4011
  399SOL    HW1 4089   0.712   0.188   7.586 -1.8101  0.7129 -0.6553
  399SOL    HW2 4090   0.711   0.045   7.536  2.3209  0.3319  0.0211
  400SOL     OW 4091   8.427   1.812   6.612  0.6226 -0.6915  0.2440
  400SOL    HW1 4092   8.398   1.882   6.670 -1.0053  0.6103 -1.9692
  400SOL    HW2 4093   8.419   1.732   6.665 -1.5247  0.3157  1.5762
  401SOL     OW 4094   2.880   2.832   8.736  0.2416  0.0332 -0.5679
  401SOL    HW1 4095   2.968   2.799   8.717  0.3826 -1.2566  1.8990
  401SOL    HW2 4096   2.822   2.779   8.680  0.9236  0.0960 -1.3569
  402SOL     OW 4097   9.465   4.285   1.819  0.1399 -0.0762  0.4712
  402SOL    HW1 4098   9.386   4.306   1.870  0.6681  1.3071  0.7648
  402SOL    HW2 4099   9.537   4.318   1.873  0.6360  3.1661 -1.9233
  403SOL     OW 4100   6.720   1.104   3.235 -0.1368 -0.4828 -0.1384
  403SOL    HW1 4101   6.765   1.179   3.273 -0.3677  0.5678 -1.8533
  403SOL    HW2 4102   6.778   1.030   3.251  0.1697  0.0679  1.4370
  404SOL     OW 4103   6.451   5.364   0.927  0.4064 -0.2821 -0.2497
  404SOL    HW1 4104   6.520   5.334   0.986  0.9538  1.8542  0.2735
  404SOL    HW2 4105   6.493   5.367   0.841  1.4659  2.2651  0.2697
  405SOL     OW 4106   7.200   7.221   2.871  0.2773 -0.4587 -0.5286
  405SOL    HW1 4107   7.109   7.216   2.899  1.1480 -0.7370  2.7622
  405SOL    HW2 4108   7.228   7.130   2.865  0.6176 -0.3671 -0.3658
  406SOL     OW 4109   2.259   4.490   7.885  0.2276  0.8996 -0.0822
  406SOL    HW1 4110   2.317   4.462   7.956 -1.6552  2.3297  2.1360
  406SOL    HW2 4111   2.313   4.482   7.806  2.2324 -1.3267  1.3588
  407SOL     OW 4112   1.151   7.129   3.355 -0.3258 -0.0112  0.0737
  407SOL    HW1 4113   1.090   7.056   3.349  0.0679 -0.2195 -1.7685
  407SOL    HW2 4114   1.144   7.158   3.446 -1.2801 -1.6402  0.5570
  408SOL     OW 4115   2.339   0.113   4.658 -0.0477 -0.3121 -0.4363
  408SOL    HW1 4116   2.310   0.180   4.720 -0.3330  0.0361 -0.9420
  408SOL    HW2 4117   2.401   0.060   4.708  0.2764  0.4032 -0.0653
  409SOL     OW 4118   6.857   4.504   6.561 -0.2700  0.4959  0.4179
  409SOL    HW1 4119   6.844   4.548   6.477  0.3219  0.7947  0.4779
  409SOL    HW2 4120   6.915   4.430   6.541 -1.1900 -0.2269  0.3326
  410SOL     OW 4121   1.115   0.413   6.415 -0.5102  0.8716 -0.2460
  410SOL    HW1 4122   1.186   0.471   6.444 -0.7437  1.5432 -0.9824
  410SOL    HW2 4123   1.118   0.340   6.476  0.7246  0.9623 -0.1630
  411SOL     OW 4124   6.876   3.957   4.572  0.6344 -0.0769 -1.1380
  411SOL    HW1 4125   6.959   3.972   4.527  2.0107  1.4053  1.6330
  411SOL    HW2 4126   6.809   3.968   4.505  2.5480  1.6240 -2.8681
  412SOL     OW 4127   3.174   6.565   2.188  0.1477 -0.1866 -0.1149
  412SOL    HW1 4128   3.116   6.578   2.262 -0.8828 -0.5856 -0.8333
  412SOL    HW2 4129   3.172   6.648   2.140 -0.7516 -0.5628 -0.7598
  413SOL     OW 4130   1.235   4.810   2.885  0.5078 -0.2612  0.0922
  413SOL    HW1 4131   1.230   4.773   2.797  0.1012 -0.4946  0.2102
  413SOL    HW2 4132   1.215   4.737   2.943 -0.4113  0.1633  0.3225
  414SOL     OW 4133   3.660   5.875   3.557 -0.1958 -0.5514 -0.1210
  414SOL    HW1 4134   3.710   5.954   3.576 -0.0964 -0.3587 -1.1556
  414SOL    HW2 4135   3.673   5.860   3.463  0.4437 -2.2427  0.2090
  415SOL     OW 4136   6.372   7.565   4.357  0.0135  0.1001 -0.0340
  415SOL    HW1 4137   6.430   7.619   4.410  2.0139 -1.0548 -0.9352
  415SOL    HW2 4138   6.304   7.625   4.326 -0.2680  1.1404  2.4196
  416SOL     OW 4139   0.948   0.910   2.986  0.4539 -0.2589  0.2393
  416SOL    HW1 4140   0.977   0.820   2.976 -3.8646 -1.8999  0.4366
  416SOL    HW2 4141   0.968   0.932   3.077 -2.2758 -2.7886  1.6184
  417SOL     OW 4142   6.543   3.721   8.138 -0.0677 -0.2830  0.3699
  417SOL    HW1 4143   6.564   3.742   8.047  1.2529  0.4806  0.8200
  417SOL    HW2 4144   6.541   3.806   8.182 -1.1399 -0.6054  0.9791
  418SOL     OW 4145   3.678   1.103   9.583  0.2786 -0.0580 -0.3516
  418SOL    HW1 4146   3.758   1.067   9.620 -0.2286 -1.1043 -0.2385
  418SOL    HW2 4147   3.654   1.043   9.513 -1.5487 -0.9837  0.9887
  419SOL     OW 4148   4.338   8.201   3.331 -0.1387  0.3482 -0.1423
  419SOL    HW1 4149   4.426   8.187   3.365  0.4732  0.8734 -1.4773
  419SOL    HW2 4150   4.312   8.116   3.294 -0.3778  0.0833  0.5945
  420SOL     OW 4151   7.288   0.860   5.466 -0.0736  0.3076 -0.2702
  420SOL    HW1 4152   7.286   0.924   5.537 -0.6700  1.4075 -1.2542
  420SOL    HW2 4153   7.262   0.778   5.508  0.2192  0.7897  0.9097
  421SOL     OW 4154   6.932   2.979   6.846 -0.8181 -0.3905 -0.2399
  421SOL    HW1 4155   6.976   3.014   6.924 -1.8858  2.2446 -0.6912
  421SOL    HW2 4156   6.992   2.998   6.774 -1.1531  0.0262 -0.4170
  422SOL     OW 4157   7.009   3.977   2.012 -0.0021  0.1615 -0.0114
  422SOL    HW1 4158   7.095   3.962   2.052 -0.3201 -2.6208 -0.2124
  422SOL    HW2 4159   6.991   3.898   1.962 -2.3579  1.0075 -0.6393
  423SOL     OW 4160   9.538   7.855   3.013  0.4082 -0.1190 -0.0716
  423SOL    HW1 4161   9.597   7.930   3.008 -0.6685  0.7067 -1.1981
  423SOL    HW2 4162   9.462   7.888   3.061  0.5178 -0.9432  0.7038
  424SOL     OW 4163   4.981   8.505   5.317  0.1906 -0.6243 -0.5394
  424SOL    HW1 4164   5.066   8.525   5.355  0.1908 -0.7651 -0.4636
  424SOL    HW2 4165   4.939   8.447   5.381 -0.5907  0.6852  0.1660
  425SOL     OW 4166   1.995   4.205   4.532 -0.2476 -0.3545 -0.1320
  425SOL    HW1 4167   2.057   4.265   4.573  0.4638  0.3089 -2.0774
  425SOL    HW2 4168   2.047   4.129   4.507 -0.9588 -1.4140  1.4142
  426SOL     OW 4169   5.704   6.234   5.238 -0.3441  0.1039  0.3381
  426SOL    HW1 4170   5.681   6.147   5.206  0.7185 -0.1265  0.1736
  426SOL    HW2 4171   5.783   6.257   5.190 -0.6416  1.1891  0.3394
  427SOL     OW 4172   7.293   8.811   0.946  0.4064 -1.0296  0.2096
  427SOL    HW1 4173   7.219   8.852   0.902  0.0015 -0.6857  1.1860
  427SOL    HW2 4174   7.287   8.718   0.922  0.7510 -0.6966 -1.2083
  428SOL     OW 4175   3.631   6.704   6.421  0.2509 -0.5423 -0.5496
  428SOL    HW1 4176   3.606   6.757   6.496 -0.5691 -0.9883 -0.4957
  428SOL    HW2 4177   3.609   6.758   6.345  1.6035  0.1430 -0.4918
  429SOL     OW 4178   6.568   6.278   5.388  0.4907  0.1778 -0.0444
  429SOL    HW1 4179   6.560   6.276   5.483  0.3103  0.6447 -0.0517
  429SOL    HW2 4180   6.510   6.208   5.358  0.3208  0.2252  0.1723
  430SOL     OW 4181   9.292   0.711   8.970  0.0155  0.1684  0.1505
  430SOL    HW1 4182   9.358   0.746   9.030 -1.2895  0.9849  1.1518
  430SOL    HW2 4183   9.283   0.619   8.996  0.1274  0.2793  0.5958
  431SOL     OW 4184   2.746   2.952   3.009 -0.2811 -0.1409 -0.7839
  431SOL    HW1 4185   2.750   2.974   3.102  1.0062 -2.3785 -0.2318
  431SOL    HW2 4186   2.785   3.027   2.964 -0.3230  0.6864  0.5368
  432SOL     OW 4187   7.207   4.423   2.467 -0.5108  0.1106 -0.1920
  432SOL    HW1 4188   7.224   4.508   2.428 -1.3069  0.7974  0.9085
  432SOL    HW2 4189   7.277   4.411   2.531 -1.0502  0.4858  0.4841
  433SOL     OW 4190   0.584   3.853   6.508  0.6967 -0.7100  0.3128
  433SOL    HW1 4191   0.494   3.833   6.533  0.0445  1.5695  0.0224
  433SOL    HW2 4192   0.631   3.770   6.518 -1.5216 -2.0839  0.0145
  434SOL     OW 4193   0.662   9.430   5.924 -0.0103  0.1647 -0.2228
  434SOL    HW1 4194   0.617   9.397   6.002  0.5393 -0.8817 -0.3235
  434SOL    HW2 4195   0.617   9.387   5.851 -0.3229  0.9000 -0.4744
  435SOL     OW 4196   9.074   4.330   7.931 -0.0597  0.0158  0.9502
  435SOL    HW1 4197   9.160   4.362   7.904 -0.0349 -0.8995 -0.1605
  435SOL    HW2 4198   9.022   4.331   7.851 -0.3403 -1.7121  1.0622
  436SOL     OW 4199   3.749   8.321   6.745  0.2103 -0.3449  0.2021
  436SOL    HW1 4200   3.785   8.257   6.807  0.8521 -0.2671 -0.0756
  436SOL    HW2 4201   3.656   8.300   6.739 -0.0121  0.0887  1.7191
  437SOL     OW 4202   8.173   2.684   8.545 -0.5564  0.3129  0.5043
  437SOL    HW1 4203   8.115   2.760   8.537  0.0734  0.6035 -2.9246
  437SOL    HW2 4204   8.260   2.723   8.560 -0.4255  0.2218  0.0026
  438SOL     OW 4205   3.616   5.208   7.601 -0.6029 -0.4233 -0.1472
  438SOL    HW1 4206   3.697   5.246   7.567 -0.6880 -0.8305 -0.8301
  438SOL    HW2 4207   3.564   5.189   7.523 -0.7484 -1.5089  0.1972
  439SOL     OW 4208   2.514   5.886   2.300 -0.5387 -0.1123 -0.0665
  439SOL    HW1 4209   2.502   5.848   2.213  1.6137 -2.1696  0.4124
  439SOL    HW2 4210   2.608   5.900   2.307 -0.9625  3.1831  0.7800
  440SOL     OW 4211   5.114   7.935   4.998 -0.4435 -0.1570  0.0907
  440SOL    HW1 4212   5.054   7.866   4.968 -0.5598  0.3176 -0.8247
  440SOL    HW2 4213   5.190   7.887   5.031 -0.5551 -0.7352 -0.4581
  441SOL     OW 4214   2.315   1.189   4.681  0.5366  0.1768  0.6127
  441SOL    HW1 4215   2.248   1.256   4.668  1.4846  0.9770 -0.3133
  441SOL    HW2 4216   2.266   1.107   4.685 -0.6194  0.8700  1.4395
  442SOL     OW 4217   1.328   1.691   7.944 -0.0807 -0.3258  0.5791
  442SOL    HW1 4218   1.420   1.711   7.932 -0.0678  0.8374  2.2663
  442SOL    HW2 4219   1.308   1.723   8.032 -2.3280  0.3499 -0.1103
  443SOL     OW 4220   6.971   5.803   1.116  0.2722  0.2409 -0.4457
  443SOL    HW1 4221   7.020   5.747   1.177 -0.9043 -1.4166 -0.9584
  443SOL    HW2 4222   6.909   5.850   1.171  0.6085  0.3113 -0.1237
  444SOL     OW 4223   4.973   5.086   3.496  0.2727  0.2939 -0.6004
  444SOL    HW1 4224   4.944   5.175   3.477 -0.2847 -0.0036 -1.1998
  444SOL    HW2 4225   4.902   5.030   3.464  1.6610 -0.4919 -2.4800
  445SOL     OW 4226   3.967   9.183   5.655  0.1001  0.7621  0.1083
  445SOL    HW1 4227   3.889   9.193   5.710 -0.0818 -1.8633  0.4900
  445SOL    HW2 4228   4.031   9.141   5.712  1.7371  2.5698 -0.3023
  446SOL     OW 4229   1.723   5.702   5.149 -0.4868  0.4123 -0.6651
  446SOL    HW1 4230   1.800   5.648   5.168 -1.5631 -0.9818  0.0075
  446SOL    HW2 4231   1.728   5.719   5.055 -0.3152 -1.2820 -0.9974
  447SOL     OW 4232   7.725   4.368   8.495  0.1058 -0.2391 -0.3852
  447SOL    HW1 4233   7.632   4.386   8.505  0.0138 -0.1714 -1.2896
  447SOL    HW2 4234   7.751   4.330   8.579 -0.2066  1.8703  0.7349
  448SOL     OW 4235   2.858   5.961   4.583 -0.1092 -0.4828 -0.0866
  448SOL    HW1 4236   2.807   6.007   4.650  2.6278  0.7331  1.3050
  448SOL    HW2 4237   2.873   5.874   4.619 -1.2140 -0.8902 -0.5575
  449SOL     OW 4238   2.504   5.926   4.568 -0.3443 -0.0871  0.3949
  449SOL    HW1 4239   2.526   5.966   4.485  0.7395 -2.2414 -0.4266
  449SOL    HW2 4240   2.415   5.958   4.587 -0.8833 -0.0323 -1.9096
  450SOL     OW 4241   9.301   7.560   0.568  0.4088 -0.4067 -0.2190
  450SOL    HW1 4242   9.208   7.542   0.576  0.6317 -1.1680  0.9017
  450SOL    HW2 4243   9.323   7.532   0.479 -0.4487 -0.0788 -0.5447
  451SOL     OW 4244   5.466   1.987   3.594  0.5752  0.3004 -0.2636
  451SOL    HW1 4245   5.410   2.066   3.596 -0.5792 -0.4479  2.2992
  451SOL    HW2 4246   5.404   1.915   3.590  1.5933 -0.5414 -1.5912
  452SOL     OW 4247   4.468   2.873   5.629 -0.2905  0.2313 -0.4903
  452SOL    HW1 4248   4.387   2.919   5.651  0.0380 -0.6259  3.0708
  452SOL    HW2 4249   4.446   2.780   5.635  0.9924 -0.0156  1.0335
  453SOL     OW 4250   5.353   9.383   7.399  0.8922 -0.2417 -0.0031
  453SOL    HW1 4251   5.274   9.372   7.453  1.5399  1.2389  1.3182
  453SOL    HW2 4252   5.411   9.311   7.427  0.9404  0.0935  0.7708
  454SOL     OW 4253   5.349   5.627   6.921 -0.0622 -0.2153  0.4221
  454SOL    HW1 4254   5.393   5.572   6.986  0.7805  1.1173  1.0056
  454SOL    HW2 4255   5.420   5.673   6.876 -0.6598 -0.6819 -1.0975
  455SOL     OW 4256   8.053   6.426   0.128 -0.2232  0.1462 -0.2610
  455SOL    HW1 4257   7.985   6.483   0.165 -0.9579 -0.5252 -0.5639
  455SOL    HW2 4258   8.062   6.355   0.192 -1.6463 -1.1330 -1.4165
  456SOL     OW 4259   4.794   4.946   5.062 -0.2637 -0.0614  0.2968
  456SOL    HW1 4260   4.723   4.959   4.999  1.1656  2.6102 -0.9566
  456SOL    HW2 4261   4.850   4.879   5.022 -0.8360 -0.4635  0.1520
  457SOL     OW 4262   4.684   6.460   7.865 -0.6998 -0.6360 -0.1124
  457SOL    HW1 4263   4.703   6.550   7.890 -0.2529 -0.3597 -1.3563
  457SOL    HW2 4264   4.694   6.410   7.945 -1.1063  0.4367  0.6329
  458SOL     OW 4265   7.585   6.597   4.913  0.2633 -0.2759 -0.1328
  458SOL    HW1 4266   7.492   6.616   4.903 -0.0389 -0.6559  1.6274
  458SOL    HW2 4267   7.601   6.524   4.853 -0.6381 -0.3613 -0.2894
  459SOL     OW 4268   2.658   4.539   2.552  0.1995 -0.3423 -0.0453
  459SOL    HW1 4269   2.621   4.525   2.639 -1.8141 -0.3622 -0.8563
  459SOL    HW2 4270   2.744   4.579   2.569  0.1519 -0.9592  1.9426
  460SOL     OW 4271   4.453   3.239   5.520  0.1843 -0.2822 -0.5244
  460SOL    HW1 4272   4.477   3.237   5.428  0.1365 -1.6450 -0.5263
  460SOL    HW2 4273   4.358   3.245   5.521  0.1278 -1.1373 -0.5759
  461SOL     OW 4274   9.061   2.520   9.334 -0.1956 -0.8735  0.0356
  461SOL    HW1 4275   9.028   2.438   9.297 -0.8646 -0.5198 -0.1661
  461SOL    HW2 4276   8.986   2.579   9.332 -0.5538 -1.1053  2.7747
  462SOL     OW 4277   2.973   6.473   7.162  1.0089  0.3813  0.1262
  462SOL    HW1 4278   2.922   6.553   7.176 -0.5836 -0.9913  2.9437
  462SOL    HW2 4279   3.062   6.496   7.189  0.3258  0.9530  2.0100
  463SOL     OW 4280   4.491   1.239   7.400  0.3702 -0.1158 -0.1871
  463SOL    HW1 4281   4.424   1.248   7.468  1.6503  2.0974  0.9196
  463SOL    HW2 4282   4.568   1.208   7.447  1.2810  1.4766 -0.5463
  464SOL     OW 4283   6.453   0.221   6.712 -0.0027  0.2738 -0.5796
  464SOL    HW1 4284   6.514   0.247   6.643  1.2029 -2.2299 -0.5420
  464SOL    HW2 4285   6.436   0.303   6.759  1.4056  1.5114 -2.0633
  465SOL     OW 4286   7.977   8.412   0.189  0.0948 -0.0611 -0.1140
  465SOL    HW1 4287   7.908   8.352   0.160  2.2734 -3.6322  1.3380
  465SOL    HW2 4288   8.040   8.411   0.117 -1.0370  2.9204 -1.2915
  466SOL     OW 4289   8.662   6.751   6.812 -0.0434 -0.1051  0.1982
  466SOL    HW1 4290   8.609   6.674   6.792 -1.4672  0.6151  1.0328
  466SOL    HW2 4291   8.694   6.736   6.901 -1.6726  0.9348  1.0121
  467SOL     OW 4292   6.609   5.555   5.346 -0.8148  0.6679 -0.0937
  467SOL    HW1 4293   6.676   5.523   5.407 -0.6883 -1.9597 -1.4614
  467SOL    HW2 4294   6.658   5.600   5.277 -0.1573 -2.3066 -1.7449
  468SOL     OW 4295   3.595   4.694   6.978  0.1212 -0.2225 -0.2805
  468SOL    HW1 4296   3.678   4.657   7.007  1.0101  1.2943 -0.7678
  468SOL    HW2 4297   3.556   4.730   7.058 -2.2148 -4.5711  0.8555
  469SOL     OW 4298   5.940   3.608   1.685  0.4033  0.2356 -0.1698
  469SOL    HW1 4299   5.880   3.638   1.752  0.1806 -1.5061  0.4517
  469SOL    HW2 4300   5.907   3.646   1.604 -2.4241 -1.7861 -0.0825
  470SOL     OW 4301   4.456   0.706   5.917 -0.4875 -0.1130 -0.3632
  470SOL    HW1 4302   4.504   0.624   5.905 -0.6739 -0.1849 -0.6050
  470SOL    HW2 4303   4.519   0.774   5.892 -0.2756 -0.1700 -0.0014
  471SOL     OW 4304   5.554   8.285   0.963  0.1833  0.3495 -0.5029
  471SOL    HW1 4305   5.551   8.196   0.927 -0.1823  0.3127 -0.3941
  471SOL    HW2 4306   5.463   8.315   0.958  0.0637  0.2187  0.7058
  472SOL     OW 4307   4.262   9.086   3.809  0.0802 -0.1734 -0.0035
  472SOL    HW1 4308   4.340   9.044   3.770  0.0254 -1.4211  1.1643
  472SOL    HW2 4309   4.231   9.023   3.874 -0.8997  1.0667  0.7742
  473SOL     OW 4310   8.188   4.625   5.496  0.1574  0.0662  0.5166
  473SOL    HW1 4311   8.271   4.650   5.536  0.1149  0.7621  0.1826
  473SOL    HW2 4312   8.184   4.530   5.506  0.7857  0.0811  0.9292
  474SOL     OW 4313   2.792   3.758   6.410 -0.0386 -0.1859  0.5099
  474SOL    HW1 4314   2.833   3.672   6.418  0.1067 -0.1634  0.0009
  474SOL    HW2 4315   2.850   3.817   6.458  0.5186 -0.1575 -0.1903
  475SOL     OW 4316   6.452   1.962   0.559  0.2725  0.1096  0.0278
  475SOL    HW1 4317   6.496   1.900   0.500 -0.0093 -0.1028  0.0433
  475SOL    HW2 4318   6.499   2.044   0.546  2.3670 -0.6772  1.8785
  476SOL     OW 4319   0.382   6.935   1.083  0.3817  0.1184 -0.2735
  476SOL    HW1 4320   0.428   6.886   1.015  1.5789 -0.0067  0.5794
  476SOL    HW2 4321   0.294   6.897   1.086 -0.4452  1.5559 -3.1857
  477SOL     OW 4322   5.895   3.260   0.097  0.3941  0.3638  0.1934
  477SOL    HW1 4323   5.837   3.319   0.146  0.9682  0.9219  0.2145
  477SOL    HW2 4324   5.957   3.227   0.162  0.1371 -0.2006  0.1619
  478SOL     OW 4325   7.449   4.277   9.461 -0.1793  0.1608 -0.0301
  478SOL    HW1 4326   7.428   4.258   9.552  1.1886  0.5641  0.3895
  478SOL    HW2 4327   7.432   4.195   9.415  1.9844 -1.0125  1.1064
  479SOL     OW 4328   3.512   8.605   4.094  0.0291  0.1196 -0.0889
  479SOL    HW1 4329   3.601   8.599   4.128  0.6772 -0.7289 -1.8030
  479SOL    HW2 4330   3.456   8.583   4.168  1.4113 -2.9176  0.1780
  480SOL     OW 4331   0.203   5.602   6.016  0.1098  0.2793  0.7625
  480SOL    HW1 4332   0.271   5.540   6.043  0.2745  0.6377  1.1829
  480SOL    HW2 4333   0.251   5.680   5.990 -0.0164 -0.1641 -0.9469
  481SOL     OW 4334   1.454   1.980   6.512 -0.0706 -0.5066 -0.4847
  481SOL    HW1 4335   1.431   1.891   6.537  3.1761 -1.9847 -2.1816
  481SOL    HW2 4336   1.415   1.991   6.425 -0.1082 -0.3984 -0.4549
  482SOL     OW 4337   4.340   4.030   3.209  0.4286  0.0148  0.0500
  482SOL    HW1 4338   4.370   3.940   3.194  0.2187 -0.1762  0.7357
  482SOL    HW2 4339   4.406   4.084   3.167  1.2661 -0.4284  0.7417
  483SOL     OW 4340   2.957   7.294   3.299  0.4629  0.3613  0.7569
  483SOL    HW1 4341   2.899   7.329   3.232  2.2752  0.6173 -0.7774
  483SOL    HW2 4342   2.986   7.210   3.264  1.8229  0.7250  0.9546
  484SOL     OW 4343   1.196   3.267   4.965  0.4832 -0.6544  0.2490
  484SOL    HW1 4344   1.189   3.249   4.872  1.1658 -1.0328  0.2654
  484SOL    HW2 4345   1.210   3.361   4.971 -1.2949 -0.3356  0.0671
  485SOL     OW 4346   5.914   5.032   7.726  0.2825  0.1279  0.3121
  485SOL    HW1 4347   5.942   4.945   7.698 -1.7834 -0.9589  1.4317
  485SOL    HW2 4348   5.971   5.052   7.801  0.8252 -0.1935 -0.0048
  486SOL     OW 4349   4.226   7.733   6.573  0.2098 -0.3895 -0.2491
  486SOL    HW1 4350   4.168   7.748   6.648  0.3926 -0.1312 -0.1601
  486SOL    HW2 4351   4.168   7.734   6.497  0.4165  2.7976 -0.4949
  487SOL     OW 4352   9.254   7.679   1.843  0.0879 -0.3670 -0.6516
  487SOL    HW1 4353   9.284   7.698   1.932  0.3852 -0.8253 -0.6522
  487SOL    HW2 4354   9.291   7.593   1.822 -1.2107 -0.9644 -0.6500
  488SOL     OW 4355   1.014   2.807   8.270  0.0200 -0.2290 -0.0019
  488SOL    HW1 4356   1.095   2.795   8.319 -0.6401 -1.2317  0.9200
  488SOL    HW2 4357   0.992   2.719   8.237  0.6764  0.4899 -2.5652
  489SOL     OW 4358   3.410   3.515   2.524 -0.2320 -0.1403 -0.1082
  489SOL    HW1 4359   3.492   3.562   2.537 -0.0852 -0.6460  0.8607
  489SOL    HW2 4360   3.409   3.492   2.432  0.6049  0.0742 -0.1725
  490SOL     OW 4361   9.030   4.840   7.626  1.2153 -0.0759 -0.1880
  490SOL    HW1 4362   9.037   4.935   7.622  1.1174  0.0293  1.3851
  490SOL    HW2 4363   8.938   4.821   7.607  0.7244  0.3421  1.5816
  491SOL     OW 4364   2.856   9.553   2.345  0.3519  0.5299 -0.5616
  491SOL    HW1 4365   2.851   9.602   2.427  0.9827 -0.5314  0.1208
  491SOL    HW2 4366   2.849   9.461   2.370 -1.3366  0.2280 -1.8612
  492SOL     OW 4367   7.932   6.882   4.684  0.4587  0.0268 -0.5393
  492SOL    HW1 4368   7.984   6.929   4.750  1.4875 -1.3638 -0.2878
  492SOL    HW2 4369   7.850   6.930   4.679  0.5634  0.4886  1.3730
  493SOL     OW 4370   9.240   2.051   0.867 -0.2941  0.4352 -0.0732
  493SOL    HW1 4371   9.243   2.136   0.911 -0.6319  0.0326  0.7385
  493SOL    HW2 4372   9.327   2.041   0.829 -0.5802  1.6235 -1.1075
  494SOL     OW 4373   3.130   7.107   4.670  0.4317  0.3643 -0.1804
  494SOL    HW1 4374   3.036   7.122   4.659  0.4659  1.8081  1.1630
  494SOL    HW2 4375   3.169   7.194   4.668  1.6969 -0.1768 -0.2613
  495SOL     OW 4376   6.969   9.349   1.423 -0.0480  0.0126  0.1103
  495SOL    HW1 4377   6.897   9.295   1.457 -0.5340  0.3752 -0.3208
  495SOL    HW2 4378   6.927   9.432   1.400  0.3865 -0.0024 -0.7793
  496SOL     OW 4379   5.658   8.097   6.567 -0.1296 -0.2228  0.3892
  496SOL    HW1 4380   5.667   8.104   6.662 -0.2566  0.0704  0.3789
  496SOL    HW2 4381   5.748   8.093   6.535  0.0034  1.8245  0.3559
  497SOL     OW 4382   5.072   9.422   1.522 -0.0985 -0.0482  0.1883
  497SOL    HW1 4383   5.100   9.334   1.546 -1.0193 -0.4486 -0.1634
  497SOL    HW2 4384   5.066   9.420   1.427 -0.1663  0.3874  0.1798
  498SOL     OW 4385   9.604   9.295   9.102  0.1925 -0.4854 -0.1202
  498SOL    HW1 4386   9.639   9.239   9.171 -0.2251  0.5265  0.9563
  498SOL    HW2 4387   9.527   9.248   9.069 -0.1747 -0.5570  0.7907
  499SOL     OW 4388   6.118   4.111   2.171 -0.4254 -0.0011 -0.3373
  499SOL    HW1 4389   6.051   4.052   2.207  0.1611 -0.8924 -0.6912
  499SOL    HW2 4390   6.184   4.116   2.239  0.3062 -1.0623 -0.9436
  500SOL     OW 4391   7.013   7.070   9.297 -0.3509  0.0736 -0.5282
  500SOL    HW1 4392   6.990   7.158   9.266 -0.2654 -0.1885 -1.3553
  500SOL    HW2 4393   6.968   7.062   9.381  0.5444  1.3340  0.1225
  501SOL     OW 4394   6.256   8.148   2.529  0.9981  0.3079 -0.1561
  501SOL    HW1 4395   6.289   8.078   2.586 -2.0285 -0.3932  0.9108
  501SOL    HW2 4396   6.220   8.102   2.453  0.2821  0.8233 -0.1323
  502SOL     OW 4397   1.667   3.122   3.798 -0.3095  0.3215 -0.0309
  502SOL    HW1 4398   1.627   3.155   3.878 -2.5714 -0.6691 -0.6731
  502SOL    HW2 4399   1.759   3.109   3.821 -0.7144  0.8783  2.1316
  503SOL     OW 4400   9.641   4.398   0.630  0.4950 -0.0715 -0.2955
  503SOL    HW1 4401   9.588   4.374   0.706  2.5034  0.3407  1.3287
  503SOL    HW2 4402   9.614   4.487   0.608 -1.3181 -0.8100 -1.2217
  504SOL     OW 4403   7.641   0.018   6.603 -1.0701  0.1819  0.3226
  504SOL    HW1 4404   7.624  -0.035   6.525 -0.0530  0.8291 -0.3684
  504SOL    HW2 4405   7.583   0.094   6.593 -0.4413  0.6074 -0.1766
  505SOL     OW 4406   8.455   8.746   3.726  0.4042  0.7379 -0.3457
  505SOL    HW1 4407   8.491   8.683   3.789 -0.3713  0.5842 -0.0442
  505SOL    HW2 4408   8.494   8.721   3.642 -0.4336 -0.6163 -0.3715
  506SOL     OW 4409   0.023   2.323   6.317  0.4766  0.0366  0.2198
  506SOL    HW1 4410  -0.049   2.267   6.346  0.6735  0.0081  0.6580
  506SOL    HW2 4411  -0.020   2.401   6.284  0.2369 -0.0217  0.3883
  507SOL     OW 4412   1.170   7.428   3.323  0.0606  0.0637 -0.0887
  507SOL    HW1 4413   1.253   7.387   3.347  0.2000  0.6714  0.5098
  507SOL    HW2 4414   1.146   7.480   3.400 -0.9548 -0.2309 -0.2004
  508SOL     OW 4415   7.214   6.191   9.174 -0.5555 -0.6865  0.2497
  508SOL    HW1 4416   7.230   6.164   9.084  1.4429  2.5252 -0.5008
  508SOL    HW2 4417   7.173   6.277   9.167  0.7939  0.2099  2.3483
  509SOL     OW 4418   0.555   4.401   3.907  0.2893  0.4026  0.1779
  509SOL    HW1 4419   0.545   4.444   3.992 -1.8968  0.7801 -0.1892
  509SOL    HW2 4420   0.622   4.451   3.862  0.1186  1.3938  0.9860
  510SOL     OW 4421   7.894   5.826   5.527  0.6037  0.1155 -0.4036
  510SOL    HW1 4422   7.800   5.824   5.547  0.1458  0.5293 -2.3465
  510SOL    HW2 4423   7.930   5.893   5.585  0.2059 -1.7015  2.1336
  511SOL     OW 4424   4.468   1.340   1.810 -0.1504  0.5377  0.4026
  511SOL    HW1 4425   4.521   1.412   1.845  0.3256  0.6883 -0.6030
  511SOL    HW2 4426   4.510   1.261   1.843 -0.0908  0.6961  0.7058
  512SOL     OW 4427   0.551   3.930   8.191 -0.3176  0.1870 -0.2941
  512SOL    HW1 4428   0.604   3.886   8.125 -2.4932 -1.6981 -0.9321
  512SOL    HW2 4429   0.588   3.900   8.275  0.3548 -0.1277 -0.6960
  513SOL     OW 4430   7.899   8.428   1.825  0.0211 -0.3358  0.2487
  513SOL    HW1 4431   7.884   8.504   1.769  1.1107  0.8133  1.4547
  513SOL    HW2 4432   7.920   8.358   1.764 -0.2440  0.5100 -0.8575
  514SOL     OW 4433   6.846   9.012   6.707 -0.2953  0.2027  0.1225
  514SOL    HW1 4434   6.918   9.027   6.646  1.6511 -0.8626  2.0123
  514SOL    HW2 4435   6.846   9.090   6.764  1.8944 -1.3039  2.3983
  515SOL     OW 4436   3.773   4.903   7.603  0.2416 -0.2540  0.0900
  515SOL    HW1 4437   3.772   4.942   7.691  0.0142  1.5425 -0.6612
  515SOL    HW2 4438   3.681   4.884   7.585 -0.1248  2.0694 -0.8319
  516SOL     OW 4439   2.869   4.329   7.114  0.0660  0.5008 -0.2715
  516SOL    HW1 4440   2.953   4.375   7.112  0.3484 -0.0223 -0.6593
  516SOL    HW2 4441   2.803   4.398   7.103  0.2175  1.3818  3.1860
  517SOL     OW 4442   8.990   6.265   6.561 -0.1975  0.6389 -0.1338
  517SOL    HW1 4443   8.941   6.184   6.559 -0.5765  0.8025  1.3609
  517SOL    HW2 4444   9.066   6.246   6.616 -0.8218  1.5523  1.0929
  518SOL     OW 4445   9.345   3.853   2.642 -0.3885  0.3422 -0.2998
  518SOL    HW1 4446   9.304   3.887   2.722  2.6875 -0.9335  2.0832
  518SOL    HW2 4447   9.388   3.929   2.603 -1.5198  0.8993 -0.4808
  519SOL     OW 4448   2.542   5.505   1.000  0.0812  0.2147  0.6063
  519SOL    HW1 4449   2.604   5.516   0.927 -0.3952  0.7580  0.2750
  519SOL    HW2 4450   2.472   5.567   0.981 -1.5332 -1.7213 -0.0196
  520SOL     OW 4451   0.267   0.711   6.660  0.3309 -0.3095  0.6741
  520SOL    HW1 4452   0.222   0.760   6.591 -0.0186 -0.6927  0.6219
  520SOL    HW2 4453   0.233   0.748   6.742 -0.5718 -1.0016  0.6420
  521SOL     OW 4454   8.034   6.982   1.120 -0.0039 -0.2246 -0.3734
  521SOL    HW1 4455   7.969   6.950   1.182 -0.0128 -1.3235 -0.9067
  521SOL    HW2 4456   8.094   7.034   1.172 -1.4345  1.0393  0.0917
  522SOL     OW 4457   8.593   5.987   0.020 -0.8009 -0.6806  0.6357
  522SOL    HW1 4458   8.611   6.067   0.069 -1.7544 -0.0193 -0.0413
  522SOL    HW2 4459   8.530   5.939   0.074 -0.5732 -0.7624  0.8319
  523SOL     OW 4460   7.243   9.115   3.318 -0.6428  0.0803 -0.6286
  523SOL    HW1 4461   7.186   9.154   3.251  0.5926 -0.5998 -2.1488
  523SOL    HW2 4462   7.287   9.043   3.272 -0.2592 -0.8605  1.1347
  524SOL     OW 4463   2.931   7.680   0.041 -0.7046  0.7827 -0.3288
  524SOL    HW1 4464   3.010   7.659  -0.009 -0.7612 -2.0274  0.6006
  524SOL    HW2 4465   2.862   7.628   0.000 -0.8694 -1.1697  2.1665
  525SOL     OW 4466   5.032   0.696   7.647 -0.5445 -0.1648  0.2938
  525SOL    HW1 4467   5.096   0.662   7.584 -1.3381  1.3282 -1.4103
  525SOL    HW2 4468   5.065   0.782   7.672 -0.6615 -0.4011  1.3245
  526SOL     OW 4469   5.472   8.327   0.446 -0.1955  0.2936  0.0148
  526SOL    HW1 4470   5.427   8.269   0.385  0.0305  0.1056  0.0265
  526SOL    HW2 4471   5.407   8.394   0.468 -0.0203  0.8720 -1.1132
  527SOL     OW 4472   9.246   8.341   5.599 -0.4014  0.0702  0.5605
  527SOL    HW1 4473   9.321   8.282   5.590 -0.4997  0.2143 -1.6197
  527SOL    HW2 4474   9.274   8.405   5.664  2.0343  1.0244 -1.2626
  528SOL     OW 4475   1.126   5.683   5.674 -0.0243 -0.0028 -0.2028
  528SOL    HW1 4476   1.199   5.624   5.655 -1.1821 -1.0334 -1.6691
  528SOL    HW2 4477   1.135   5.754   5.610  2.0095  2.1835  2.2436
  529SOL     OW 4478   2.653   3.457   6.957  0.2712 -0.2086 -0.7012
  529SOL    HW1 4479   2.708   3.496   7.025  2.0523 -0.5215 -1.9037
  529SOL    HW2 4480   2.566   3.492   6.975  0.8610  0.4549  1.1677
  530SOL     OW 4481   3.165   5.795   5.832 -0.0515 -0.0582 -0.2950
  530SOL    HW1 4482   3.077   5.801   5.868 -0.0769 -0.8677 -0.2097
  530SOL    HW2 4483   3.209   5.730   5.887  1.7593  2.8317  2.0104
  531SOL     OW 4484   6.712   1.787   8.081 -0.3469  0.5449 -0.7724
  531SOL    HW1 4485   6.691   1.878   8.099  1.2090  0.6245  0.8672
  531SOL    HW2 4486   6.790   1.790   8.025 -0.4086  0.2178 -0.8817
  532SOL     OW 4487   3.981   9.001   1.113  0.5948  0.7223 -0.2562
  532SOL    HW1 4488   3.932   9.080   1.088 -0.7898 -0.5273 -1.6493
  532SOL    HW2 4489   4.068   9.015   1.076 -0.6664  0.0698 -3.8682
  533SOL     OW 4490   9.419   2.287   5.488  0.2480  0.4028  0.3935
  533SOL    HW1 4491   9.399   2.194   5.480  0.9010  0.3033 -0.1071
  533SOL    HW2 4492   9.426   2.318   5.398  0.5908  0.8168  0.5624
  534SOL     OW 4493   1.045   1.351   0.076 -0.2947 -0.2259  0.4504
  534SOL    HW1 4494   0.955   1.379   0.090  0.1245  0.9014  0.9998
  534SOL    HW2 4495   1.087   1.362   0.161  1.4214  3.3908 -0.6646
  535SOL     OW 4496   4.747   2.700   4.147  0.3021  0.0704  0.1131
  535SOL    HW1 4497   4.705   2.759   4.209  1.8783  1.2749  0.1157
  535SOL    HW2 4498   4.763   2.620   4.198 -2.4826 -0.7220 -0.0882
  536SOL     OW 4499   6.960   3.848   2.402  0.0222 -0.2308  0.1372
  536SOL    HW1 4500   6.906   3.798   2.341  0.0252  1.0587 -0.9554
  536SOL    HW2 4501   7.037   3.875   2.351  0.5564 -0.0520  1.0116
  537SOL     OW 4502   0.577   5.595   1.128 -0.2852 -0.4205  0.6495
  537SOL    HW1 4503   0.599   5.539   1.202  0.7509 -0.1055  0.5915
  537SOL    HW2 4504   0.629   5.560   1.055  1.1123  1.1547  0.8359
  538SOL     OW 4505   5.908   9.142   9.186 -0.1946  0.0549 -0.2690
  538SOL    HW1 4506   5.947   9.066   9.143 -0.8229 -0.5925  0.2782
  538SOL    HW2 4507   5.981   9.204   9.195  0.0860 -0.0574 -1.6566
  539SOL     OW 4508   4.590   8.600   9.019  0.0397 -0.4273  0.4772
  539SOL    HW1 4509   4.685   8.592   9.032  0.1786  0.1082 -0.1519
  539SOL    HW2 4510   4.577   8.578   8.927 -0.1961  1.3546  0.0483
  540SOL     OW 4511   9.098   5.956   6.713  0.7635 -0.3187  0.8133
  540SOL    HW1 4512   9.183   5.997   6.725 -0.1456  1.6913  0.7464
  540SOL    HW2 4513   9.037   6.011   6.762 -0.7326 -0.7405 -0.4760
  541SOL     OW 4514   6.917   4.344   9.618  0.2163 -0.3467 -0.2723
  541SOL    HW1 4515   6.838   4.300   9.587  0.8358 -1.1333 -0.7539
  541SOL    HW2 4516   6.976   4.346   9.543  0.4121  0.8540 -0.1199
  542SOL     OW 4517   1.534   2.664   4.960 -0.1119  0.4361 -0.3342
  542SOL    HW1 4518   1.487   2.744   4.985  1.2060  1.0260  0.3825
  542SOL    HW2 4519   1.614   2.666   5.014 -0.6744 -2.0721  0.7412
  543SOL     OW 4520   1.429   3.436   4.704 -0.1734  0.4625 -0.1922
  543SOL    HW1 4521   1.480   3.515   4.689  0.0813  0.6900  1.7220
  543SOL    HW2 4522   1.396   3.413   4.617  1.7498  1.2751 -1.2056
  544SOL     OW 4523   6.970   1.910   0.939  0.0561 -0.4656 -0.4356
  544SOL    HW1 4524   6.980   1.821   0.905  2.4261 -1.2431  1.9153
  544SOL    HW2 4525   6.957   1.898   1.033 -0.8151  1.6748 -0.2351
  545SOL     OW 4526   4.619   9.238   5.162 -0.0118 -0.4286  0.0765
  545SOL    HW1 4527   4.545   9.289   5.195 -0.1394 -1.5930  1.7158
  545SOL    HW2 4528   4.680   9.233   5.236  0.8748 -1.0191 -0.6667
  546SOL     OW 4529   6.114   1.611   0.453 -0.4954 -0.1900 -0.2102
  546SOL    HW1 4530   6.114   1.645   0.364  0.9054 -0.4938 -0.3509
  546SOL    HW2 4531   6.204   1.582   0.468 -0.8387 -0.6712  1.1043
  547SOL     OW 4532   6.398   8.461   3.862 -0.3533  0.0287  0.1406
  547SOL    HW1 4533   6.423   8.406   3.936 -0.3553 -0.9600 -0.5800
  547SOL    HW2 4534   6.481   8.484   3.819 -0.3146  0.9563  0.6737
  548SOL     OW 4535   6.862   6.653   7.494 -0.0942 -0.5332  0.4909
  548SOL    HW1 4536   6.903   6.654   7.407 -0.6474 -0.7934  0.2195
  548SOL    HW2 4537   6.909   6.585   7.542 -0.0494 -0.6651  0.2615
  549SOL     OW 4538   2.818   1.030   1.992 -0.1259 -0.0514 -0.3014
  549SOL    HW1 4539   2.895   1.078   1.962  1.1431 -1.3516  0.7480
  549SOL    HW2 4540   2.791   1.076   2.072  0.0262 -0.0764 -0.2370
  550SOL     OW 4541   3.070   7.719   6.347 -0.0306 -0.8712  0.7278
  550SOL    HW1 4542   3.123   7.755   6.418 -0.0386  0.4901  0.0876
  550SOL    HW2 4543   2.981   7.716   6.382  0.0667 -0.7877  0.9823
  551SOL     OW 4544   4.161   8.894   3.359 -0.0714 -0.6716  0.4372
  551SOL    HW1 4545   4.092   8.859   3.303  0.3726 -2.0334  0.7036
  551SOL    HW2 4546   4.141   8.987   3.367 -1.3004 -0.8563 -0.2974
  552SOL     OW 4547   2.914   6.498   2.356 -0.3792  0.0156  0.1454
  552SOL    HW1 4548   2.877   6.432   2.416 -1.1784 -0.8994 -1.2907
  552SOL    HW2 4549   2.867   6.579   2.378 -1.1264 -0.4569  0.3355
  553SOL     OW 4550   7.745   7.054   4.511  0.3116  0.4307  0.1519
  553SOL    HW1 4551   7.789   7.067   4.426 -2.0979  1.6889 -0.9776
  553SOL    HW2 4552   7.771   7.129   4.563  0.7112  0.3609  0.0625
  554SOL     OW 4553   6.391   0.453   3.872  0.3784 -0.0405  0.5407
  554SOL    HW1 4554   6.356   0.418   3.954  1.3601 -1.4320  0.3929
  554SOL    HW2 4555   6.398   0.547   3.888 -2.3421  0.1875  0.9538
  555SOL     OW 4556   9.634   2.140   5.927 -0.3522  0.2305  0.5383
  555SOL    HW1 4557   9.699   2.140   5.997 -1.1445  0.2960  1.2977
  555SOL    HW2 4558   9.680   2.174   5.851  0.9858 -1.4131  0.5707
  556SOL     OW 4559   0.145   1.249   8.058 -0.1327  0.0615 -0.4660
  556SOL    HW1 4560   0.081   1.178   8.055 -0.2604  0.1111  0.7028
  556SOL    HW2 4561   0.153   1.270   8.151  1.1795  0.4245 -0.6407
  557SOL     OW 4562   1.224   5.178   0.912 -0.3305 -0.2015  0.1971
  557SOL    HW1 4563   1.191   5.156   0.824 -0.7560 -0.0392  0.3139
  557SOL    HW2 4564   1.198   5.104   0.966  0.0161 -0.3454  0.1677
  558SOL     OW 4565   7.866   8.430   4.079  0.1093  0.5738 -0.3060
  558SOL    HW1 4566   7.822   8.353   4.044 -1.3272  0.5780  1.3274
  558SOL    HW2 4567   7.796   8.494   4.092  0.8720  1.2393  0.7197
  559SOL     OW 4568   4.863   5.065   8.007 -0.1248  0.3140  0.1500
  559SOL    HW1 4569   4.850   5.154   8.040 -1.5313 -0.3844  1.6049
  559SOL    HW2 4570   4.866   5.075   7.912 -1.6411  1.7863  0.2121
  560SOL     OW 4571   5.911   1.579   6.168  0.1028  0.1129 -0.0181
  560SOL    HW1 4572   6.006   1.579   6.180  0.1475  1.8507 -0.1195
  560SOL    HW2 4573   5.884   1.668   6.188 -1.3237  0.0584 -1.4517
  561SOL     OW 4574   5.918   5.178   7.222 -0.1066 -0.2256 -0.4628
  561SOL    HW1 4575   6.001   5.216   7.190  0.4343  0.7172  1.8437
  561SOL    HW2 4576   5.945   5.111   7.284 -0.9856  1.3439  1.7328
  562SOL     OW 4577   2.418   3.155   4.926 -0.1959 -0.3505 -0.1805
  562SOL    HW1 4578   2.492   3.131   4.870 -0.5112 -0.9803 -0.3478
  562SOL    HW2 4579   2.346   3.171   4.865 -0.0388  0.8833 -0.0524
  563SOL     OW 4580   3.055   8.043   3.152  0.2224 -0.0718 -0.2855
  563SOL    HW1 4581   3.086   8.129   3.180  2.5304  0.0501 -2.7404
  563SOL    HW2 4582   3.080   7.984   3.223 -0.6798  1.1363  1.0824
  564SOL     OW 4583   3.703   0.524   2.221 -0.4038 -0.3400 -0.6580
  564SOL    HW1 4584   3.681   0.601   2.169  0.4615 -2.2385 -4.1275
  564SOL    HW2 4585   3.785   0.547   2.265 -0.3150  0.8057 -1.3868
  565SOL     OW 4586   7.737   9.207   7.560  0.0735  0.4093  0.0437
  565SOL    HW1 4587   7.786   9.161   7.492 -0.0639  0.2525  0.0518
  565SOL    HW2 4588   7.792   9.199   7.638 -0.6621 -1.0719  0.4396
  566SOL     OW 4589   2.615   8.692   4.089 -0.1204  0.1554  0.4482
  566SOL    HW1 4590   2.664   8.765   4.053 -0.0353 -0.7091 -1.2869
  566SOL    HW2 4591   2.658   8.614   4.054 -2.3587 -0.6375 -0.7547
  567SOL     OW 4592   0.587   1.120   5.938 -0.3546 -0.3584 -0.2853
  567SOL    HW1 4593   0.646   1.177   5.988 -1.6170  0.1876  0.6448
  567SOL    HW2 4594   0.640   1.044   5.915  0.6343  0.0036  0.7268
  568SOL     OW 4595   1.213   8.607   7.248 -0.6032  0.2889 -0.1467
  568SOL    HW1 4596   1.208   8.515   7.272  1.4357  0.4238  0.9616
  568SOL    HW2 4597   1.176   8.654   7.323  1.4459  0.4777  0.8198
  569SOL     OW 4598   8.889   8.005   7.556 -0.9270  0.2386  0.6567
  569SOL    HW1 4599   8.803   8.039   7.579 -1.5525 -1.8065  1.6515
  569SOL    HW2 4600   8.916   7.954   7.633  1.7532  1.7869  0.8695
  570SOL     OW 4601   4.194   7.452   1.705  0.1314 -0.4176  0.6409
  570SOL    HW1 4602   4.152   7.383   1.652 -1.7433  0.2492  1.1967
  570SOL    HW2 4603   4.246   7.404   1.769 -0.1384 -1.2983  0.2233
  571SOL     OW 4604   1.876   5.103   9.001  0.4593 -0.0762  0.3371
  571SOL    HW1 4605   1.940   5.174   9.002  2.1732 -1.3630  4.9372
  571SOL    HW2 4606   1.929   5.023   9.000 -1.0380 -1.1806  2.4699
  572SOL     OW 4607   4.542   2.615   5.958  0.0823  1.0772  0.2688
  572SOL    HW1 4608   4.571   2.706   5.965 -1.5847  1.6911 -0.2783
  572SOL    HW2 4609   4.531   2.600   5.864  1.0490  0.0488  0.2961
  573SOL     OW 4610   4.145   6.288   4.286  0.4034 -0.4595 -0.3574
  573SOL    HW1 4611   4.151   6.370   4.335 -1.5016 -0.0543 -0.7141
  573SOL    HW2 4612   4.142   6.315   4.195  0.6027 -0.9780 -0.5183
  574SOL     OW 4613   2.338   5.736   0.693  0.0681 -0.1746  0.2615
  574SOL    HW1 4614   2.340   5.786   0.611 -0.6663 -0.1468  0.2490
  574SOL    HW2 4615   2.410   5.771   0.745  0.4459 -0.0915 -0.3176
  575SOL     OW 4616   3.615   3.009   9.300 -0.3871 -0.4190 -0.0197
  575SOL    HW1 4617   3.660   2.943   9.247  1.3754  1.0632 -0.4895
  575SOL    HW2 4618   3.608   2.969   9.387 -0.5068 -1.6821 -0.5812
  576SOL     OW 4619   5.703   9.405   5.637 -1.0226 -0.0691 -0.4615
  576SOL    HW1 4620   5.692   9.311   5.651 -0.0350 -0.0217  0.8363
  576SOL    HW2 4621   5.614   9.439   5.626 -1.3569 -1.2178 -1.5055
  577SOL     OW 4622   1.764   4.687   6.145  0.6927 -0.1969  0.1759
  577SOL    HW1 4623   1.763   4.782   6.147  1.2175 -0.2016  1.5221
  577SOL    HW2 4624   1.792   4.665   6.056  0.5679  0.8974 -0.1461
  578SOL     OW 4625   5.874   5.804   1.577  0.1867 -0.1749 -0.3904
  578SOL    HW1 4626   5.871   5.891   1.536 -0.1793 -0.0245 -0.0571
  578SOL    HW2 4627   5.968   5.784   1.584  0.4150  1.2520  1.6939
  579SOL     OW 4628   1.088   7.893   5.565 -0.2383 -0.2520 -0.8950
  579SOL    HW1 4629   1.116   7.857   5.649  0.9371 -1.0011 -1.5912
  579SOL    HW2 4630   1.168   7.925   5.524 -0.9527  1.1797 -1.2536
  580SOL     OW 4631   1.011   0.829   2.706 -0.5738  0.7784 -0.3786
  580SOL    HW1 4632   1.095   0.854   2.745 -0.3499 -1.1789  0.5260
  580SOL    HW2 4633   0.948   0.890   2.744 -0.0480  0.1809  1.5764
  581SOL     OW 4634   9.583   3.017   5.612  0.2770  0.1686  0.8461
  581SOL    HW1 4635   9.515   3.078   5.584  1.0576  1.5541  1.8472
  581SOL    HW2 4636   9.536   2.948   5.660 -0.7380 -0.6856 -1.2647
  582SOL     OW 4637   0.859   8.777   8.379  0.4776  0.6568 -0.6177
  582SOL    HW1 4638   0.937   8.818   8.415  2.5724 -0.2812 -3.6880
  582SOL    HW2 4639   0.801   8.851   8.359  0.5787  1.3821  1.4804
  583SOL     OW 4640   4.485   0.243   7.908  0.5784  0.2590 -0.4112
  583SOL    HW1 4641   4.405   0.258   7.857 -0.2808 -1.1711  0.4394
  583SOL    HW2 4642   4.507   0.329   7.945 -1.3428  0.4448  0.4119
  584SOL     OW 4643   5.010   0.170   1.659 -0.5645  0.5256  0.3228
  584SOL    HW1 4644   5.032   0.195   1.748 -2.2522 -0.8919  1.1811
  584SOL    HW2 4645   5.086   0.121   1.628 -1.0869 -1.5433  2.0753
  585SOL     OW 4646   6.364   1.040   0.431 -0.0012 -0.4198 -0.3270
  585SOL    HW1 4647   6.275   1.004   0.434 -0.3140  0.3362 -0.4440
  585SOL    HW2 4648   6.388   1.036   0.339  0.1176 -0.6843 -0.2868
  586SOL     OW 4649   8.048   7.983   3.491 -0.0148 -0.4928 -0.7508
  586SOL    HW1 4650   8.075   7.905   3.443  0.1440 -2.3557  2.1557
  586SOL    HW2 4651   8.023   7.951   3.578 -2.3266  2.3936 -0.1730
  587SOL     OW 4652   5.048   2.051   4.504  0.2932 -0.0126 -0.6685
  587SOL    HW1 4653   5.091   1.980   4.458 -0.5975 -0.9700 -0.0701
  587SOL    HW2 4654   5.018   2.012   4.586  0.8361  1.3626  0.2212
  588SOL     OW 4655   1.141   8.960   7.540 -0.0589 -0.4936 -0.4028
  588SOL    HW1 4656   1.063   9.010   7.516  0.1541 -0.1126 -0.3143
  588SOL    HW2 4657   1.178   9.009   7.614  2.1028  1.2303 -2.4730
  589SOL     OW 4658   6.414   9.601   3.733 -0.0262  0.0179  0.2176
  589SOL    HW1 4659   6.492   9.639   3.774  0.0128  1.3655 -1.0414
  589SOL    HW2 4660   6.447   9.528   3.681 -0.1258 -2.0238  2.8199
  590SOL     OW 4661   1.590   0.349   0.165 -0.3051 -0.1455  0.1988
  590SOL    HW1 4662   1.643   0.276   0.134 -0.9931 -0.8333  0.6189
  590SOL    HW2 4663   1.646   0.394   0.228 -0.1817 -0.8226  0.5812
  591SOL     OW 4664   8.230   2.648   5.042  0.5474  0.2750 -0.8410
  591SOL    HW1 4665   8.292   2.667   5.112 -0.0473  1.9165 -0.6935
  591SOL    HW2 4666   8.280   2.659   4.961  1.0164 -0.7648 -0.7035
  592SOL     OW 4667   3.960   0.858   8.079 -0.2014  0.3766 -0.1973
  592SOL    HW1 4668   3.915   0.788   8.126  0.9364 -0.7290 -0.6912
  592SOL    HW2 4669   4.020   0.813   8.020  0.3672  1.7733 -0.7365
  593SOL     OW 4670   4.730   9.402   6.703  0.2946  0.1218 -0.2666
  593SOL    HW1 4671   4.781   9.468   6.750  0.8776 -1.3937  1.3361
  593SOL    HW2 4672   4.794   9.336   6.677 -0.7259 -1.7206  1.6008
  594SOL     OW 4673   4.865   3.360   8.552 -0.2455  0.5692 -0.8124
  594SOL    HW1 4674   4.891   3.274   8.585 -0.8927  1.5800  2.6609
  594SOL    HW2 4675   4.948   3.406   8.538  0.0722 -0.2638 -1.7938
  595SOL     OW 4676   3.390   1.922   7.625  0.4686  0.4595 -0.3117
  595SOL    HW1 4677   3.321   1.857   7.609 -0.7633  1.4104  0.9063
  595SOL    HW2 4678   3.352   1.983   7.688  1.8539  1.9781 -0.8755
  596SOL     OW 4679   5.946   4.433   7.219  1.0673 -0.3760 -0.5315
  596SOL    HW1 4680   5.908   4.349   7.192  1.1479  0.0751 -2.1557
  596SOL    HW2 4681   6.030   4.410   7.257  0.4799 -1.1344  0.3714
  597SOL     OW 4682   5.189   4.515   8.436 -0.1796 -0.0238 -0.1799
  597SOL    HW1 4683   5.270   4.470   8.411 -0.2769 -0.1325 -0.3038
  597SOL    HW2 4684   5.211   4.608   8.435 -0.0848 -0.0472 -0.3223
  598SOL     OW 4685   0.964   0.906   6.238  0.1849  0.1567 -0.3071
  598SOL    HW1 4686   0.935   0.929   6.149 -0.5760  0.6864  0.0649
  598SOL    HW2 4687   0.958   0.811   6.242 -0.5016  0.1860 -0.5843
  599SOL     OW 4688   8.377   9.294   1.686  0.3561  0.4446 -0.1221
  599SOL    HW1 4689   8.306   9.237   1.658 -1.1882  1.7275  0.9860
  599SOL    HW2 4690   8.378   9.285   1.782  1.1781  1.0396 -0.0648
  600SOL     OW 4691   3.777   7.197   8.456  0.2873  0.3512 -0.3755
  600SOL    HW1 4692   3.687   7.229   8.447  0.8816  2.1285 -0.4430
  600SOL    HW2 4693   3.770   7.102   8.448 -1.4227  0.5407 -1.7135
  601SOL     OW 4694   3.848   0.009   4.133  0.3881 -0.4144  0.1157
  601SOL    HW1 4695   3.811  -0.023   4.051  1.3696  0.3544 -0.6569
  601SOL    HW2 4696   3.931  -0.037   4.142  1.6454  1.4983 -0.8248
  602SOL     OW 4697   7.603   2.028   7.007 -0.3416  0.3577 -0.2958
  602SOL    HW1 4698   7.606   1.940   6.971 -1.2021  1.1115 -2.3943
  602SOL    HW2 4699   7.695   2.051   7.024  0.1930  0.0993 -2.5510
  603SOL     OW 4700   4.010   8.214   5.850 -0.1122 -0.4169 -0.8280
  603SOL    HW1 4701   4.051   8.195   5.934 -0.1425  0.6696 -0.5544
  603SOL    HW2 4702   3.931   8.159   5.849  0.6476 -1.5371 -0.8020
  604SOL     OW 4703   7.389   1.911   4.440  0.5493 -0.4347 -0.5163
  604SOL    HW1 4704   7.423   1.877   4.523  0.9817 -0.1871 -0.5911
  604SOL    HW2 4705   7.401   1.839   4.378 -0.5183 -0.9158 -0.1868
  605SOL     OW 4706   2.107   3.468   7.306 -0.1726  0.0864 -0.6588
  605SOL    HW1 4707   2.145   3.388   7.271 -0.0655  0.2182 -0.8470
  605SOL    HW2 4708   2.109   3.456   7.401  0.1325 -0.0043 -0.6745
  606SOL     OW 4709   5.128   2.120   5.783 -0.5087 -0.8393  0.4418
  606SOL    HW1 4710   5.204   2.172   5.757 -0.6782 -0.6636  0.3029
  606SOL    HW2 4711   5.091   2.088   5.701 -1.0219 -0.3116  0.4664
  607SOL     OW 4712   7.487   7.592   6.798 -0.3387  0.0345  0.6945
  607SOL    HW1 4713   7.493   7.650   6.874 -1.4197  1.7636 -0.4532
  607SOL    HW2 4714   7.411   7.625   6.750 -0.1317 -1.4888 -0.7418
  608SOL     OW 4715   6.536   2.834   0.797  0.7034  0.6221 -0.5200
  608SOL    HW1 4716   6.469   2.804   0.859  0.8809  1.9312  0.3288
  608SOL    HW2 4717   6.577   2.753   0.766 -0.5999 -0.1567 -0.3240
  609SOL     OW 4718   9.517   8.506   1.969 -0.0762 -0.2043 -0.5809
  609SOL    HW1 4719   9.600   8.481   2.010  0.8326  1.1105 -1.5400
  609SOL    HW2 4720   9.498   8.435   1.908 -0.5023 -1.2845  0.7551
  610SOL     OW 4721   7.949   9.172   3.100  0.1079 -0.5249  0.5509
  610SOL    HW1 4722   7.965   9.083   3.130  1.3777 -0.6317 -0.3542
  610SOL    HW2 4723   7.889   9.210   3.165  1.4708 -1.2482  2.2951
  611SOL     OW 4724   6.752   8.068   0.504  0.7916  0.4707  0.2563
  611SOL    HW1 4725   6.764   7.977   0.530 -0.3961 -0.1544 -1.2325
  611SOL    HW2 4726   6.674   8.097   0.553  1.7890  1.0739  1.5597
  612SOL     OW 4727   2.299   4.171   7.743  0.8027 -0.1677  0.1175
  612SOL    HW1 4728   2.356   4.246   7.762 -1.4522  2.2513 -1.8364
  612SOL    HW2 4729   2.305   4.160   7.648 -1.2287 -0.4225 -0.0204
  613SOL     OW 4730   4.065   9.165   3.356 -0.3462  0.6379 -0.8254
  613SOL    HW1 4731   4.020   9.204   3.431  1.6956  0.7844  0.3727
  613SOL    HW2 4732   4.156   9.192   3.365  0.7043 -2.3984 -1.2509
  614SOL     OW 4733   1.050   5.033   5.998  0.3632 -0.4919 -0.2432
  614SOL    HW1 4734   1.018   4.980   6.070  1.2377 -0.1705  0.3996
  614SOL    HW2 4735   1.041   5.123   6.029  0.2959 -0.3272 -0.7326
  615SOL     OW 4736   3.918   8.236   0.831  0.2108  0.0932 -0.7401
  615SOL    HW1 4737   3.985   8.299   0.804 -0.5599  1.4180  0.3303
  615SOL    HW2 4738   3.967   8.156   0.848  1.4076  0.7849 -0.8090
  616SOL     OW 4739   5.287   8.750   2.299 -0.3604 -0.5214  0.1282
  616SOL    HW1 4740   5.242   8.832   2.277  0.0623 -0.3006  0.0841
  616SOL    HW2 4741   5.375   8.776   2.325 -0.4421 -0.8997  0.8218
  617SOL     OW 4742   9.429   3.447   2.882 -0.5197 -0.0085 -0.4174
  617SOL    HW1 4743   9.382   3.424   2.962 -1.0641  0.6261 -0.5446
  617SOL    HW2 4744   9.361   3.454   2.815 -0.0461 -0.7494 -0.9969
  618SOL     OW 4745   9.551   2.976   8.399  0.2859 -0.1266 -0.0607
  618SOL    HW1 4746   9.620   3.040   8.417 -1.4576  1.4406  1.4006
  618SOL    HW2 4747   9.477   3.005   8.452 -1.6668 -1.5025 -1.8879
  619SOL     OW 4748   0.216   0.997   3.795  0.7720  0.3576  0.0672
  619SOL    HW1 4749   0.215   1.093   3.798 -0.8233  0.4011 -0.7150
  619SOL    HW2 4750   0.247   0.971   3.882  3.2520  1.5526 -0.3671
  620SOL     OW 4751   9.159   4.950   1.610 -0.1242  0.2140 -0.0014
  620SOL    HW1 4752   9.240   4.900   1.614 -0.5160 -0.6409 -1.6257
  620SOL    HW2 4753   9.130   4.940   1.519 -2.3471 -0.0091  0.6772
  621SOL     OW 4754   4.873   7.366   7.975  0.0822 -0.3230  0.5715
  621SOL    HW1 4755   4.912   7.401   8.056  1.4026 -1.7743  0.6104
  621SOL    HW2 4756   4.829   7.286   8.003  0.3906 -0.7392 -0.0999
  622SOL     OW 4757   9.565   2.024   1.126 -0.5813  0.0153 -0.6236
  622SOL    HW1 4758   9.590   2.077   1.201 -3.2872  0.5466  0.0006
  622SOL    HW2 4759   9.566   1.934   1.158 -2.1521  0.2762  0.2182
  623SOL     OW 4760   4.299   4.117   5.677  0.5328 -0.3160  0.1191
  623SOL    HW1 4761   4.229   4.064   5.715  1.1256 -0.8152  0.5303
  623SOL    HW2 4762   4.270   4.134   5.587  0.2100 -1.1040  0.0688
  624SOL     OW 4763   2.400   0.061   2.022  0.1657  0.2294 -0.2994
  624SOL    HW1 4764   2.443   0.007   2.088 -1.0965  0.5891  0.8576
  624SOL    HW2 4765   2.329   0.006   1.989 -1.3576  1.2372  1.1452
  625SOL     OW 4766   6.342   4.629   9.578  0.3570  0.1969  1.0369
  625SOL    HW1 4767   6.436   4.644   9.575  0.1743  1.4102 -1.3498
  625SOL    HW2 4768   6.326   4.562   9.511 -0.4650 -0.1402  1.5476
  626SOL     OW 4769   7.189   3.928   4.198  0.2277  0.5885 -0.3993
  626SOL    HW1 4770   7.226   4.013   4.175  0.0825  0.7306 -0.1058
  626SOL    HW2 4771   7.224   3.868   4.132 -2.0419  1.4012 -2.5136
  627SOL     OW 4772   2.197   0.260   2.591  0.2361 -0.0753 -0.0861
  627SOL    HW1 4773   2.269   0.289   2.535 -0.2359  0.6637 -0.3275
  627SOL    HW2 4774   2.151   0.195   2.538 -0.2882  0.7174 -0.6326
  628SOL     OW 4775   3.875   4.898   6.308 -0.4095 -0.7003  0.1897
  628SOL    HW1 4776   3.931   4.845   6.251  2.2431  1.1091  0.8847
  628SOL    HW2 4777   3.829   4.835   6.363  0.6311 -2.3257 -0.7245
  629SOL     OW 4778   6.970   0.758   4.854  0.7018  0.3056 -0.2174
  629SOL    HW1 4779   6.943   0.745   4.945  0.4882  2.4984  0.0901
  629SOL    HW2 4780   6.888   0.760   4.804  0.7176  0.5209 -0.2372
  630SOL     OW 4781   0.982   6.022   7.309  0.1209  0.0659 -0.1183
  630SOL    HW1 4782   0.920   6.040   7.379 -1.5517  0.4188 -1.6228
  630SOL    HW2 4783   0.974   5.927   7.294 -0.0861  0.1163 -0.3321
  631SOL     OW 4784   0.859   1.190   2.455 -0.1822 -0.3351  0.7473
  631SOL    HW1 4785   0.878   1.103   2.420  0.8355  0.1109  0.1725
  631SOL    HW2 4786   0.944   1.225   2.482 -0.6519  0.2592  1.5188
  632SOL     OW 4787   9.478   5.217   5.661 -0.1689 -0.0589  0.5686
  632SOL    HW1 4788   9.386   5.203   5.639 -0.0535  0.3456 -0.1843
  632SOL    HW2 4789   9.476   5.274   5.737 -0.5253  2.3315 -1.1330
  633SOL     OW 4790   1.710   1.904   6.445 -0.4678  0.4742 -0.4886
  633SOL    HW1 4791   1.632   1.952   6.471 -1.2372 -1.4282  0.9391
  633SOL    HW2 4792   1.680   1.814   6.430  1.0764  0.1557 -2.1057
  634SOL     OW 4793   2.818   1.254   4.326  0.4545 -0.0090 -0.2043
  634SOL    HW1 4794   2.789   1.269   4.416 -0.1559 -0.1831 -0.3680
  634SOL    HW2 4795   2.907   1.287   4.324  0.1805  0.7740  0.2384
  635SOL     OW 4796   5.881   2.219   2.709  0.4904 -0.3376  0.1961
  635SOL    HW1 4797   5.921   2.142   2.750 -0.3711 -0.8380  0.1273
  635SOL    HW2 4798   5.936   2.292   2.737  0.6781 -0.8348  1.1921
  636SOL     OW 4799   9.214   7.676   7.991 -0.0572  0.4640  0.1030
  636SOL    HW1 4800   9.222   7.595   7.942 -0.2997  0.8549 -0.6027
  636SOL    HW2 4801   9.130   7.668   8.037 -0.1941  0.4178 -0.1550
  637SOL     OW 4802   5.328   2.790   4.277  0.1852  0.5157 -0.0451
  637SOL    HW1 4803   5.324   2.720   4.343 -1.3426  0.8311  0.2513
  637SOL    HW2 4804   5.421   2.800   4.258  0.5901 -0.2262  1.3864
  638SOL     OW 4805   1.052   0.245   2.876 -1.2884  0.0133  0.4784
  638SOL    HW1 4806   0.978   0.291   2.834 -0.4389 -0.1328 -1.2478
  638SOL    HW2 4807   1.074   0.174   2.815  0.6894  0.4544  0.6142
  639SOL     OW 4808   0.559   4.965   5.464 -0.0673 -0.1766  0.3660
  639SOL    HW1 4809   0.471   4.946   5.496  0.1287 -0.7435  0.5732
  639SOL    HW2 4810   0.548   5.041   5.407 -1.3850 -2.6437 -2.9798
  640SOL     OW 4811   6.634   1.696   9.573 -0.2759 -0.2553  0.1942
  640SOL    HW1 4812   6.659   1.661   9.659 -0.7763 -1.2034 -0.0362
  640SOL    HW2 4813   6.576   1.769   9.594  1.2107  0.8425  0.6917
  641SOL     OW 4814   0.041   7.187   5.671 -0.2373  0.2717 -0.3712
  641SOL    HW1 4815   0.131   7.214   5.657 -0.0323  0.3321  0.9477
  641SOL    HW2 4816   0.016   7.226   5.754 -1.9995  1.5054 -1.4045
  642SOL     OW 4817   3.316   0.948   6.438  0.2516 -0.0080 -0.1800
  642SOL    HW1 4818   3.238   0.892   6.445 -0.0987  0.4440 -0.4553
  642SOL    HW2 4819   3.323   0.967   6.345  0.0488  0.8603 -0.0220
  643SOL     OW 4820   4.300   5.689   6.413 -0.4430 -0.6459 -0.2533
  643SOL    HW1 4821   4.238   5.620   6.438  0.6117 -1.2294  0.8760
  643SOL    HW2 4822   4.315   5.675   6.320 -0.4875 -1.7702 -0.1070
  644SOL     OW 4823   2.304   5.123   3.298 -0.1779 -0.7101  0.5658
  644SOL    HW1 4824   2.210   5.118   3.313 -0.4032 -2.0230 -1.0082
  644SOL    HW2 4825   2.328   5.212   3.324 -2.3281  0.5481 -1.3921
  645SOL     OW 4826   7.363   2.591   1.173 -0.6470  0.3155 -0.0337
  645SOL    HW1 4827   7.408   2.600   1.257 -1.8754  0.3542  0.6418
  645SOL    HW2 4828   7.426   2.623   1.108  0.4048  0.0632  0.8398
  646SOL     OW 4829   4.770   6.690   7.561 -0.3777 -0.7084 -0.0628
  646SOL    HW1 4830   4.859   6.660   7.540  0.4908  1.2322  0.5789
  646SOL    HW2 4831   4.764   6.683   7.656 -0.8427 -0.6576 -0.0887
  647SOL     OW 4832   3.661   8.531   9.378 -0.4347  0.4629  0.2285
  647SOL    HW1 4833   3.575   8.524   9.336 -1.0412  0.8188  1.3514
  647SOL    HW2 4834   3.641   8.553   9.469  0.8434  0.1920  0.5968
  648SOL     OW 4835   0.583   6.409   1.223 -0.2883 -0.0990 -0.3147
  648SOL    HW1 4836   0.572   6.493   1.268  0.7271  0.6155 -1.3501
  648SOL    HW2 4837   0.677   6.391   1.228 -0.7069 -2.2296  1.6691
  649SOL     OW 4838   3.655   6.924   2.595  0.3419  0.1428  0.5714
  649SOL    HW1 4839   3.716   6.960   2.660  2.5369 -1.0108 -0.7375
  649SOL    HW2 4840   3.704   6.853   2.553 -1.6653 -0.3478 -1.0871
  650SOL     OW 4841   9.299   7.521   2.435 -0.4950  0.4983 -0.2604
  650SOL    HW1 4842   9.314   7.578   2.360  0.4313 -0.1487 -0.5834
  650SOL    HW2 4843   9.224   7.467   2.411  0.7147 -0.7456 -1.3652
  651SOL     OW 4844   3.203   3.730   0.617 -0.0937  0.2946 -0.3166
  651SOL    HW1 4845   3.208   3.799   0.551  1.7333  0.7363  0.2160
  651SOL    HW2 4846   3.160   3.771   0.692 -0.4756  0.3604 -0.5713
  652SOL     OW 4847   1.078   2.308   5.144 -0.0970 -0.2309 -0.4814
  652SOL    HW1 4848   1.011   2.358   5.191  0.6603  2.2926 -1.9116
  652SOL    HW2 4849   1.034   2.275   5.066 -0.5084 -1.5927  0.2944
  653SOL     OW 4850   8.829   5.340   3.780 -0.2261  0.1356  0.1862
  653SOL    HW1 4851   8.766   5.326   3.851  0.0046  0.5121  0.4725
  653SOL    HW2 4852   8.811   5.429   3.750  0.7304  0.5769  0.8572
  654SOL     OW 4853   8.815   5.918   2.797  0.2530 -0.1247  0.2724
  654SOL    HW1 4854   8.827   5.849   2.862 -2.5182  0.5247  1.6287
  654SOL    HW2 4855   8.802   5.998   2.849  1.7253  1.1526 -1.2129
  655SOL     OW 4856   2.877   4.538   7.328 -0.2452 -0.1843  0.3701
  655SOL    HW1 4857   2.936   4.554   7.255 -0.0472 -0.0717  0.5533
  655SOL    HW2 4858   2.932   4.548   7.406 -0.2057 -1.3936  0.5080
  656SOL     OW 4859   4.263   3.615   4.141 -0.1379  0.2248 -0.2328
  656SOL    HW1 4860   4.301   3.679   4.081  1.0393  0.1652  0.4229
  656SOL    HW2 4861   4.338   3.566   4.174 -0.7093  0.5309  1.6187
  657SOL     OW 4862   6.686   4.083   4.205  0.6563 -0.0485 -0.0860
  657SOL    HW1 4863   6.634   4.158   4.176 -1.3995 -1.0958  0.6970
  657SOL    HW2 4864   6.752   4.072   4.137 -0.1392  1.3523 -1.1359
  658SOL     OW 4865   6.694   7.258   2.484 -0.6798 -0.0821  0.3729
  658SOL    HW1 4866   6.630   7.292   2.546 -2.1134  0.0522 -1.1279
  658SOL    HW2 4867   6.689   7.163   2.493 -2.6763 -0.1789 -1.1988
  659SOL     OW 4868   8.356   6.915   9.442 -0.0496  0.1910  0.0432
  659SOL    HW1 4869   8.289   6.915   9.510  0.2456 -1.3417  0.3541
  659SOL    HW2 4870   8.349   7.003   9.403 -1.1354  0.6237  1.1247
  660SOL     OW 4871   2.556   5.619   1.344  0.8165  0.6790 -0.4565
  660SOL    HW1 4872   2.462   5.612   1.331  0.7441  0.7469  0.0246
  660SOL    HW2 4873   2.594   5.577   1.267  0.3981  0.1880 -0.3958
  661SOL     OW 4874   6.376   1.551   5.444  0.8616 -0.5234  0.6336
  661SOL    HW1 4875   6.296   1.589   5.408 -0.7584 -1.0161  3.4564
  661SOL    HW2 4876   6.441   1.621   5.436 -0.3757  0.6080  0.0853
  662SOL     OW 4877   7.516   7.063   7.011 -0.3791 -0.3537  0.0016
  662SOL    HW1 4878   7.507   7.113   7.093 -1.8811  1.6162 -1.2541
  662SOL    HW2 4879   7.431   7.074   6.967 -0.0206 -2.3571 -1.3037
  663SOL     OW 4880   3.935   0.573   6.767  0.8818  0.1364 -0.3089
  663SOL    HW1 4881   3.960   0.521   6.690 -0.0632  0.9133 -1.1600
  663SOL    HW2 4882   3.928   0.662   6.735 -1.0126  0.2514  0.3316
  664SOL     OW 4883   9.592   7.847   5.642  0.1427  0.1140 -0.0874
  664SOL    HW1 4884   9.615   7.799   5.722  0.3520  1.2073  0.5333
  664SOL    HW2 4885   9.499   7.828   5.629  0.0301  0.1589  0.5916
  665SOL     OW 4886   3.996   8.107   2.172  0.2983 -0.1743 -0.3209
  665SOL    HW1 4887   4.036   8.148   2.249  1.0364 -0.5682 -0.4764
  665SOL    HW2 4888   3.986   8.015   2.197 -2.2191  0.2381  0.3725
  666SOL     OW 4889   4.289   3.796   2.979 -0.4641  0.0158  0.0181
  666SOL    HW1 4890   4.246   3.723   3.023  0.8060  0.3916  2.0021
  666SOL    HW2 4891   4.364   3.817   3.035  1.3712  0.4280 -2.4415
  667SOL     OW 4892   5.421   8.808   3.831 -0.3468  0.3782  0.1649
  667SOL    HW1 4893   5.470   8.727   3.841  0.8786  1.0691 -0.0676
  667SOL    HW2 4894   5.472   8.860   3.769 -0.2607  1.9526  1.4831
  668SOL     OW 4895   6.863   9.623   7.701 -0.4914  0.2089  0.5271
  668SOL    HW1 4896   6.841   9.646   7.611 -0.4905 -0.3218  0.3888
  668SOL    HW2 4897   6.933   9.559   7.693  0.2444  0.9398  0.9351
  669SOL     OW 4898   7.686   5.918   9.639  0.5299  0.0552 -0.2298
  669SOL    HW1 4899   7.721   5.875   9.561  0.1661 -0.5123 -0.0847
  669SOL    HW2 4900   7.604   5.873   9.657  0.8542 -0.1627  0.7746
  670SOL     OW 4901   7.513   6.759   1.755 -0.8273 -0.3849  0.0074
  670SOL    HW1 4902   7.514   6.827   1.688  0.5505 -0.9128 -0.5347
  670SOL    HW2 4903   7.571   6.691   1.722  3.5026  1.1267  3.4500
  671SOL     OW 4904   9.411   1.359   1.126  0.1345  0.6299 -0.2229
  671SOL    HW1 4905   9.401   1.279   1.073 -1.0595  0.3633  0.3789
  671SOL    HW2 4906   9.473   1.412   1.076  1.7665 -1.0944 -0.1245
  672SOL     OW 4907   5.536   3.616   4.867 -0.0365  0.3291 -0.2281
  672SOL    HW1 4908   5.460   3.615   4.808  0.8872 -1.4989 -1.4950
  672SOL    HW2 4909   5.612   3.617   4.809  0.9223  0.4640  0.9875
  673SOL     OW 4910   5.355   6.320   5.836 -0.1769  0.4971  0.5322
  673SOL    HW1 4911   5.346   6.232   5.873  0.5792  0.4691  0.6637
  673SOL    HW2 4912   5.434   6.315   5.782 -1.8603  0.1766 -2.1058
  674SOL     OW 4913   0.644   1.371   4.464 -0.0469  0.4494  0.2491
  674SOL    HW1 4914   0.637   1.307   4.535  0.5238  0.9383  0.7531
  674SOL    HW2 4915   0.604   1.327   4.389  0.3084 -0.4921  0.5939
  675SOL     OW 4916   8.754   6.865   0.014 -0.4310  0.3513  0.0787
  675SOL    HW1 4917   8.684   6.838  -0.046 -0.3403  0.7298 -0.2038
  675SOL    HW2 4918   8.714   6.860   0.101  0.1256 -2.4464  0.2431
  676SOL     OW 4919   3.538   3.692   6.039  0.0496 -0.4467 -0.1266
  676SOL    HW1 4920   3.630   3.677   6.061 -0.0188  0.4780  0.8314
  676SOL    HW2 4921   3.531   3.663   5.948  1.2719 -0.5680 -0.2019
  677SOL     OW 4922   9.449   7.170   5.557 -0.0075  0.0987  0.1451
  677SOL    HW1 4923   9.399   7.239   5.601  0.4259 -0.0165  0.8353
  677SOL    HW2 4924   9.525   7.156   5.613 -0.3233 -1.2677  0.2645
  678SOL     OW 4925   3.305   2.580   0.198  0.1803 -0.0471 -0.4027
  678SOL    HW1 4926   3.210   2.591   0.192  0.0183 -0.3545  1.1574
  678SOL    HW2 4927   3.341   2.667   0.181 -0.5091  0.5662  1.1443
  679SOL     OW 4928   1.303   2.791   1.084 -0.0703 -0.1099 -0.2601
  679SOL    HW1 4929   1.343   2.875   1.060  0.1368 -0.0123  0.3932
  679SOL    HW2 4930   1.298   2.794   1.179 -2.8239  0.4024 -0.3409
  680SOL     OW 4931   9.173   3.636   5.325 -0.3032  0.5184  0.0281
  680SOL    HW1 4932   9.094   3.582   5.317 -0.6426  0.5265  2.6519
  680SOL    HW2 4933   9.178   3.658   5.418  0.7578  3.6419 -0.6620
  681SOL     OW 4934   3.863   8.152   6.907 -0.2732 -0.2933  0.0354
  681SOL    HW1 4935   3.829   8.077   6.956 -1.2345 -0.1223 -0.3391
  681SOL    HW2 4936   3.894   8.115   6.824 -0.0231 -0.3790  0.1658
  682SOL     OW 4937   0.208   6.297   1.979 -0.1630  0.4416  0.5506
  682SOL    HW1 4938   0.207   6.274   2.072  0.1484 -0.3305  0.3809
  682SOL    HW2 4939   0.124   6.338   1.962 -0.2593  0.4939  1.1527
  683SOL     OW 4940   7.871   0.438   9.207 -0.3484  0.0562  0.1192
  683SOL    HW1 4941   7.900   0.352   9.236  0.1233  0.6458  1.5150
  683SOL    HW2 4942   7.784   0.448   9.246 -1.7338 -0.9408 -2.4939
  684SOL     OW 4943   3.573   0.111   5.578  0.0122 -0.2404  0.2645
  684SOL    HW1 4944   3.639   0.146   5.639  0.4834 -0.0011 -0.3698
  684SOL    HW2 4945   3.588   0.159   5.497 -1.5547  0.4933  0.3647
  685SOL     OW 4946   0.014   9.169   3.362 -0.0764 -0.0286 -0.0741
  685SOL    HW1 4947   0.058   9.086   3.343 -1.7545 -0.5010 -2.2644
  685SOL    HW2 4948  -0.029   9.192   3.280 -1.0266  2.1790  0.9810
  686SOL     OW 4949   7.443   1.734   0.497 -0.7481 -0.0970  0.2095
  686SOL    HW1 4950   7.539   1.727   0.503 -0.7701  0.5551  1.7020
  686SOL    HW2 4951   7.412   1.644   0.500 -0.1967 -0.3012 -0.0513
  687SOL     OW 4952   5.309   7.059   5.847  0.1435 -0.5942 -0.4627
  687SOL    HW1 4953   5.344   7.140   5.882 -3.0501  1.4607 -1.5674
  687SOL    HW2 4954   5.373   7.031   5.782  1.4365  0.9005  0.1180
  688SOL     OW 4955   8.566   9.614   1.874 -0.4813 -0.7805  0.5589
  688SOL    HW1 4956   8.523   9.570   1.947  0.4034 -1.1803  0.8543
  688SOL    HW2 4957   8.654   9.576   1.872 -0.9402 -1.8847 -1.6364
  689SOL     OW 4958   7.820   1.053   6.944 -0.0375  0.0003  0.3078
  689SOL    HW1 4959   7.729   1.064   6.970 -0.5953 -1.7161 -0.7874
  689SOL    HW2 4960   7.828   1.102   6.862 -0.5880 -1.5545 -0.7231
  690SOL     OW 4961   7.149   4.260   1.936  0.3875 -0.2965  0.0662
  690SOL    HW1 4962   7.180   4.171   1.921  0.6481 -0.3373  0.7908
  690SOL    HW2 4963   7.186   4.284   2.021  0.7120  0.6787 -0.3345
  691SOL     OW 4964   6.665   8.595   7.720 -0.0182 -0.9020  0.2468
  691SOL    HW1 4965   6.630   8.660   7.659  0.5638 -1.1478 -0.3594
  691SOL    HW2 4966   6.754   8.578   7.689  1.1257  0.5576  2.4182
  692SOL     OW 4967   7.495   4.428   4.577  0.1996 -0.3204  0.5073
  692SOL    HW1 4968   7.400   4.433   4.565  0.4347  0.9965 -1.0370
  692SOL    HW2 4969   7.522   4.518   4.595  1.2073 -0.6312  0.6110
  693SOL     OW 4970   5.935   2.536   7.099 -0.2098 -0.0745 -0.4117
  693SOL    HW1 4971   5.948   2.528   7.004 -0.1667  0.1158 -0.4226
  693SOL    HW2 4972   5.929   2.630   7.114  2.0082  0.0528  0.0524
  694SOL     OW 4973   5.552   6.646   7.567  0.0577 -0.1910 -0.3177
  694SOL    HW1 4974   5.598   6.606   7.641  0.2901 -0.7417 -0.7617
  694SOL    HW2 4975   5.620   6.664   7.502 -0.3064 -0.7590 -0.8638
  695SOL     OW 4976   0.526   1.765   9.521 -0.5166  0.1401 -0.1769
  695SOL    HW1 4977   0.437   1.741   9.550 -0.5313  0.2103 -0.1650
  695SOL    HW2 4978   0.513   1.838   9.462 -0.3953  0.7730  0.5589
  696SOL     OW 4979   8.884   3.309   9.578 -0.0385 -0.0194  0.1425
  696SOL    HW1 4980   8.944   3.355   9.520 -0.8134 -0.2733 -0.8789
  696SOL    HW2 4981   8.940   3.255   9.634  0.7353  0.5283 -0.0972
  697SOL     OW 4982   8.036   6.822   7.771  0.2057 -0.1534 -0.7635
  697SOL    HW1 4983   8.131   6.828   7.760  0.2293 -0.1861 -0.5825
  697SOL    HW2 4984   8.018   6.728   7.767  0.4997 -0.3805  1.6756
  698SOL     OW 4985   4.499   3.602   6.204  0.2650 -0.1940 -0.0753
  698SOL    HW1 4986   4.408   3.574   6.217  0.4804 -1.7594 -1.5834
  698SOL    HW2 4987   4.494   3.665   6.131  0.4094 -0.4983 -0.3502
  699SOL     OW 4988   5.932   1.063   5.606 -0.7100  0.2057  0.1655
  699SOL    HW1 4989   6.003   1.041   5.666 -1.8206 -0.4456  1.2994
  699SOL    HW2 4990   5.954   1.150   5.573  0.4383  0.1551  0.7536
  700SOL     OW 4991   9.500   0.560   8.427  0.3113  0.0892 -0.0070
  700SOL    HW1 4992   9.481   0.494   8.361  0.8468  0.2573 -0.3386
  700SOL    HW2 4993   9.551   0.626   8.381 -2.2384  1.9715 -0.3178
  701SOL     OW 4994   1.601   4.895   5.313  0.3118 -0.3219  0.4754
  701SOL    HW1 4995   1.520   4.933   5.347 -0.0375 -1.0192  0.4423
  701SOL    HW2 4996   1.595   4.802   5.335  0.9335 -0.4469  0.1417
  702SOL     OW 4997   7.534   1.238   8.588 -0.2112  0.5014  0.4491
  702SOL    HW1 4998   7.561   1.146   8.588 -2.1362 -0.1311 -0.5626
  702SOL    HW2 4999   7.603   1.284   8.541  0.0146 -0.7112 -0.4538
  703SOL     OW 5000   3.960   3.603   7.772 -0.4712  0.7444 -0.0168
  703SOL    HW1 5001   3.934   3.606   7.680 -0.5190  1.3056  0.0111
  703SOL    HW2 5002   3.879   3.587   7.820 -0.3491 -0.2136 -0.1117
  704SOL     OW 5003   1.575   3.664   5.744 -0.2758 -0.1379 -0.8616
  704SOL    HW1 5004   1.525   3.631   5.669  1.7165  1.6612 -3.1310
  704SOL    HW2 5005   1.648   3.712   5.706  0.4931  1.4716  2.2551
  705SOL     OW 5006   7.652   5.973   3.504  0.4852  0.2725  0.4680
  705SOL    HW1 5007   7.631   6.031   3.578  0.2678 -1.1488  1.5843
  705SOL    HW2 5008   7.635   5.885   3.538 -0.6224 -0.3847 -1.6363
  706SOL     OW 5009   1.450   5.615   0.926  0.4173  0.7081  0.2131
  706SOL    HW1 5010   1.545   5.618   0.918  0.3786 -0.4362 -1.2466
  706SOL    HW2 5011   1.429   5.521   0.926 -0.7683  0.9514 -0.5036
  707SOL     OW 5012   0.623   9.385   9.366 -0.2234  1.1855 -0.0167
  707SOL    HW1 5013   0.619   9.333   9.286 -0.0806  1.0808  0.0444
  707SOL    HW2 5014   0.713   9.377   9.397 -0.5769  0.1980  0.8245
  708SOL     OW 5015   3.009   1.311   3.511 -0.1356 -0.4270 -0.0219
  708SOL    HW1 5016   3.101   1.321   3.485 -0.0109 -0.4559  0.4013
  708SOL    HW2 5017   2.975   1.401   3.512  0.2865 -0.2660  1.2487
  709SOL     OW 5018   2.540   3.047   8.512  0.0877  0.3265 -0.2191
  709SOL    HW1 5019   2.450   3.037   8.542  0.3925 -0.1886  0.5578
  709SOL    HW2 5020   2.593   3.037   8.591  0.9048 -0.8516 -0.8823
  710SOL     OW 5021   0.331   3.016   8.545 -0.3222 -0.3346  0.1016
  710SOL    HW1 5022   0.360   2.937   8.501 -1.9992 -1.2518  0.5664
  710SOL    HW2 5023   0.357   3.003   8.637 -1.2255 -0.6829  0.3140
  711SOL     OW 5024   8.333   4.502   5.156  0.2698  0.4091  0.0120
  711SOL    HW1 5025   8.243   4.468   5.158 -0.0588  1.1970 -0.5806
  711SOL    HW2 5026   8.322   4.596   5.174  1.0690  0.3600  0.8291
  712SOL     OW 5027   3.687   0.759   3.916 -0.4593  0.3560 -0.5323
  712SOL    HW1 5028   3.608   0.789   3.872 -1.2742 -0.2785  0.4717
  712SOL    HW2 5029   3.660   0.683   3.967  0.6094  0.6137  0.4795
  713SOL     OW 5030   6.344   6.115   6.762 -0.4250 -0.4788 -0.1636
  713SOL    HW1 5031   6.293   6.134   6.840 -0.9823  1.4376 -0.9313
  713SOL    HW2 5032   6.293   6.152   6.690  0.8705 -0.6898 -1.2439
  714SOL     OW 5033   7.264   0.528   8.369 -0.3754  0.1493  0.0267
  714SOL    HW1 5034   7.245   0.468   8.441 -0.5974  0.8502  0.5502
  714SOL    HW2 5035   7.180   0.569   8.349 -0.3197 -0.0527 -0.6464
  715SOL     OW 5036   0.466   1.051   7.981  0.2882 -0.0281 -0.1806
  715SOL    HW1 5037   0.495   1.129   8.027 -0.5815 -0.1322  0.5754
  715SOL    HW2 5038   0.547   1.003   7.962  0.7931  0.8542 -0.3022
  716SOL     OW 5039   8.506   4.813   2.381 -0.0003  0.3954 -0.2232
  716SOL    HW1 5040   8.454   4.757   2.439  0.4999  1.3161  1.1875
  716SOL    HW2 5041   8.523   4.891   2.433  1.2310  0.8958 -1.3167
  717SOL     OW 5042   8.680   8.701   2.894  0.1545  0.1668  0.4435
  717SOL    HW1 5043   8.615   8.674   2.829 -1.5165  0.7315  1.8123
  717SOL    HW2 5044   8.648   8.663   2.976  1.0585  1.2223  1.3052
  718SOL     OW 5045   2.605   4.064   7.517  0.3763  0.0303  0.2201
  718SOL    HW1 5046   2.671   4.114   7.470  0.4727 -0.3178 -0.0192
  718SOL    HW2 5047   2.523   4.109   7.498  0.4338 -0.0200 -0.1634
  719SOL     OW 5048   3.087   8.714   3.347 -0.5108  0.6514 -0.2870
  719SOL    HW1 5049   3.124   8.637   3.303 -1.3496  0.4175 -0.5937
  719SOL    HW2 5050   3.073   8.777   3.277 -0.0609  0.9999 -0.0697
  720SOL     OW 5051   7.016   1.471   0.593 -0.1639 -0.1040  0.2865
  720SOL    HW1 5052   7.006   1.491   0.500 -1.0409  2.2858  0.8237
  720SOL    HW2 5053   6.940   1.416   0.613  0.1183 -0.7725 -0.4070
  721SOL     OW 5054   6.019   6.636   0.706  0.3184 -0.1525  0.0660
  721SOL    HW1 5055   6.037   6.698   0.635 -0.2472 -1.7730 -1.5645
  721SOL    HW2 5056   5.964   6.685   0.767 -1.9937  0.3952 -2.2459
  722SOL     OW 5057   4.149   8.423   9.501  0.2633 -0.4732 -0.2767
  722SOL    HW1 5058   4.191   8.342   9.527 -0.7926 -0.7655  0.5735
  722SOL    HW2 5059   4.081   8.397   9.439 -0.3969 -0.3116  0.3596
  723SOL     OW 5060   6.673   6.180   8.578  0.1664  0.2333  0.1933
  723SOL    HW1 5061   6.728   6.234   8.634  0.8782  0.1041 -0.3740
  723SOL    HW2 5062   6.715   6.094   8.578 -0.7541 -0.2394  0.7961
  724SOL     OW 5063   8.795   6.114   9.313  1.0420 -0.4074 -0.0629
  724SOL    HW1 5064   8.721   6.067   9.273  0.8240 -1.0226  1.0253
  724SOL    HW2 5065   8.755   6.177   9.372  1.3588  0.6932 -0.9760
  725SOL     OW 5066   0.954   4.817   5.614 -0.1554 -0.6375  1.1182
  725SOL    HW1 5067   0.919   4.905   5.616  0.6651 -0.2906  0.7338
  725SOL    HW2 5068   0.936   4.781   5.701  0.9277  0.4910  1.8459
  726SOL     OW 5069   1.844   1.839   4.224 -0.1059 -0.6922 -0.1997
  726SOL    HW1 5070   1.766   1.819   4.276 -0.3239  2.1780  0.7116
  726SOL    HW2 5071   1.811   1.888   4.148  0.7409  0.0496 -0.1038
  727SOL     OW 5072   9.483   7.964   7.461  0.4217 -0.2065 -0.0946
  727SOL    HW1 5073   9.458   8.024   7.391  1.0149  0.9304  0.6493
  727SOL    HW2 5074   9.578   7.966   7.463  0.4833 -1.5789 -0.3874
  728SOL     OW 5075   2.346   9.492   6.529  0.9985 -0.1533 -0.6879
  728SOL    HW1 5076   2.251   9.501   6.527  0.9724  0.1254  0.8129
  728SOL    HW2 5077   2.361   9.397   6.527  0.7473 -0.1912 -1.7291
  729SOL     OW 5078   7.627   9.505   6.352  0.4230  0.5067 -0.4119
  729SOL    HW1 5079   7.548   9.512   6.299 -2.5593 -1.1214  3.2603
  729SOL    HW2 5080   7.652   9.413   6.345  1.4828  0.8136 -0.8281
  730SOL     OW 5081   1.805   3.289   0.099  0.1153 -0.6366 -0.3849
  730SOL    HW1 5082   1.791   3.198   0.122  0.8510 -0.0551  2.7761
  730SOL    HW2 5083   1.758   3.339   0.165 -1.0233  1.3644 -2.5335
  731SOL     OW 5084   9.454   7.938   8.795  0.0902  0.3875  0.0635
  731SOL    HW1 5085   9.418   7.858   8.833 -0.5150  0.0568 -1.1769
  731SOL    HW2 5086   9.405   7.951   8.714  1.9039  0.6034 -1.0603
  732SOL     OW 5087   0.682   9.338   2.910 -0.0600  0.4038  0.0603
  732SOL    HW1 5088   0.589   9.347   2.933  0.0986  0.1657  0.8338
  732SOL    HW2 5089   0.723   9.417   2.944  0.4404 -0.6552  2.1071
  733SOL     OW 5090   6.848   8.477   3.438 -0.1424 -0.3691  0.0799
  733SOL    HW1 5091   6.829   8.562   3.478  1.0663 -1.0129  2.1695
  733SOL    HW2 5092   6.916   8.495   3.373  2.1061  0.0043  2.3552
  734SOL     OW 5093   4.783   2.077   3.222  0.3175 -0.2934 -0.1594
  734SOL    HW1 5094   4.806   2.154   3.274  1.6580  0.1843 -1.4035
  734SOL    HW2 5095   4.864   2.052   3.178  0.1969 -3.0619  0.9641
  735SOL     OW 5096   0.194   9.315   4.627 -0.2116  0.2759  0.3410
  735SOL    HW1 5097   0.119   9.375   4.635  1.3890  2.3378  0.9216
  735SOL    HW2 5098   0.232   9.314   4.715 -1.0675 -2.9624  0.7879
  736SOL     OW 5099   0.103   3.393   3.755  0.1189  0.2897  0.8674
  736SOL    HW1 5100   0.182   3.341   3.770  0.3713  1.1155  2.7941
  736SOL    HW2 5101   0.102   3.455   3.828 -1.3385  1.5228 -0.1420
  737SOL     OW 5102   1.222   1.548   4.253  0.6279 -0.2343  0.9497
  737SOL    HW1 5103   1.297   1.524   4.199  0.5503 -0.0143  0.7418
  737SOL    HW2 5104   1.174   1.466   4.266  0.0147 -0.0988 -0.2947
  738SOL     OW 5105   7.860   8.416   6.498  1.1852  0.4482 -0.2846
  738SOL    HW1 5106   7.929   8.367   6.542  0.8655  0.7136  0.5415
  738SOL    HW2 5107   7.905   8.490   6.456  1.3633  0.8409  0.5830
  739SOL     OW 5108   2.261   1.848   0.092  0.3691  0.2926  1.0463
  739SOL    HW1 5109   2.303   1.933   0.103 -0.2620  0.5180  1.8250
  739SOL    HW2 5110   2.168   1.865   0.106  0.2917 -0.6064  1.7194
  740SOL     OW 5111   1.105   1.644   8.435  0.1992 -0.1693  0.1870
  740SOL    HW1 5112   1.054   1.693   8.499  2.0458  1.0548  0.8100
  740SOL    HW2 5113   1.184   1.618   8.482  0.1052 -2.2143 -0.6669
  741SOL     OW 5114   7.960   0.998   6.509  0.0470 -0.3964 -0.1643
  741SOL    HW1 5115   8.047   1.025   6.478 -0.7155 -0.0870 -2.1573
  741SOL    HW2 5116   7.915   0.966   6.431 -1.7691 -0.2362  0.7627
  742SOL     OW 5117   1.570   9.136   9.332  0.4477  0.4922  0.0265
  742SOL    HW1 5118   1.584   9.041   9.325  2.6374  0.6644  1.0905
  742SOL    HW2 5119   1.555   9.164   9.242  0.4270 -0.7910 -0.3969
  743SOL     OW 5120   3.655   6.750   6.935  0.4002 -0.1357  0.1496
  743SOL    HW1 5121   3.659   6.815   7.005 -1.1522  0.3186 -0.1350
  743SOL    HW2 5122   3.653   6.665   6.980 -0.0556  0.1316  0.6476
  744SOL     OW 5123   1.081   3.867   7.809  0.2711 -0.5950 -0.1630
  744SOL    HW1 5124   1.022   3.941   7.798 -0.0823 -1.1883 -2.6433
  744SOL    HW2 5125   1.169   3.906   7.808  0.1126 -0.2279 -1.9983
  745SOL     OW 5126   5.018   4.579   0.804  0.2411 -0.7735  0.1197
  745SOL    HW1 5127   5.108   4.597   0.831  0.6417 -0.7388 -1.2044
  745SOL    HW2 5128   5.026   4.537   0.719 -0.9521 -1.8783  0.5182
  746SOL     OW 5129   5.693   9.265   0.008  0.0727 -0.3442  0.0402
  746SOL    HW1 5130   5.752   9.242  -0.063 -0.1818 -0.6502 -0.0758
  746SOL    HW2 5131   5.612   9.292  -0.035 -0.0117 -0.3265  0.2059
  747SOL     OW 5132   3.528   0.397   4.893 -0.6599 -0.4581  0.0770
  747SOL    HW1 5133   3.447   0.425   4.851 -0.3109 -0.6380 -0.7325
  747SOL    HW2 5134   3.518   0.422   4.985 -1.6577 -0.5384 -0.0032
  748SOL     OW 5135   0.819   4.427   2.095 -0.2552  0.1489 -0.1052
  748SOL    HW1 5136   0.858   4.341   2.080 -1.3624 -0.5789  1.0232
  748SOL    HW2 5137   0.867   4.485   2.035 -0.0163 -1.3676 -1.4700
  749SOL     OW 5138   1.474   9.419   8.002  0.0003  0.5855  0.1854
  749SOL    HW1 5139   1.547   9.357   8.013 -1.6988 -1.3693  1.3043
  749SOL    HW2 5140   1.448   9.408   7.911  0.1935  0.2077  0.1703
  750SOL     OW 5141   2.298   0.577   8.816  0.2038 -0.1146 -0.0952
  750SOL    HW1 5142   2.267   0.496   8.856  0.5159  0.2473  0.9218
  750SOL    HW2 5143   2.392   0.564   8.804  0.0076 -0.4566 -1.3104
  751SOL     OW 5144   7.287   5.191   3.378 -0.3207 -0.3363 -0.0883
  751SOL    HW1 5145   7.273   5.190   3.283 -1.9526  2.1016  0.0327
  751SOL    HW2 5146   7.203   5.166   3.415 -0.6123  1.6135  0.6804
  752SOL     OW 5147   8.758   6.957   7.826  0.2431  0.6168 -0.5041
  752SOL    HW1 5148   8.681   6.957   7.883  1.0235  1.7435  0.5792
  752SOL    HW2 5149   8.824   6.909   7.875  0.7394  1.0915 -0.6991
  753SOL     OW 5150   6.378   5.951   1.857  0.4966  0.3000 -0.5930
  753SOL    HW1 5151   6.306   5.945   1.794 -0.2899  1.2648  0.1721
  753SOL    HW2 5152   6.414   6.039   1.844  1.1854  0.0176 -0.6003
  754SOL     OW 5153   8.938   3.728   5.510  0.4649  0.6107  0.4176
  754SOL    HW1 5154   8.851   3.691   5.526  0.9253 -0.4070  0.6693
  754SOL    HW2 5155   8.983   3.719   5.594  0.2061  2.9275  0.8619
  755SOL     OW 5156   0.912   9.349   3.978 -0.7136 -0.1643 -0.1129
  755SOL    HW1 5157   0.854   9.382   3.909 -0.3755  1.4138  0.3183
  755SOL    HW2 5158   0.980   9.301   3.931 -0.8267  0.3717 -0.8384
  756SOL     OW 5159   0.072   0.084   9.009 -0.3181  0.7345  0.2377
  756SOL    HW1 5160  -0.012   0.129   8.995 -0.6558 -0.1633 -0.7311
  756SOL    HW2 5161   0.135   0.136   8.959 -0.7953 -0.1156 -1.3065
  757SOL     OW 5162   2.501   1.101   3.478  0.1456 -0.1123 -0.8716
  757SOL    HW1 5163   2.464   1.076   3.562  1.0571 -0.4968 -0.5700
  757SOL    HW2 5164   2.594   1.079   3.485  0.0485 -1.1683 -2.3687
  758SOL     OW 5165   6.287   6.588   0.799 -0.1804 -0.2104  0.0262
  758SOL    HW1 5166   6.293   6.492   0.803 -0.6610 -0.2618 -0.4610
  758SOL    HW2 5167   6.198   6.606   0.768 -0.2571  0.4067  0.5751
  759SOL     OW 5168   2.332   3.894   6.443 -0.1625  0.2570  0.0789
  759SOL    HW1 5169   2.272   3.824   6.415 -0.4171  0.2731  0.5888
  759SOL    HW2 5170   2.295   3.974   6.406  0.6589  0.0151 -1.3486
  760SOL     OW 5171   3.755   7.160   8.074 -0.1366  0.3563  0.4934
  760SOL    HW1 5172   3.736   7.252   8.094  1.8426  1.7273 -3.0982
  760SOL    HW2 5173   3.851   7.157   8.068 -0.2822 -1.0285 -2.8419
  761SOL     OW 5174   2.286   4.077   1.961 -0.0851  0.2337  0.2310
  761SOL    HW1 5175   2.346   4.136   1.916  1.8811 -0.9530  1.1784
  761SOL    HW2 5176   2.235   4.037   1.890  0.7652  0.6969 -0.6707
  762SOL     OW 5177   5.661   1.084   8.162 -0.1032 -0.2343  0.2386
  762SOL    HW1 5178   5.593   1.023   8.191  0.6363 -0.3554  1.8411
  762SOL    HW2 5179   5.649   1.091   8.068 -2.1303 -0.4964  0.4341
  763SOL     OW 5180   5.309   4.106   8.013 -0.3301 -0.0930 -0.5444
  763SOL    HW1 5181   5.301   4.154   7.930 -0.7894 -0.4001 -0.6866
  763SOL    HW2 5182   5.229   4.054   8.018  0.0902 -0.7375 -0.3293
  764SOL     OW 5183   4.951   8.003   2.374 -0.2250 -0.6047  0.1480
  764SOL    HW1 5184   4.940   8.021   2.281 -0.2591 -0.2394  0.2212
  764SOL    HW2 5185   5.010   8.072   2.405  0.1006 -0.9605  0.3152
  765SOL     OW 5186   7.849   9.403   3.661  0.3535 -0.3033  0.7046
  765SOL    HW1 5187   7.764   9.409   3.616  0.6555 -1.0434  0.0061
  765SOL    HW2 5188   7.844   9.320   3.708  0.6798 -0.3354  0.6836
  766SOL     OW 5189   2.146   1.473   7.220  0.5726 -0.1921 -0.4963
  766SOL    HW1 5190   2.073   1.443   7.275  0.3259  1.2976  0.0189
  766SOL    HW2 5191   2.155   1.405   7.153 -0.8995 -0.6907 -0.2137
  767SOL     OW 5192   3.447   1.355   4.792  0.3781 -0.4014 -0.2182
  767SOL    HW1 5193   3.474   1.285   4.851  0.7510 -1.2205 -1.3260
  767SOL    HW2 5194   3.397   1.311   4.723  0.9170  0.3607 -1.1296
  768SOL     OW 5195   5.458   1.062   2.908  0.0926 -0.1661 -0.4822
  768SOL    HW1 5196   5.460   0.966   2.901 -0.9458 -0.2664  0.2321
  768SOL    HW2 5197   5.364   1.083   2.911  0.3063  0.7082  1.2656
  769SOL     OW 5198   0.921   3.440   5.649  0.3247 -0.2315 -0.1637
  769SOL    HW1 5199   0.867   3.394   5.585  2.1488 -0.9100 -1.2933
  769SOL    HW2 5200   0.921   3.384   5.726 -0.2690 -0.4016 -0.2832
  770SOL     OW 5201   3.428   1.142   2.771 -0.1814 -0.0238  0.2233
  770SOL    HW1 5202   3.360   1.147   2.838 -1.0623 -1.1907 -0.5520
  770SOL    HW2 5203   3.501   1.193   2.807 -1.0748  0.3760  1.5255
  771SOL     OW 5204   5.717   6.470   0.298 -0.4008  0.4767  0.0491
  771SOL    HW1 5205   5.710   6.512   0.384  2.2238 -0.0968  0.6256
  771SOL    HW2 5206   5.789   6.515   0.254  0.2186 -1.1252 -0.6761
  772SOL     OW 5207   0.919   0.914   0.220  0.0600  0.4852 -0.2392
  772SOL    HW1 5208   0.952   0.978   0.157  0.3979  1.5788  0.9924
  772SOL    HW2 5209   0.824   0.925   0.218  0.0292  0.1541 -0.9079
  773SOL     OW 5210   7.902   7.271   2.598 -0.1018  0.2341 -0.3780
  773SOL    HW1 5211   7.897   7.276   2.503  0.2000  0.8071 -0.3750
  773SOL    HW2 5212   7.824   7.317   2.629 -0.5916 -0.6173 -0.3501
  774SOL     OW 5213   7.913   4.442   8.321 -0.3477 -0.1546  0.5244
  774SOL    HW1 5214   7.862   4.406   8.249  1.3574 -2.2991  0.2713
  774SOL    HW2 5215   7.888   4.388   8.397 -0.2616  0.4146  0.9692
  775SOL     OW 5216   4.503   0.487   8.021 -0.5573  0.4616  0.0192
  775SOL    HW1 5217   4.496   0.532   8.106  0.9188  0.0227  0.4044
  775SOL    HW2 5218   4.586   0.518   7.984 -0.5063 -0.4044 -0.6260
  776SOL     OW 5219   2.525   7.612   5.433  0.2442 -0.2080 -0.1899
  776SOL    HW1 5220   2.502   7.570   5.350 -2.2658 -1.4302  1.0199
  776SOL    HW2 5221   2.594   7.556   5.470  0.3002 -0.5223 -0.7525
  777SOL     OW 5222   0.189   8.047   1.652 -0.0662 -0.4821 -0.2587
  777SOL    HW1 5223   0.167   7.968   1.602  0.8509 -0.2512 -1.0613
  777SOL    HW2 5224   0.205   8.015   1.741  1.5559 -1.4282 -0.8504
  778SOL     OW 5225   9.115   5.558   2.005  0.4299  0.6310  0.3165
  778SOL    HW1 5226   9.032   5.546   2.051 -0.9570  1.9697 -1.6239
  778SOL    HW2 5227   9.156   5.633   2.048 -0.3260  1.1744  0.1294
  779SOL     OW 5228   6.684   3.717   2.823 -0.7259  0.0406 -0.4729
  779SOL    HW1 5229   6.740   3.750   2.892 -2.6097  2.1236  0.1918
  779SOL    HW2 5230   6.711   3.765   2.745  0.1146 -0.9076 -0.7950
  780SOL     OW 5231   8.120   8.433   3.998  0.2774 -0.4257  0.1446
  780SOL    HW1 5232   8.031   8.440   4.032  0.3006  0.8488 -0.0109
  780SOL    HW2 5233   8.164   8.513   4.029  1.7557 -1.6038  1.2934
  781SOL     OW 5234   5.318   2.198   2.898  0.5481 -0.0971  0.0601
  781SOL    HW1 5235   5.295   2.225   2.987 -2.5078  0.4291 -0.7457
  781SOL    HW2 5236   5.308   2.103   2.898 -4.3071  0.1594 -0.6626
  782SOL     OW 5237   2.978   8.026   6.409  0.2086  0.3460  0.0346
  782SOL    HW1 5238   3.041   8.069   6.352  0.0135  1.5429  0.6930
  782SOL    HW2 5239   2.914   8.094   6.429 -0.9740 -0.6779 -0.1355
  783SOL     OW 5240   8.349   2.954   8.968  0.0045  0.1027  0.4067
  783SOL    HW1 5241   8.385   2.999   9.045  1.2706 -1.4969  0.8162
  783SOL    HW2 5242   8.313   2.873   9.003  1.7389 -1.2609 -0.7653
  784SOL     OW 5243   1.978   2.200   3.045  0.1090  0.6593  0.0537
  784SOL    HW1 5244   1.888   2.233   3.043  0.0369  0.4382 -0.7507
  784SOL    HW2 5245   1.973   2.122   3.101 -0.4985 -0.1575 -1.0882
  785SOL     OW 5246   0.265   1.794   9.169 -0.2085 -0.4226  0.1550
  785SOL    HW1 5247   0.214   1.758   9.097  0.0438 -0.5204  0.0221
  785SOL    HW2 5248   0.256   1.729   9.240 -1.0821  0.0429  0.4814
  786SOL     OW 5249   8.894   4.619   6.824 -0.1808 -0.2754 -0.2125
  786SOL    HW1 5250   8.815   4.577   6.790 -2.2516  1.8732  1.6067
  786SOL    HW2 5251   8.872   4.712   6.829  2.7855  0.5390 -0.3622
  787SOL     OW 5252   4.511   0.732   4.799 -0.4031  0.1262 -0.2325
  787SOL    HW1 5253   4.515   0.802   4.863 -0.9684  0.5113 -0.6108
  787SOL    HW2 5254   4.573   0.666   4.831 -2.5376 -0.8781  2.1080
  788SOL     OW 5255   8.199   3.697   0.158  0.1604 -0.2989  0.2378
  788SOL    HW1 5256   8.272   3.658   0.205 -0.5967 -1.3703  0.5572
  788SOL    HW2 5257   8.232   3.782   0.129  1.3568 -0.5488  0.8076
  789SOL     OW 5258   3.765   8.938   2.781  0.0967 -0.0487 -0.1540
  789SOL    HW1 5259   3.732   8.913   2.695 -1.5715  0.0013  0.4329
  789SOL    HW2 5260   3.710   8.889   2.842  1.3827 -0.2391  0.8996
  790SOL     OW 5261   6.386   4.485   6.069 -0.2990 -0.5252 -0.1951
  790SOL    HW1 5262   6.444   4.445   6.004  0.1637 -0.3044  0.0751
  790SOL    HW2 5263   6.298   4.456   6.045  0.0273 -1.7047  0.0059
  791SOL     OW 5264   5.247   0.938   7.316  0.0574  0.6284  0.9910
  791SOL    HW1 5265   5.253   0.911   7.225 -4.1836  1.5844  0.1828
  791SOL    HW2 5266   5.251   0.856   7.366  1.2473 -0.0167 -0.1081
  792SOL     OW 5267   8.419   4.534   0.424  1.0664  0.1197 -0.4648
  792SOL    HW1 5268   8.382   4.590   0.356  2.1150  0.9421 -0.3794
  792SOL    HW2 5269   8.352   4.532   0.493  0.2895 -0.1640 -1.2099
  793SOL     OW 5270   6.565   0.796   4.617 -0.1365 -0.0575 -0.7316
  793SOL    HW1 5271   6.632   0.769   4.681  0.3434 -1.8297 -1.9220
  793SOL    HW2 5272   6.484   0.800   4.668  0.4819  0.0275  0.2890
  794SOL     OW 5273   0.175   3.979   5.826  0.1664 -0.0979 -0.1292
  794SOL    HW1 5274   0.131   3.927   5.759 -0.0004  0.4220 -0.4312
  794SOL    HW2 5275   0.108   4.041   5.856  0.0698 -0.6827  0.9198
  795SOL     OW 5276   5.486   3.442   4.326 -0.4465 -0.0942  0.1638
  795SOL    HW1 5277   5.439   3.524   4.312 -0.1910  0.6963  3.2335
  795SOL    HW2 5278   5.427   3.389   4.379  0.1781 -1.1463 -0.1540
  796SOL     OW 5279   0.409   3.158   4.730 -0.6089 -0.0083 -0.0115
  796SOL    HW1 5280   0.338   3.131   4.671 -0.8777  1.0518 -0.1896
  796SOL    HW2 5281   0.473   3.200   4.673  0.6193 -1.7278  0.0079
  797SOL     OW 5282   8.700   4.705   1.936 -0.4381 -0.1630  0.1155
  797SOL    HW1 5283   8.763   4.638   1.963 -0.0224 -1.1091 -2.8501
  797SOL    HW2 5284   8.621   4.657   1.914 -1.8722  0.8994  2.5982
  798SOL     OW 5285   8.507   9.038   9.486  0.4298  0.2449  0.6334
  798SOL    HW1 5286   8.552   8.977   9.428 -1.0864 -1.0826  0.7850
  798SOL    HW2 5287   8.509   9.122   9.440  2.2993  0.0524  0.2895
  799SOL     OW 5288   2.426   3.042   1.209 -0.2524 -0.5751  0.5289
  799SOL    HW1 5289   2.504   3.022   1.262 -0.3261 -1.9787  0.1424
  799SOL    HW2 5290   2.355   3.048   1.273  0.3277  2.0702  1.0556
  800SOL     OW 5291   1.113   1.767   2.325  0.0616 -0.5977  0.1720
  800SOL    HW1 5292   1.044   1.701   2.317  0.0209 -0.4086 -1.2060
  800SOL    HW2 5293   1.080   1.843   2.277  0.4509  0.1595  1.0617
  801SOL     OW 5294   7.161   8.092   2.071 -0.2267  0.1127 -0.1974
  801SOL    HW1 5295   7.223   8.116   2.002 -0.9003 -0.7916 -1.1548
  801SOL    HW2 5296   7.080   8.137   2.047 -0.6230 -0.6544 -0.3320
  802SOL     OW 5297   5.596   3.149   0.364 -0.1378 -0.1072  0.0853
  802SOL    HW1 5298   5.624   3.227   0.412 -0.0698  0.1508 -0.3696
  802SOL    HW2 5299   5.570   3.181   0.278 -3.1420 -0.1290  0.8779
  803SOL     OW 5300   4.782   8.599   1.324 -0.8928 -0.3092  0.3729
  803SOL    HW1 5301   4.707   8.540   1.334 -1.0490 -0.3917 -0.9737
  803SOL    HW2 5302   4.745   8.687   1.334 -1.5152 -0.2706 -1.7571
  804SOL     OW 5303   4.385   6.054   3.849  0.0462  0.0646 -0.3287
  804SOL    HW1 5304   4.417   6.142   3.866  1.6567 -0.6515  0.5447
  804SOL    HW2 5305   4.306   6.046   3.902 -2.4292  2.2104 -3.2756
  805SOL     OW 5306   8.976   8.618   1.581 -0.4743 -0.5585  0.5952
  805SOL    HW1 5307   8.947   8.671   1.507 -0.5286 -1.1010  0.2214
  805SOL    HW2 5308   8.898   8.572   1.611 -1.0683  1.6041  2.6844
  806SOL     OW 5309   2.029   2.221   1.882  0.2740 -0.6716 -0.1583
  806SOL    HW1 5310   2.105   2.234   1.825 -0.1757 -0.3500 -0.7072
  806SOL    HW2 5311   1.954   2.236   1.824 -0.2311 -2.1172  0.0936
  807SOL     OW 5312   2.396   2.011   7.038 -0.3014 -0.3056 -0.2945
  807SOL    HW1 5313   2.472   1.965   7.072 -0.0355 -0.3133 -0.8835
  807SOL    HW2 5314   2.384   2.085   7.098  0.5188  0.0206 -0.5166
  808SOL     OW 5315   1.227   2.455   3.279  0.0508  0.1164 -0.0112
  808SOL    HW1 5316   1.204   2.464   3.371  0.3352  0.7526  0.0048
  808SOL    HW2 5317   1.285   2.379   3.276  0.1744  0.1943  0.3583
  809SOL     OW 5318   7.292   5.522   0.476 -0.2939  0.4455 -0.0729
  809SOL    HW1 5319   7.242   5.452   0.432 -0.5428  1.1248 -0.9083
  809SOL    HW2 5320   7.335   5.568   0.404  1.1671  0.1730  0.6040
  810SOL     OW 5321   2.143   1.790   2.944  0.6675  0.3332  0.4738
  810SOL    HW1 5322   2.068   1.847   2.927  1.4390  0.8960 -1.3044
  810SOL    HW2 5323   2.135   1.766   3.036 -3.0810 -1.6827 -0.1958
  811SOL     OW 5324   3.587   4.025   1.888 -0.1439 -0.7850 -0.0052
  811SOL    HW1 5325   3.527   3.961   1.927  0.0294 -1.7699 -1.2976
  811SOL    HW2 5326   3.542   4.054   1.808  0.6782 -0.7986 -0.4780
  812SOL     OW 5327   1.357   3.678   3.294  0.6623  0.5312  0.1448
  812SOL    HW1 5328   1.368   3.773   3.291 -0.8857  0.7994  1.3288
  812SOL    HW2 5329   1.427   3.647   3.351 -0.0235  1.2497  1.4337
  813SOL     OW 5330   8.990   7.662   8.113  0.1739 -0.0678 -0.2819
  813SOL    HW1 5331   8.896   7.643   8.110 -0.4262  2.4182  0.7755
  813SOL    HW2 5332   9.018   7.632   8.200 -0.1677  1.2760  0.3040
  814SOL     OW 5333   7.107   4.424   6.090 -0.0561  0.0364 -0.0119
  814SOL    HW1 5334   7.035   4.458   6.037  0.2190  1.1604  0.3133
  814SOL    HW2 5335   7.168   4.498   6.098  1.2805 -0.9765 -0.5245
  815SOL     OW 5336   5.852   5.558   2.577  0.4618 -0.1442 -0.2879
  815SOL    HW1 5337   5.833   5.546   2.670  1.6002 -0.0298 -0.0374
  815SOL    HW2 5338   5.936   5.604   2.575 -0.1215  0.9363 -1.3566
  816SOL     OW 5339   2.174   1.229   0.877  0.2130  0.0582 -0.2542
  816SOL    HW1 5340   2.114   1.253   0.807 -0.4596  0.4297  0.4275
  816SOL    HW2 5341   2.187   1.311   0.926 -0.6559 -0.5287  1.0184
  817SOL     OW 5342   8.917   2.003   3.603  0.1247 -0.0727 -0.1873
  817SOL    HW1 5343   8.936   1.910   3.615  0.2737 -0.1510 -0.9955
  817SOL    HW2 5344   8.828   2.006   3.568  0.2380  0.0666 -0.4711
  818SOL     OW 5345   3.837   6.905   5.404 -0.0172 -0.4169  0.1101
  818SOL    HW1 5346   3.838   6.832   5.465  2.5186 -1.2130 -0.7626
  818SOL    HW2 5347   3.895   6.879   5.333  0.9201  2.3785 -0.3058
  819SOL     OW 5348   6.375   8.097   3.055 -0.0214 -0.4478  0.1735
  819SOL    HW1 5349   6.284   8.106   3.028  0.0645 -0.4900 -0.1245
  819SOL    HW2 5350   6.389   8.002   3.062 -0.2302 -0.4256  0.9956
  820SOL     OW 5351   1.489   2.136   1.616  0.2928 -0.0835  0.7495
  820SOL    HW1 5352   1.452   2.053   1.645  2.0507 -1.0891  0.2604
  820SOL    HW2 5353   1.568   2.147   1.670  2.4823 -0.9691 -2.0262
  821SOL     OW 5354   1.572   0.383   2.705 -0.2521 -0.0155 -0.2515
  821SOL    HW1 5355   1.499   0.322   2.716  0.5798 -0.9398  0.3175
  821SOL    HW2 5356   1.596   0.375   2.612 -0.4742 -0.1661 -0.2979
  822SOL     OW 5357   0.701   0.174   6.948  0.2839  0.4060 -0.2124
  822SOL    HW1 5358   0.740   0.233   7.012 -0.9229 -0.1558  1.0823
  822SOL    HW2 5359   0.732   0.206   6.864  2.3738  0.8411  0.6546
  823SOL     OW 5360   2.251   9.542   0.601  0.1267  0.4746 -0.1086
  823SOL    HW1 5361   2.278   9.512   0.688 -0.6070  0.4507  0.1196
  823SOL    HW2 5362   2.235   9.461   0.553  0.5507  0.4865 -0.2772
  824SOL     OW 5363   5.898   6.164   9.075 -0.2083  1.0756 -0.0890
  824SOL    HW1 5364   5.943   6.247   9.086 -1.2085  1.9179 -1.9550
  824SOL    HW2 5365   5.903   6.145   8.982 -0.4068 -0.7351  0.2269
  825SOL     OW 5366   7.283   4.617   1.692 -0.2809  0.2434 -0.5123
  825SOL    HW1 5367   7.229   4.542   1.667  1.4729 -1.2306 -0.0848
  825SOL    HW2 5368   7.346   4.626   1.622  0.2852  0.5624  0.0266
  826SOL     OW 5369   7.890   2.886   7.475 -0.1503 -0.0570  0.3130
  826SOL    HW1 5370   7.955   2.957   7.479 -0.0876 -0.0892 -0.1127
  826SOL    HW2 5371   7.941   2.806   7.484 -0.1519 -0.0744  0.1670
  827SOL     OW 5372   6.906   3.645   3.527 -0.1472  0.5401  0.5191
  827SOL    HW1 5373   6.829   3.607   3.570  1.2895  0.6191  3.4075
  827SOL    HW2 5374   6.962   3.570   3.508 -0.4943  0.5744 -0.7429
  828SOL     OW 5375   6.818   4.391   7.098 -0.3168  0.2656 -0.1200
  828SOL    HW1 5376   6.743   4.338   7.071 -0.4859 -0.3543  1.4268
  828SOL    HW2 5377   6.830   4.455   7.028 -1.9073 -0.0126 -0.6772
  829SOL     OW 5378   9.464   6.732   6.299  0.5352 -0.2656 -0.0648
  829SOL    HW1 5379   9.473   6.649   6.252  1.7473 -0.0139 -0.3115
  829SOL    HW2 5380   9.411   6.710   6.376  0.8539 -1.2771 -0.1098
  830SOL     OW 5381   3.674   9.511   0.173 -0.1593  0.2326 -0.2403
  830SOL    HW1 5382   3.747   9.514   0.111 -0.0502  1.9649 -0.0677
  830SOL    HW2 5383   3.598   9.491   0.118  0.3755 -1.4858 -0.4356
  831SOL     OW 5384   1.001   1.096   9.641  0.0558  0.0938 -0.0411
  831SOL    HW1 5385   1.025   1.178   9.683  0.0110 -0.9504  2.1216
  831SOL    HW2 5386   0.905   1.098   9.638  0.0769  0.5219 -0.9129
  832SOL     OW 5387   7.793   6.097   8.274 -0.1010  0.8569  0.4105
  832SOL    HW1 5388   7.828   6.163   8.213 -0.5441  0.3692 -0.3850
  832SOL    HW2 5389   7.709   6.072   8.237  0.2891 -0.5456  0.4068
  833SOL     OW 5390   6.836   7.717   0.291 -0.2200  0.4060  0.1445
  833SOL    HW1 5391   6.893   7.791   0.311  1.2087 -0.8584  1.0143
  833SOL    HW2 5392   6.797   7.739   0.206  0.1916  2.1155  0.3653
  834SOL     OW 5393   2.360   8.378   0.249  0.7948  0.2381 -0.1165
  834SOL    HW1 5394   2.394   8.335   0.171  1.0899  0.7678 -0.2859
  834SOL    HW2 5395   2.379   8.317   0.320 -0.8388 -0.9457 -0.6430
  835SOL     OW 5396   7.832   8.040   8.678 -0.5275  0.3090  0.3842
  835SOL    HW1 5397   7.775   8.103   8.722 -2.5240 -0.8027 -0.4599
  835SOL    HW2 5398   7.777   7.962   8.668  1.9967 -1.8420  1.9052
  836SOL     OW 5399   6.897   1.753   5.652  0.1366 -0.5225 -0.0495
  836SOL    HW1 5400   6.874   1.682   5.593 -1.3267  0.5152 -0.7910
  836SOL    HW2 5401   6.908   1.829   5.595 -1.8323  0.6353  1.0174
  837SOL     OW 5402   8.516   2.551   7.525 -0.1189  0.0558 -0.2379
  837SOL    HW1 5403   8.469   2.499   7.591  0.2023 -0.5517 -0.4729
  837SOL    HW2 5404   8.604   2.561   7.561 -0.0349 -0.0029 -0.4266
  838SOL     OW 5405   6.330   6.943   2.820 -0.3635  0.0451 -0.8824
  838SOL    HW1 5406   6.236   6.950   2.805 -0.4996  0.2940  0.0059
  838SOL    HW2 5407   6.353   6.854   2.793 -0.9304 -0.1541 -0.7098
  839SOL     OW 5408   5.738   7.818   3.946  0.0826  0.5949  0.2529
  839SOL    HW1 5409   5.709   7.899   3.904 -0.0959  0.6156  0.4136
  839SOL    HW2 5410   5.802   7.845   4.010 -0.0318  0.6167  0.3582
  840SOL     OW 5411   7.975   1.897   5.028  0.2902 -0.2275  0.0573
  840SOL    HW1 5412   8.008   1.966   4.969 -0.8655 -0.2429 -0.6480
  840SOL    HW2 5413   7.881   1.913   5.032  0.0706 -1.4816  0.2661
  841SOL     OW 5414   0.586   0.072   9.473  0.1765 -0.4709  0.4289
  841SOL    HW1 5415   0.641   0.076   9.552  0.5808  0.7100  0.1060
  841SOL    HW2 5416   0.639   0.113   9.405 -0.5876 -0.5342 -0.2145
  842SOL     OW 5417   0.236   4.855   6.393  0.3958  0.2925 -0.0465
  842SOL    HW1 5418   0.213   4.763   6.400  1.6798 -0.2738 -2.2801
  842SOL    HW2 5419   0.258   4.881   6.483  0.5721 -1.7280  0.5428
  843SOL     OW 5420   3.611   6.612   6.127  0.2358  0.0878 -0.1730
  843SOL    HW1 5421   3.522   6.630   6.156 -0.1488 -0.9356 -0.6656
  843SOL    HW2 5422   3.608   6.522   6.095  0.4914  1.1929 -3.8138
  844SOL     OW 5423   7.148   1.519   2.250  0.1915  0.3409  0.0062
  844SOL    HW1 5424   7.171   1.465   2.326 -0.2118  0.5353  0.2691
  844SOL    HW2 5425   7.090   1.463   2.198  3.5454 -1.3690 -2.2623
  845SOL     OW 5426   1.439   2.372   5.013  0.4317  0.0552  0.2259
  845SOL    HW1 5427   1.456   2.461   4.981  0.2995  0.4098  1.1103
  845SOL    HW2 5428   1.426   2.320   4.934 -0.4295  1.0076 -0.2871
  846SOL     OW 5429   3.358   7.949   3.453 -0.2221 -0.3428 -0.2274
  846SOL    HW1 5430   3.287   7.890   3.481  0.2671 -0.7176  0.2461
  846SOL    HW2 5431   3.438   7.897   3.466  0.2544  0.5662  0.5956
  847SOL     OW 5432   9.115   1.502   6.976  0.0946 -0.2919  0.5615
  847SOL    HW1 5433   9.046   1.553   6.934 -0.6445 -0.8157  1.1246
  847SOL    HW2 5434   9.189   1.563   6.981 -0.1835  0.1430 -0.4171
  848SOL     OW 5435   0.470   2.435   2.579 -0.6236 -0.2312  0.4345
  848SOL    HW1 5436   0.379   2.415   2.560 -0.3481 -0.6672 -0.4749
  848SOL    HW2 5437   0.498   2.366   2.639 -0.7693 -0.3415  0.3747
  849SOL     OW 5438   1.894   7.466   7.031  0.4251  0.0275 -0.0406
  849SOL    HW1 5439   1.890   7.529   7.102  0.9820  0.1988 -0.1531
  849SOL    HW2 5440   1.818   7.409   7.044  1.6148 -1.2112  1.8957
  850SOL     OW 5441   6.338   3.098   3.637  0.2963 -0.4496 -0.1785
  850SOL    HW1 5442   6.366   3.188   3.650  2.8952 -0.7828 -2.5598
  850SOL    HW2 5443   6.260   3.105   3.582 -0.7216  0.3381  1.2977
  851SOL     OW 5444   9.422   3.708   2.992 -0.0066 -0.2667 -0.2208
  851SOL    HW1 5445   9.442   3.620   2.961  0.3636 -0.7180  1.2178
  851SOL    HW2 5446   9.335   3.728   2.955  0.2910 -0.8666 -1.2673
  852SOL     OW 5447   1.404   1.168   3.417  0.9759  0.1969  0.1281
  852SOL    HW1 5448   1.316   1.144   3.385  0.6491 -0.1993  1.2627
  852SOL    HW2 5449   1.461   1.157   3.341  0.0150  0.6438 -0.6810
  853SOL     OW 5450   1.689   1.133   0.633 -0.4522  0.0941 -0.1361
  853SOL    HW1 5451   1.661   1.041   0.631  2.2815 -0.8052 -1.5140
  853SOL    HW2 5452   1.776   1.133   0.595  0.2719  3.1027  1.2008
  854SOL     OW 5453   4.137   4.625   7.304  0.2599 -0.0453  0.4927
  854SOL    HW1 5454   4.108   4.713   7.278  0.4307  0.1445  0.9219
  854SOL    HW2 5455   4.205   4.603   7.241 -0.6185 -0.3819 -0.3595
  855SOL     OW 5456   8.687   3.813   3.756  0.2083 -0.5015 -0.4205
  855SOL    HW1 5457   8.710   3.857   3.674 -0.2488 -0.5197 -0.5604
  855SOL    HW2 5458   8.729   3.866   3.824 -1.3000  0.8562 -0.4939
  856SOL     OW 5459   0.960   4.902   0.762 -0.4107 -0.2079  0.1392
  856SOL    HW1 5460   0.997   4.848   0.692  0.3467 -0.8383  1.0145
  856SOL    HW2 5461   0.873   4.927   0.729  0.1879  0.0556 -1.2977
  857SOL     OW 5462   8.179   0.176   6.108 -0.2901  0.4944 -0.0163
  857SOL    HW1 5463   8.092   0.141   6.127  0.0245 -0.1548  0.2792
  857SOL    HW2 5464   8.165   0.239   6.038 -0.8494 -0.4247 -0.7597
  858SOL     OW 5465   3.655   7.850   5.439 -0.1123 -0.0067  0.3017
  858SOL    HW1 5466   3.615   7.933   5.414  0.1223  0.4492  1.3865
  858SOL    HW2 5467   3.620   7.832   5.526 -2.7005 -2.6797 -1.1128
  859SOL     OW 5468   1.584   6.301   2.229  0.7938  0.1630  0.1965
  859SOL    HW1 5469   1.632   6.295   2.312 -0.7539 -2.0851  1.0334
  859SOL    HW2 5470   1.594   6.215   2.189 -0.3492  0.4780 -0.8444
  860SOL     OW 5471   7.773   0.705   2.010 -0.2718 -0.0403  0.1398
  860SOL    HW1 5472   7.844   0.641   2.005 -0.5271 -0.2901 -0.2616
  860SOL    HW2 5473   7.807   0.782   1.964 -1.0078 -0.8568 -1.8880
  861SOL     OW 5474   2.932   3.916   3.474 -0.2095 -0.2926 -0.3554
  861SOL    HW1 5475   3.017   3.877   3.496  0.1754  0.2246 -0.8831
  861SOL    HW2 5476   2.880   3.907   3.554  0.2699 -0.8044 -0.0905
  862SOL     OW 5477   3.181   0.639   1.902  0.2517 -0.1168 -0.3772
  862SOL    HW1 5478   3.148   0.550   1.886 -0.9404 -0.1269  1.8136
  862SOL    HW2 5479   3.115   0.679   1.958  0.4775  2.3966 -1.7933
  863SOL     OW 5480   2.946   9.159   5.877 -0.0949  0.0032 -0.4949
  863SOL    HW1 5481   2.992   9.188   5.798 -1.0226  0.9812 -0.6931
  863SOL    HW2 5482   3.015   9.142   5.940  0.6515 -0.5596 -1.4363
  864SOL     OW 5483   0.590   3.019   1.545 -0.2349  0.0558  0.0751
  864SOL    HW1 5484   0.653   3.051   1.609 -0.6049  2.6240 -0.7181
  864SOL    HW2 5485   0.509   3.066   1.565 -1.2606 -1.4438 -0.3567
  865SOL     OW 5486   7.218   8.333   6.484 -0.1100 -0.2627 -0.7599
  865SOL    HW1 5487   7.255   8.254   6.446 -0.7815 -0.8602 -0.1949
  865SOL    HW2 5488   7.130   8.308   6.512  1.3585 -0.9751  4.3121
  866SOL     OW 5489   3.563   7.401   8.203  0.4612 -0.6517 -0.1327
  866SOL    HW1 5490   3.474   7.423   8.176  0.6411 -0.4753 -0.5898
  866SOL    HW2 5491   3.552   7.336   8.273 -0.0867  1.0579  1.4415
  867SOL     OW 5492   1.908   3.635   1.528  0.6312 -0.5721 -0.1721
  867SOL    HW1 5493   1.872   3.621   1.440  0.0683 -0.1046 -0.0231
  867SOL    HW2 5494   1.978   3.571   1.536  1.7797  0.4543 -1.5813
  868SOL     OW 5495   1.326   3.049   6.816 -0.0019 -0.4572 -0.6285
  868SOL    HW1 5496   1.324   3.115   6.747  1.0344 -1.3799 -1.5899
  868SOL    HW2 5497   1.234   3.039   6.841 -0.1875  1.2714 -0.4922
  869SOL     OW 5498   6.384   5.078   2.448  0.3293  0.3696  0.5475
  869SOL    HW1 5499   6.436   5.020   2.504  0.5801  0.9527  0.9350
  869SOL    HW2 5500   6.426   5.164   2.457 -0.7835  0.8928  0.9899
  870SOL     OW 5501   5.721   2.083   3.600 -0.4834  0.2792 -0.3435
  870SOL    HW1 5502   5.746   2.129   3.520 -0.0231 -0.3552 -0.5724
  870SOL    HW2 5503   5.627   2.067   3.590 -0.2062 -0.8340 -1.3078
  871SOL     OW 5504   1.827   3.607   5.637 -0.1024 -0.1478 -0.0871
  871SOL    HW1 5505   1.894   3.545   5.607 -2.5389 -1.9039 -2.4404
  871SOL    HW2 5506   1.767   3.554   5.689 -0.1794  1.1962  1.2660
  872SOL     OW 5507   8.342   1.057   3.730  0.1808 -0.1890  0.4438
  872SOL    HW1 5508   8.398   1.131   3.706 -1.7727  2.1727  2.5453
  872SOL    HW2 5509   8.278   1.051   3.658  1.5972 -1.3556 -0.7919
  873SOL     OW 5510   8.583   2.004   7.633  0.0369  0.8761 -0.2667
  873SOL    HW1 5511   8.566   2.061   7.709  0.0962 -0.2238  0.5999
  873SOL    HW2 5512   8.534   1.924   7.652  1.8261 -0.2845 -0.2933
  874SOL     OW 5513   9.063   7.804   6.540 -0.3534  0.2467 -0.0482
  874SOL    HW1 5514   8.982   7.768   6.576 -1.5381  0.6509 -2.1528
  874SOL    HW2 5515   9.065   7.894   6.573  0.4541 -0.3991  1.8180
  875SOL     OW 5516   6.919   8.316   1.110  0.0395  0.3543 -0.1954
  875SOL    HW1 5517   6.859   8.391   1.107 -0.1998  0.1310 -2.1659
  875SOL    HW2 5518   6.868   8.243   1.077  0.1171 -0.8709  2.1814
  876SOL     OW 5519   0.726   4.438   7.972 -0.3087 -0.4191 -0.1526
  876SOL    HW1 5520   0.758   4.528   7.964  0.6180 -0.7391 -0.2153
  876SOL    HW2 5521   0.731   4.403   7.883  0.3149 -0.8459  0.0457
  877SOL     OW 5522   6.932   6.957   8.231 -0.0973  0.4256 -0.2251
  877SOL    HW1 5523   6.887   6.894   8.176 -0.5267  1.8507 -1.5700
  877SOL    HW2 5524   6.877   6.964   8.309 -0.3695 -0.3865 -0.3376
  878SOL     OW 5525   8.587   6.818   3.872 -0.4338 -0.3889  0.1089
  878SOL    HW1 5526   8.678   6.799   3.896 -0.0386 -1.1884 -1.8085
  878SOL    HW2 5527   8.588   6.821   3.776 -2.2985  0.3392  0.0740
  879SOL     OW 5528   5.924   8.605   5.489  0.1630  0.9895 -0.1112
  879SOL    HW1 5529   5.983   8.536   5.456  1.3850  1.3068  1.3010
  879SOL    HW2 5530   5.981   8.662   5.541 -0.9630  2.6777 -0.6436
  880SOL     OW 5531   8.786   3.558   7.431 -0.3018  0.0276  0.1274
  880SOL    HW1 5532   8.742   3.630   7.386 -1.0993 -0.0266  0.7990
  880SOL    HW2 5533   8.866   3.597   7.467  0.0910  0.1880 -0.8848
  881SOL     OW 5534   0.439   4.975   2.720  0.3058 -0.3423 -0.2103
  881SOL    HW1 5535   0.417   4.882   2.714  1.1029 -0.5344 -0.1582
  881SOL    HW2 5536   0.494   4.982   2.797 -1.8682  0.5918  1.3625
  882SOL     OW 5537   2.148   0.283   9.600 -0.1033  0.0258  0.5553
  882SOL    HW1 5538   2.215   0.291   9.532 -0.7696 -1.0531 -0.2598
  882SOL    HW2 5539   2.140   0.372   9.636  1.4467  0.2611  0.3909
  883SOL     OW 5540   1.682   0.344   7.604  0.5844 -0.4616  0.0184
  883SOL    HW1 5541   1.616   0.275   7.615  1.3323 -1.0686  0.9262
  883SOL    HW2 5542   1.722   0.325   7.520  0.7788 -1.1531  0.2557
  884SOL     OW 5543   0.593   3.632   4.238 -0.1594 -0.0099 -0.6989
  884SOL    HW1 5544   0.645   3.625   4.317  0.8419  0.7889 -1.2700
  884SOL    HW2 5545   0.576   3.725   4.228 -0.1941 -0.0930 -1.4780
  885SOL     OW 5546   8.372   2.495   0.790 -0.1766 -0.0795  0.4229
  885SOL    HW1 5547   8.362   2.450   0.705  1.2153  0.3205  0.0117
  885SOL    HW2 5548   8.453   2.459   0.826 -0.9473 -0.5139  1.7782
  886SOL     OW 5549   6.357   3.960   0.250  0.2952 -0.3328 -0.8128
  886SOL    HW1 5550   6.290   3.914   0.299 -0.2744  0.1585 -1.1129
  886SOL    HW2 5551   6.418   3.992   0.317  1.5434 -2.7757 -0.6990
  887SOL     OW 5552   5.283   7.274   9.411 -0.4575 -0.3129  0.1738
  887SOL    HW1 5553   5.300   7.275   9.506 -0.8797 -0.1408  0.2487
  887SOL    HW2 5554   5.252   7.185   9.393 -2.3743  0.2311  0.5652
  888SOL     OW 5555   6.575   6.658   0.587 -0.1709  0.2406  0.3309
  888SOL    HW1 5556   6.645   6.650   0.523 -0.4571  0.9653 -0.0883
  888SOL    HW2 5557   6.612   6.713   0.656  0.1154 -0.4870  0.7715
  889SOL     OW 5558   7.205   5.900   7.315 -0.3806  0.5419 -0.3513
  889SOL    HW1 5559   7.143   5.936   7.251 -1.2940 -1.0714 -0.4309
  889SOL    HW2 5560   7.270   5.854   7.262 -0.5009  0.1682 -0.1819
  890SOL     OW 5561   5.489   1.404   0.157 -0.2184 -0.2353 -0.1136
  890SOL    HW1 5562   5.573   1.374   0.194  0.0166 -0.1027 -0.5385
  890SOL    HW2 5563   5.452   1.460   0.225 -0.2806 -0.8271  0.3584
  891SOL     OW 5564   2.433   9.591   3.881  0.0995  0.5289  0.0930
  891SOL    HW1 5565   2.398   9.542   3.956  1.3564 -1.3368 -0.4572
  891SOL    HW2 5566   2.367   9.579   3.812  0.0935  0.1506  0.1609
  892SOL     OW 5567   2.766   6.484   3.943 -0.5884 -0.5094  0.0872
  892SOL    HW1 5568   2.719   6.552   3.992 -0.1148 -0.1217  0.0165
  892SOL    HW2 5569   2.858   6.507   3.953 -0.2078 -2.5181  2.1144
  893SOL     OW 5570   3.146   3.090   6.237 -0.3733  0.5683 -0.2038
  893SOL    HW1 5571   3.239   3.070   6.232  0.1450  2.1196  1.9739
  893SOL    HW2 5572   3.107   3.038   6.166  2.0739 -0.3080 -1.0243
  894SOL     OW 5573   3.934   9.059   7.419  0.0167  0.3323  0.2194
  894SOL    HW1 5574   3.987   9.139   7.414  1.0284 -0.2706  0.9424
  894SOL    HW2 5575   3.990   8.990   7.384 -1.0034 -0.0193 -0.7968
  895SOL     OW 5576   1.659   6.393   5.040  0.2307 -0.1765 -0.2155
  895SOL    HW1 5577   1.684   6.309   5.000  1.7115  0.0208  0.2521
  895SOL    HW2 5578   1.715   6.457   4.997  1.1991  0.1680  1.4657
  896SOL     OW 5579   0.310   7.803   5.280 -0.2888 -0.3057 -0.5247
  896SOL    HW1 5580   0.269   7.736   5.225 -1.2705  0.3681 -0.6397
  896SOL    HW2 5581   0.236   7.853   5.316  0.4034  0.2902  0.0935
  897SOL     OW 5582   7.991   5.646   6.443  0.1859 -0.8621 -0.0143
  897SOL    HW1 5583   7.903   5.681   6.458  0.4892 -0.2430  0.4086
  897SOL    HW2 5584   8.039   5.718   6.401  0.7965 -0.7805  0.7756
  898SOL     OW 5585   5.668   2.183   7.049 -0.2289 -0.3016  0.8118
  898SOL    HW1 5586   5.704   2.095   7.057  0.2125 -0.2319 -0.3108
  898SOL    HW2 5587   5.673   2.219   7.138 -0.2020 -1.3146  1.2288
  899SOL     OW 5588   8.088   3.133   2.962 -0.3362 -0.2271  0.2441
  899SOL    HW1 5589   8.056   3.129   3.052  2.3200 -0.7572  1.2427
  899SOL    HW2 5590   8.122   3.046   2.944  0.9728  0.4141 -0.5486
  900SOL     OW 5591   8.086   7.131   0.914  0.4531  0.2863  0.7094
  900SOL    HW1 5592   8.073   7.084   0.996  1.8780 -0.2901  0.6387
  900SOL    HW2 5593   7.999   7.162   0.889 -0.0684  0.0425  2.1746
  901SOL     OW 5594   7.045   7.460   0.575 -0.1241  0.1085 -0.0919
  901SOL    HW1 5595   7.049   7.366   0.592 -1.0742 -0.1595 -1.2710
  901SOL    HW2 5596   6.957   7.485   0.603 -0.2727  0.4236 -0.8376
  902SOL     OW 5597   0.595   5.113   6.800 -0.0443  0.0310 -0.2999
  902SOL    HW1 5598   0.568   5.110   6.708 -1.9890  0.0585  0.2262
  902SOL    HW2 5599   0.577   5.203   6.828 -1.7693 -0.5808  0.7105
  903SOL     OW 5600   6.724   8.522   2.366  0.1777  0.7040 -0.0049
  903SOL    HW1 5601   6.653   8.457   2.374 -0.8159  1.7816  0.2815
  903SOL    HW2 5602   6.685   8.603   2.400  1.6169  1.2894  0.2992
  904SOL     OW 5603   0.351   4.996   5.065  0.1201  0.2989  0.1075
  904SOL    HW1 5604   0.354   5.092   5.064  3.0736  0.2970 -0.4727
  904SOL    HW2 5605   0.317   4.974   5.151 -0.2239  1.8565  0.4069
  905SOL     OW 5606   1.453   6.547   2.250 -0.0350  0.3590  0.3095
  905SOL    HW1 5607   1.470   6.552   2.344  1.9466  0.9358 -0.0443
  905SOL    HW2 5608   1.493   6.464   2.223 -0.6302  0.1762 -0.0492
  906SOL     OW 5609   2.269   7.538   1.747  0.1246 -0.1719  0.1877
  906SOL    HW1 5610   2.184   7.557   1.707  0.2499  1.3910  0.6017
  906SOL    HW2 5611   2.325   7.515   1.673 -0.3344  0.0333 -0.2345
  907SOL     OW 5612   8.810   8.552   3.816 -0.1255 -0.7245  0.3562
  907SOL    HW1 5613   8.723   8.525   3.843  0.1918 -0.4608  1.7402
  907SOL    HW2 5614   8.868   8.520   3.885  0.5368  1.4225  0.8713
  908SOL     OW 5615   5.627   9.103   5.976 -0.4118 -0.3918  0.2472
  908SOL    HW1 5616   5.706   9.129   5.929 -0.8351  1.1197  0.3321
  908SOL    HW2 5617   5.568   9.072   5.907  0.6157 -2.6664  0.2874
  909SOL     OW 5618   4.859   1.855   0.602  0.0610 -0.1816 -0.7028
  909SOL    HW1 5619   4.930   1.829   0.661  0.4694 -0.3328 -1.2605
  909SOL    HW2 5620   4.869   1.950   0.594 -0.4529 -0.0514  0.0565
  910SOL     OW 5621   1.919   2.155   3.886 -0.0046  0.4683  0.1847
  910SOL    HW1 5622   1.952   2.245   3.877  0.8839  0.0733 -0.6666
  910SOL    HW2 5623   1.838   2.154   3.836 -0.8422  1.1848  1.4658
  911SOL     OW 5624   3.836   9.609   3.599 -0.1731  0.4784 -0.0705
  911SOL    HW1 5625   3.767   9.594   3.535 -1.5101  2.0546  0.9167
  911SOL    HW2 5626   3.790   9.614   3.683  1.5579 -1.9398  1.1424
  912SOL     OW 5627   9.535   8.563   7.328 -0.3317  0.3061 -0.1248
  912SOL    HW1 5628   9.607   8.626   7.320  0.3921 -0.6496 -1.4752
  912SOL    HW2 5629   9.456   8.617   7.329  0.3647  1.5184  3.1456
  913SOL     OW 5630   4.261   4.526   5.490  0.7018 -0.1095 -0.1612
  913SOL    HW1 5631   4.256   4.477   5.408  0.2063  1.5399 -1.1823
  913SOL    HW2 5632   4.264   4.618   5.462  1.4254  0.4616  1.6584
  914SOL     OW 5633   4.532   3.719   5.378 -0.4981 -0.1981 -0.1678
  914SOL    HW1 5634   4.534   3.778   5.303  3.0883  2.3018  1.5906
  914SOL    HW2 5635   4.484   3.767   5.446 -2.2953 -1.7346 -0.2767
  915SOL     OW 5636   8.877   8.789   9.538  0.4887  0.3079  0.1901
  915SOL    HW1 5637   8.874   8.739   9.619  0.6218 -0.9934 -0.5842
  915SOL    HW2 5638   8.948   8.749   9.487  0.4670  1.1546 -0.5325
  916SOL     OW 5639   1.374   4.167   2.063 -0.2182  0.1274 -0.0103
  916SOL    HW1 5640   1.466   4.179   2.087 -0.0340 -2.2688  0.7763
  916SOL    HW2 5641   1.326   4.221   2.125  0.6068  1.8742 -0.7901
  917SOL     OW 5642   9.333   3.622   2.479  0.2862 -0.0129 -0.0274
  917SOL    HW1 5643   9.335   3.711   2.513  0.9540  0.4407 -1.1820
  917SOL    HW2 5644   9.369   3.629   2.390 -0.1589 -1.3426 -0.3467
  918SOL     OW 5645   4.545   0.254   5.303  0.2891 -0.7326  0.7986
  918SOL    HW1 5646   4.576   0.176   5.349  1.5270 -0.6026  0.2237
  918SOL    HW2 5647   4.505   0.308   5.372 -1.1089 -2.0968  1.1110
  919SOL     OW 5648   6.723   3.563   8.394 -0.4989  0.1142 -0.1311
  919SOL    HW1 5649   6.682   3.553   8.479 -0.8169 -0.8574 -0.3869
  919SOL    HW2 5650   6.809   3.522   8.404 -1.3353 -1.9748 -0.8350
  920SOL     OW 5651   5.749   1.378   5.108  0.1051  0.5445  0.3761
  920SOL    HW1 5652   5.687   1.349   5.041  0.1663  1.9303 -0.3141
  920SOL    HW2 5653   5.767   1.299   5.159 -0.2862 -0.4585 -0.9632
  921SOL     OW 5654   0.102   8.398   7.858 -0.3536 -0.0760  0.3631
  921SOL    HW1 5655   0.018   8.371   7.896 -0.6413 -0.0206 -0.2313
  921SOL    HW2 5656   0.087   8.398   7.764 -0.1314  1.3519  0.2984
  922SOL     OW 5657   8.163   5.094   7.010 -0.3033  0.1379 -0.3780
  922SOL    HW1 5658   8.141   5.008   6.976 -0.4950 -0.5243  1.3327
  922SOL    HW2 5659   8.259   5.095   7.012 -0.3097 -0.3356  0.3132
  923SOL     OW 5660   5.893   0.509   0.040  0.6106 -0.1072  0.0209
  923SOL    HW1 5661   5.865   0.517   0.131  0.1021  0.3011 -0.1630
  923SOL    HW2 5662   5.986   0.485   0.045  1.0632  1.6193  0.6499
  924SOL     OW 5663   7.737   1.588   1.712  0.3765 -0.4277  0.0222
  924SOL    HW1 5664   7.795   1.512   1.720  0.6376 -0.1885  0.4470
  924SOL    HW2 5665   7.781   1.646   1.651 -0.3403 -1.0809 -1.1585
  925SOL     OW 5666   6.191   5.977   0.315 -0.5147  0.2075 -0.5934
  925SOL    HW1 5667   6.173   6.066   0.284 -0.3684  0.6360  0.5126
  925SOL    HW2 5668   6.269   5.951   0.267  0.9997  1.6923  0.8892
  926SOL     OW 5669   3.456   0.349   9.336 -0.1729  0.0426  0.2849
  926SOL    HW1 5670   3.545   0.319   9.354 -0.1967  0.2400  0.7567
  926SOL    HW2 5671   3.427   0.296   9.262  0.8227  0.9120 -0.7558
  927SOL     OW 5672   1.139   0.299   5.481  0.1671 -0.0521 -0.5804
  927SOL    HW1 5673   1.136   0.209   5.448 -0.2399  0.1091 -0.9906
  927SOL    HW2 5674   1.106   0.293   5.571  0.0999 -0.3070 -0.6218
  928SOL     OW 5675   0.166   4.162   4.033 -0.2886  0.1050  0.2264
  928SOL    HW1 5676   0.107   4.115   3.974  0.0714  0.3955 -0.3816
  928SOL    HW2 5677   0.162   4.253   4.003 -0.0642  0.2472  0.6184
  929SOL     OW 5678   4.209   6.949   0.793 -0.5360 -0.2036 -0.3577
  929SOL    HW1 5679   4.212   6.880   0.859  0.9455  1.1897  1.1325
  929SOL    HW2 5680   4.263   6.916   0.721  0.1228 -0.6222  0.3173
  930SOL     OW 5681   7.167   9.022   3.562  0.0432 -0.2174 -0.3951
  930SOL    HW1 5682   7.195   9.028   3.471  2.3685 -0.4562  0.2345
  930SOL    HW2 5683   7.221   9.086   3.608  0.2887 -1.4205  1.0760
  931SOL     OW 5684   4.156   4.113   2.489  0.3840  0.8745 -0.1690
  931SOL    HW1 5685   4.187   4.026   2.513  0.3330  0.6824 -0.7673
  931SOL    HW2 5686   4.091   4.136   2.555  2.3126  1.6108  1.5881
  932SOL     OW 5687   5.385   2.373   4.209 -0.1593 -0.9422 -0.0811
  932SOL    HW1 5688   5.465   2.383   4.260 -0.1176 -0.9821 -0.1383
  932SOL    HW2 5689   5.337   2.302   4.253 -0.2273 -0.8259  0.0334
  933SOL     OW 5690   2.371   2.092   2.670 -0.6353 -0.0491 -0.0997
  933SOL    HW1 5691   2.411   2.028   2.730 -0.9901  0.1716  0.3791
  933SOL    HW2 5692   2.288   2.115   2.712  0.2200  1.9730  0.5761
  934SOL     OW 5693   3.320   6.589   1.175 -0.1423  0.4166  1.0985
  934SOL    HW1 5694   3.239   6.558   1.136  0.8553  0.2392 -0.9427
  934SOL    HW2 5695   3.329   6.679   1.143  0.7822  0.2069  0.7270
  935SOL     OW 5696   7.864   1.405   1.410  0.2093 -0.0286 -0.7506
  935SOL    HW1 5697   7.806   1.479   1.394 -1.2070 -0.9853 -0.2465
  935SOL    HW2 5698   7.846   1.378   1.500 -0.2761 -1.7650 -1.3205
  936SOL     OW 5699   8.051   3.466   9.629  0.1004  0.1638  0.4816
  936SOL    HW1 5700   7.966   3.474   9.672 -0.5387  2.9063 -1.0561
  936SOL    HW2 5701   8.114   3.495   9.695 -0.5031  0.9801  0.7177
  937SOL     OW 5702   1.337   7.565   4.126  0.3587  0.2177  0.3067
  937SOL    HW1 5703   1.256   7.600   4.088  0.5167  0.0151 -0.2321
  937SOL    HW2 5704   1.311   7.484   4.169  0.3070  0.0388 -0.0549
  938SOL     OW 5705   5.515   5.583   4.955  0.5153 -0.0349  0.3023
  938SOL    HW1 5706   5.600   5.587   5.001  1.1704  0.2138 -0.8899
  938SOL    HW2 5707   5.533   5.621   4.869 -0.6848 -0.5103 -0.1710
  939SOL     OW 5708   8.955   0.178   1.121  0.0621 -0.0434 -0.0717
  939SOL    HW1 5709   8.886   0.114   1.135 -0.4633  0.1499 -1.5203
  939SOL    HW2 5710   8.987   0.159   1.032 -0.2187  1.7690 -0.6045
  940SOL     OW 5711   7.634   0.148   3.615 -0.2036 -0.0348 -0.5259
  940SOL    HW1 5712   7.673   0.232   3.588 -0.3379  0.3025  0.3024
  940SOL    HW2 5713   7.664   0.135   3.705 -1.7898  0.1177  0.0591
  941SOL     OW 5714   9.181   3.150   9.188  0.1370  0.4839  0.3809
  941SOL    HW1 5715   9.199   3.189   9.103  2.0721 -2.6581 -0.8026
  941SOL    HW2 5716   9.086   3.155   9.197  0.0620  2.9207 -0.8269
  942SOL     OW 5717   0.424   7.465   8.545 -0.1179  0.0756  0.2883
  942SOL    HW1 5718   0.464   7.380   8.528 -0.6177 -0.3290  1.1010
  942SOL    HW2 5719   0.363   7.449   8.618 -1.8336  0.6386 -0.9493
  943SOL     OW 5720   7.207   4.393   4.251 -0.4869  0.0214  0.0307
  943SOL    HW1 5721   7.151   4.316   4.265 -0.7196 -0.0005 -0.9054
  943SOL    HW2 5722   7.236   4.418   4.338 -1.1342 -0.5906  0.4359
  944SOL     OW 5723   8.543   1.858   0.210  0.4092  0.1428 -0.1962
  944SOL    HW1 5724   8.524   1.886   0.121 -2.0247 -1.1191 -0.1505
  944SOL    HW2 5725   8.508   1.769   0.216 -0.2136  0.4651  2.2081
  945SOL     OW 5726   3.439   2.307   6.300  0.3772  0.0317  0.2037
  945SOL    HW1 5727   3.383   2.384   6.314 -0.6352 -0.5489 -0.5526
  945SOL    HW2 5728   3.379   2.240   6.266  1.2818 -1.0332  0.6692
  946SOL     OW 5729   1.599   7.056   2.536 -0.2073 -0.4713 -0.2594
  946SOL    HW1 5730   1.528   7.057   2.472 -1.2817 -1.0581  0.8840
  946SOL    HW2 5731   1.612   6.963   2.557  0.4901 -0.3264 -0.0046
  947SOL     OW 5732   2.464   5.288   1.362 -0.0077 -0.2347  0.2914
  947SOL    HW1 5733   2.541   5.341   1.385 -0.5081  1.6997 -1.9947
  947SOL    HW2 5734   2.500   5.203   1.336  1.4772  0.7814 -1.2093
  948SOL     OW 5735   5.343   0.622   9.193  0.4312 -0.0795 -0.1778
  948SOL    HW1 5736   5.395   0.624   9.273  0.5634 -2.2063 -0.1708
  948SOL    HW2 5737   5.375   0.546   9.145 -0.5029  0.4335 -1.6847
  949SOL     OW 5738   6.406   1.452   9.281 -0.6364 -0.1308  0.6226
  949SOL    HW1 5739   6.491   1.468   9.321 -0.5523 -1.6542  1.1070
  949SOL    HW2 5740   6.364   1.387   9.337 -1.0104 -1.4308 -1.0805
  950SOL     OW 5741   7.341   2.766   4.895 -0.2740 -0.0343  0.0883
  950SOL    HW1 5742   7.296   2.786   4.977  0.1847 -1.2766  0.6761
  950SOL    HW2 5743   7.374   2.851   4.864 -0.6039  0.4757  1.0953
  951SOL     OW 5744   8.186   7.639   4.760  0.7338 -0.2725  0.0350
  951SOL    HW1 5745   8.131   7.584   4.815 -0.4178  1.2975  0.4987
  951SOL    HW2 5746   8.252   7.675   4.820  0.2174  0.4716  0.1728
  952SOL     OW 5747   3.901   1.024   7.537  0.1993  0.5040  0.4889
  952SOL    HW1 5748   3.992   1.051   7.543  0.1489  0.8924 -0.3121
  952SOL    HW2 5749   3.892   0.954   7.602  0.8641  0.9800  1.1049
  953SOL     OW 5750   0.800   3.908   6.862  0.4639 -0.3541 -0.0160
  953SOL    HW1 5751   0.837   3.970   6.925  2.8842  0.9585 -2.5178
  953SOL    HW2 5752   0.711   3.939   6.847  1.2318  1.8672 -0.3165
  954SOL     OW 5753   7.546   4.270   3.356  0.6477  0.0319 -0.3636
  954SOL    HW1 5754   7.624   4.272   3.299 -0.6863  0.1199 -2.2958
  954SOL    HW2 5755   7.575   4.224   3.434  3.1409  1.6947 -0.2027
  955SOL     OW 5756   6.415   8.876   9.545 -0.4673  0.6116  0.0449
  955SOL    HW1 5757   6.359   8.828   9.483  1.2396  0.6347 -1.6296
  955SOL    HW2 5758   6.500   8.881   9.500  0.5010  1.7303  1.9081
  956SOL     OW 5759   4.483   0.612   4.516 -0.6286 -0.6512  0.1281
  956SOL    HW1 5760   4.505   0.704   4.529 -1.0269 -0.2024 -1.9679
  956SOL    HW2 5761   4.543   0.564   4.574 -1.2884  0.9337  2.2246
  957SOL     OW 5762   1.198   7.694   5.793 -0.3963 -0.2775 -0.2676
  957SOL    HW1 5763   1.271   7.749   5.820 -0.7907  0.2151 -0.1894
  957SOL    HW2 5764   1.228   7.653   5.711 -0.6345  1.1755 -1.1089
  958SOL     OW 5765   5.019   2.552   2.069  0.3135  0.3801  0.0833
  958SOL    HW1 5766   4.937   2.568   2.023  0.4896 -0.8944 -0.7334
  958SOL    HW2 5767   5.031   2.629   2.125 -1.1810  0.8040 -0.1360
  959SOL     OW 5768   1.835   4.386   7.193  0.0497  0.0912 -0.6155
  959SOL    HW1 5769   1.822   4.480   7.180  1.8734  0.4193 -0.3309
  959SOL    HW2 5770   1.845   4.351   7.105  0.4975  0.3537 -0.6711
  960SOL     OW 5771   8.784   1.395   3.488 -0.1018  0.0619 -0.5705
  960SOL    HW1 5772   8.869   1.399   3.444 -0.7125 -2.3167 -2.1669
  960SOL    HW2 5773   8.720   1.401   3.417 -1.1211 -3.6940 -0.1849
  961SOL     OW 5774   0.096   3.291   1.809 -0.1758  0.2586 -0.1167
  961SOL    HW1 5775   0.041   3.276   1.732 -0.2483  0.8102 -0.1763
  961SOL    HW2 5776   0.179   3.320   1.774 -0.1481  0.3313  0.0101
  962SOL     OW 5777   5.517   3.441   3.305 -0.1978 -0.7300 -0.6881
  962SOL    HW1 5778   5.474   3.401   3.381  1.1929 -0.0848  0.4889
  962SOL    HW2 5779   5.445   3.469   3.249 -1.2420 -2.3289 -0.2052
  963SOL     OW 5780   2.740   1.998   2.276 -0.0230  0.0889 -0.1694
  963SOL    HW1 5781   2.651   1.996   2.240 -0.2314  1.1355  0.2497
  963SOL    HW2 5782   2.741   2.074   2.334  1.1404  0.0780 -0.1435
  964SOL     OW 5783   0.636   3.472   6.774  0.4566  0.2697  0.2091
  964SOL    HW1 5784   0.648   3.521   6.693 -0.8905 -1.6419 -1.2553
  964SOL    HW2 5785   0.688   3.519   6.839  1.8155  1.7250 -1.8069
  965SOL     OW 5786   4.592   3.259   7.783 -0.9441  0.5169 -0.0031
  965SOL    HW1 5787   4.595   3.163   7.776 -2.1865  0.4243  0.4830
  965SOL    HW2 5788   4.551   3.288   7.702 -1.5792  0.5500  0.3258
  966SOL     OW 5789   4.277   3.162   2.726 -0.0808 -0.6670  0.3975
  966SOL    HW1 5790   4.341   3.195   2.663  0.9023  1.2931  2.2803
  966SOL    HW2 5791   4.231   3.241   2.756 -1.5733 -1.7299  1.0240
  967SOL     OW 5792   5.052   8.043   9.104 -0.2917 -0.4801  0.3599
  967SOL    HW1 5793   5.022   8.041   9.013 -0.4527  0.3591  0.3845
  967SOL    HW2 5794   5.037   8.133   9.131 -3.2565 -1.3899  2.2298
  968SOL     OW 5795   5.268   9.377   5.928  0.1103  0.0926 -0.2743
  968SOL    HW1 5796   5.244   9.469   5.932  0.9533  0.3300 -0.4205
  968SOL    HW2 5797   5.357   9.374   5.965 -0.4927 -0.8905  1.2267
  969SOL     OW 5798   8.226   2.986   2.705 -0.0630 -0.1624 -0.7665
  969SOL    HW1 5799   8.156   2.921   2.697  1.6419 -1.9731 -2.2331
  969SOL    HW2 5800   8.257   2.977   2.796 -0.5714 -0.6271 -0.6333
  970SOL     OW 5801   8.970   3.704   3.930 -0.4214  0.0452 -0.7495
  970SOL    HW1 5802   8.961   3.708   3.835 -0.0994  0.8782 -0.7560
  970SOL    HW2 5803   9.030   3.776   3.951  0.4930 -0.8911 -0.0409
  971SOL     OW 5804   7.488   3.717   6.170  0.5100  1.0478  0.0949
  971SOL    HW1 5805   7.420   3.664   6.130 -1.6057  2.3199  1.7897
  971SOL    HW2 5806   7.532   3.658   6.232  1.1701  0.1576 -1.1783
  972SOL     OW 5807   7.382   1.731   2.608  0.9072  0.1467 -0.4275
  972SOL    HW1 5808   7.455   1.778   2.568  0.9957  0.6176  0.2661
  972SOL    HW2 5809   7.390   1.749   2.702  0.1386 -0.1314 -0.2978
  973SOL     OW 5810   4.612   9.254   9.526  0.1672 -0.1908  0.4083
  973SOL    HW1 5811   4.644   9.169   9.498  0.0217 -0.0061 -0.3356
  973SOL    HW2 5812   4.681   9.316   9.500  0.6511 -0.1559  1.6641
  974SOL     OW 5813   2.237   1.521   8.858 -0.7052 -0.1177 -0.2012
  974SOL    HW1 5814   2.182   1.563   8.792 -1.0350  1.3499  0.9749
  974SOL    HW2 5815   2.253   1.588   8.923 -0.5574 -1.5907  1.3453
  975SOL     OW 5816   8.545   3.373   2.503  0.2074 -0.0060 -0.0595
  975SOL    HW1 5817   8.528   3.429   2.579 -0.0892  3.0733 -2.1985
  975SOL    HW2 5818   8.458   3.355   2.467  0.3481 -1.3820  0.2402
  976SOL     OW 5819   3.366   7.597   3.560  0.6332 -0.1425 -0.3006
  976SOL    HW1 5820   3.271   7.602   3.575  0.7206  0.7426 -0.0172
  976SOL    HW2 5821   3.375   7.530   3.492 -0.0430 -1.5450  0.9229
  977SOL     OW 5822   4.969   2.903   0.271 -0.1124  0.6113 -0.1280
  977SOL    HW1 5823   4.951   2.815   0.304  1.6829  0.7563  1.3855
  977SOL    HW2 5824   5.037   2.890   0.205 -1.6071  0.6494 -1.7447
  978SOL     OW 5825   9.074   4.317   8.580  0.2075 -0.0210  0.3536
  978SOL    HW1 5826   9.164   4.333   8.552 -0.2909 -0.4948 -1.6885
  978SOL    HW2 5827   9.056   4.386   8.644  1.1782  1.7230 -1.1609
  979SOL     OW 5828   0.233   6.908   7.190  0.0026 -0.1512  0.2373
  979SOL    HW1 5829   0.172   6.951   7.251 -1.0255 -0.5042 -0.5034
  979SOL    HW2 5830   0.182   6.835   7.154  1.2312 -1.1096  0.3823
  980SOL     OW 5831   8.087   6.724   1.466 -0.1196  0.3502  0.2448
  980SOL    HW1 5832   8.180   6.719   1.487 -0.0945 -3.6792 -0.1258
  980SOL    HW2 5833   8.045   6.751   1.548  1.2544  1.1361  0.7098
  981SOL     OW 5834   8.163   2.923   6.809 -0.3375  0.3817  0.2725
  981SOL    HW1 5835   8.217   2.999   6.787  0.2808 -0.0747  0.1843
  981SOL    HW2 5836   8.195   2.895   6.895 -0.4404  0.1160  0.2254
  982SOL     OW 5837   6.802   5.437   9.150 -0.3689  0.0781 -0.5961
  982SOL    HW1 5838   6.717   5.479   9.164 -0.1090 -0.2246  2.6130
  982SOL    HW2 5839   6.781   5.345   9.136 -0.5912  0.0354 -0.0082
  983SOL     OW 5840   2.507   6.560   5.910 -0.2238 -0.2302  0.3652
  983SOL    HW1 5841   2.492   6.492   5.845  0.8765 -2.3469  2.1733
  983SOL    HW2 5842   2.423   6.566   5.957 -0.0554 -1.0868  0.8041
  984SOL     OW 5843   4.813   1.171   5.252  0.3145 -0.1630 -0.4139
  984SOL    HW1 5844   4.827   1.247   5.309 -1.4774  0.9756 -1.4238
  984SOL    HW2 5845   4.831   1.096   5.309 -0.3324  0.9455  1.3455
  985SOL     OW 5846   6.424   4.380   0.824 -0.2535  0.1529 -0.0305
  985SOL    HW1 5847   6.357   4.316   0.848 -0.8034  1.3195  1.7815
  985SOL    HW2 5848   6.469   4.341   0.749 -0.5692 -2.3399  0.9785
  986SOL     OW 5849   3.484   7.217   2.765 -0.0880  0.4188 -0.2755
  986SOL    HW1 5850   3.407   7.197   2.712 -0.0429  0.1832 -0.2553
  986SOL    HW2 5851   3.555   7.225   2.701  0.0177 -0.1269 -0.2343
  987SOL     OW 5852   2.933   0.206   7.475 -0.4280  0.2638  0.1315
  987SOL    HW1 5853   2.842   0.188   7.495 -0.4758 -0.7507 -0.8853
  987SOL    HW2 5854   2.974   0.224   7.560 -1.3195 -0.4281  0.7175
  988SOL     OW 5855   3.784   3.064   2.465  0.5491  0.1200  0.0018
  988SOL    HW1 5856   3.721   2.998   2.435  1.1044 -0.6910  0.5783
  988SOL    HW2 5857   3.769   3.139   2.407 -0.2576 -0.4192 -0.5179
  989SOL     OW 5858   1.060   7.004   3.763  0.4268  0.1878  0.2047
  989SOL    HW1 5859   1.070   6.929   3.704 -1.4263 -0.1848  0.2954
  989SOL    HW2 5860   1.043   7.078   3.706 -1.3701 -0.1733  0.2262
  990SOL     OW 5861   3.697   1.958   6.627 -0.0896 -0.4002 -0.5355
  990SOL    HW1 5862   3.696   1.961   6.531 -1.5586 -2.5105 -0.6596
  990SOL    HW2 5863   3.772   1.904   6.649 -0.1968 -0.5485 -0.5336
  991SOL     OW 5864   1.641   7.173   4.514 -0.7924 -0.1738 -0.3098
  991SOL    HW1 5865   1.709   7.238   4.529 -0.5737 -0.4936  0.1039
  991SOL    HW2 5866   1.586   7.177   4.592 -1.4252  0.2926 -0.7741
  992SOL     OW 5867   6.768   6.065   8.278 -0.2814  0.1621  0.3685
  992SOL    HW1 5868   6.748   6.033   8.190  0.1479  0.6488  0.0903
  992SOL    HW2 5869   6.830   6.002   8.313 -0.0319  0.2660  0.1137
  993SOL     OW 5870   1.133   3.679   5.549 -0.0557  0.1711 -0.1146
  993SOL    HW1 5871   1.215   3.630   5.545  0.5094  0.8830  1.6589
  993SOL    HW2 5872   1.070   3.625   5.500  1.1827 -0.9430 -0.5393
  994SOL     OW 5873   1.358   3.900   7.907 -0.8397 -0.1773  0.2010
  994SOL    HW1 5874   1.419   3.831   7.881 -0.6445 -0.4459  1.3112
  994SOL    HW2 5875   1.412   3.978   7.916 -0.8424 -0.1699  0.1501
  995SOL     OW 5876   5.732   5.516   5.094  0.1813 -1.2235 -0.9312
  995SOL    HW1 5877   5.739   5.432   5.138 -0.3978 -0.3544  0.9152
  995SOL    HW2 5878   5.819   5.532   5.058  0.8910 -1.6544  0.5311
  996SOL     OW 5879   8.048   0.192   6.646  0.4808 -0.3049 -0.3174
  996SOL    HW1 5880   8.039   0.242   6.728  0.7697 -0.4029 -0.2247
  996SOL    HW2 5881   7.986   0.121   6.654  1.1571 -0.8492  0.2214
  997SOL     OW 5882   7.129   4.095   2.463  0.1948  1.0483 -0.4361
  997SOL    HW1 5883   7.138   4.187   2.489 -2.6869  0.8678  1.6099
  997SOL    HW2 5884   7.038   4.087   2.434  0.7442 -0.9170 -1.8218
  998SOL     OW 5885   9.341   4.741   6.906  0.2406 -0.0957 -0.3132
  998SOL    HW1 5886   9.287   4.697   6.841 -1.2116  0.1761  0.6833
  998SOL    HW2 5887   9.294   4.732   6.988  0.2902  2.5466  0.1067
  999SOL     OW 5888   3.238   2.130   8.693  0.2783 -0.0570  0.0299
  999SOL    HW1 5889   3.315   2.114   8.639 -0.2079  0.8768 -0.9915
  999SOL    HW2 5890   3.231   2.226   8.697  2.1694  0.1434  4.5029
 1000SOL     OW 5891   0.743   8.681   0.379 -0.2464 -0.3035 -0.3334
 1000SOL    HW1 5892   0.663   8.644   0.418 -0.4880  0.6127  0.0660
 1000SOL    HW2 5893   0.778   8.739   0.446 -0.7078  1.3714 -1.4635
 1001SOL     OW 5894   8.623   2.689   1.178  0.2021 -0.4035 -0.0115
 1001SOL    HW1 5895   8.580   2.604   1.163 -1.4479  0.3380  0.2895
 1001SOL    HW2 5896   8.678   2.702   1.101  1.1771 -2.1424  0.3460
 1002SOL     OW 5897   3.348   7.774   4.671 -0.4009 -0.1310 -0.0172
 1002SOL    HW1 5898   3.312   7.721   4.743  1.1591 -1.3071 -0.0490
 1002SOL    HW2 5899   3.305   7.738   4.593  0.1585 -0.9349  0.0311
 1003SOL     OW 5900   6.136   9.545   2.091  0.6066  0.0890 -0.3434
 1003SOL    HW1 5901   6.190   9.466   2.100 -0.2100 -0.3178  1.4263
 1003SOL    HW2 5902   6.194   9.616   2.119  0.5102 -0.2347  0.7119
 1004SOL     OW 5903   8.820   2.502   8.666  0.2193  0.2969  0.1520
 1004SOL    HW1 5904   8.880   2.513   8.740 -0.6303  0.3284  0.8616
 1004SOL    HW2 5905   8.739   2.470   8.706  0.0716 -0.6945 -0.9007
 1005SOL     OW 5906   3.155   7.575   5.800 -0.0270 -0.3898  0.0036
 1005SOL    HW1 5907   3.164   7.480   5.809  1.4770 -0.4344 -1.4525
 1005SOL    HW2 5908   3.180   7.610   5.885 -0.2971 -1.2814  0.4576
 1006SOL     OW 5909   3.077   7.440   3.071 -0.8235 -0.6322  0.1845
 1006SOL    HW1 5910   3.017   7.496   3.121 -0.3764 -0.8592  0.9935
 1006SOL    HW2 5911   3.027   7.415   2.994 -0.7584  1.5710 -0.6575
 1007SOL     OW 5912   5.992   0.458   6.782 -0.0209 -0.3237 -0.2334
 1007SOL    HW1 5913   5.941   0.476   6.861  0.4929  1.7367 -0.3124
 1007SOL    HW2 5914   6.078   0.432   6.814  0.3310  0.9650 -0.0754
 1008SOL     OW 5915   2.032   3.745   5.739 -0.0744  0.0681  0.2805
 1008SOL    HW1 5916   2.059   3.813   5.678 -0.3558  0.8545  1.0099
 1008SOL    HW2 5917   1.946   3.717   5.707 -0.4905  0.9033  0.6535
 1009SOL     OW 5918   2.385   3.535   2.399  0.7525 -0.8886  0.2442
 1009SOL    HW1 5919   2.380   3.501   2.310  3.1883  1.2744 -0.8648
 1009SOL    HW2 5920   2.295   3.532   2.431 -0.9177  1.2268 -3.5484
 1010SOL     OW 5921   7.932   2.167   5.457 -0.2732  0.6130 -0.7095
 1010SOL    HW1 5922   8.011   2.164   5.511 -1.2880  0.1774  0.8285
 1010SOL    HW2 5923   7.963   2.155   5.367  1.3749  0.1785 -0.1137
 1011SOL     OW 5924   0.217   7.525   7.771  0.0427 -0.2278  0.1494
 1011SOL    HW1 5925   0.201   7.599   7.713  0.5291  1.2211  1.7871
 1011SOL    HW2 5926   0.130   7.500   7.803  0.0280  1.0561  1.2148
 1012SOL     OW 5927   6.972   7.819   3.735 -0.2154 -0.0153  0.0453
 1012SOL    HW1 5928   6.921   7.754   3.784 -0.4177  1.2318  1.6088
 1012SOL    HW2 5929   6.906   7.879   3.699  0.0395  1.5490  1.9948
 1013SOL     OW 5930   0.227   3.134   2.357  0.0524 -0.4472  0.3723
 1013SOL    HW1 5931   0.286   3.201   2.322  1.4264 -1.8840 -0.2445
 1013SOL    HW2 5932   0.266   3.051   2.327 -1.7535 -1.5038  0.8148
 1014SOL     OW 5933   6.565   5.040   3.617  0.1984 -0.1472 -0.1479
 1014SOL    HW1 5934   6.571   5.116   3.676 -0.4623 -0.1845 -0.0326
 1014SOL    HW2 5935   6.472   5.033   3.596  0.1462 -1.3502  0.3969
 1015SOL     OW 5936   5.399   0.192   2.109  0.5232  0.2962  0.3115
 1015SOL    HW1 5937   5.487   0.220   2.085 -0.7139  4.0162 -0.5933
 1015SOL    HW2 5938   5.378   0.122   2.048  2.3128  0.3995 -0.4722
 1016SOL     OW 5939   8.369   1.908   1.887  0.0084 -0.3739  0.3570
 1016SOL    HW1 5940   8.370   1.953   1.971 -1.8261  0.0422  0.1878
 1016SOL    HW2 5941   8.434   1.838   1.897  1.1676  0.8017  1.4416
 1017SOL     OW 5942   2.615   8.466   1.927 -0.3843 -0.2480  0.2472
 1017SOL    HW1 5943   2.583   8.375   1.934  0.2129 -0.4556  0.3152
 1017SOL    HW2 5944   2.710   8.458   1.935 -0.3180  0.3697  0.0626
 1018SOL     OW 5945   0.921   7.498   4.538 -0.6354  0.1690 -0.8079
 1018SOL    HW1 5946   0.874   7.537   4.612  1.3743  0.6984  0.2686
 1018SOL    HW2 5947   0.953   7.573   4.487  0.8194 -0.0829 -0.3163
 1019SOL     OW 5948   2.972   7.423   4.382  0.2745  0.5946 -0.3328
 1019SOL    HW1 5949   2.950   7.368   4.458 -0.7744  2.7458  1.0297
 1019SOL    HW2 5950   3.041   7.375   4.337  0.0894 -1.3548  1.2995
 1020SOL     OW 5951   3.191   9.499   9.615  0.3313  0.7589 -0.4898
 1020SOL    HW1 5952   3.100   9.471   9.616  0.5687 -0.0469 -0.8862
 1020SOL    HW2 5953   3.188   9.592   9.640 -0.5234  0.5509  0.2162
 1021SOL     OW 5954   7.650   4.809   0.433  0.1690  0.3948  0.0031
 1021SOL    HW1 5955   7.653   4.897   0.470  0.5297  1.3431 -2.1070
 1021SOL    HW2 5956   7.579   4.812   0.369  0.9343 -0.4758 -0.9326
 1022SOL     OW 5957   5.280   9.304   7.138 -0.2360 -0.5421  0.4150
 1022SOL    HW1 5958   5.291   9.365   7.211  0.9411  0.8830 -0.8813
 1022SOL    HW2 5959   5.277   9.360   7.060 -0.1695 -2.0894 -0.7511
 1023SOL     OW 5960   7.814   5.942   2.017 -0.3630 -0.0806 -0.2924
 1023SOL    HW1 5961   7.824   5.915   1.926 -3.0725 -1.1032 -0.3956
 1023SOL    HW2 5962   7.758   6.020   2.013 -2.0147 -1.1632  0.5091
 1024SOL     OW 5963   0.476   2.818   1.392 -0.7708  0.0822  0.5789
 1024SOL    HW1 5964   0.531   2.846   1.465  1.3125  2.3283 -1.6720
 1024SOL    HW2 5965   0.530   2.757   1.342 -0.8068  1.1816 -0.8780
 1025SOL     OW 5966   5.856   4.261   2.092  0.0335 -0.2881  0.2099
 1025SOL    HW1 5967   5.915   4.305   2.031  0.9379 -2.2349 -0.3975
 1025SOL    HW2 5968   5.896   4.175   2.106 -2.8531 -1.8986 -0.6074
 1026SOL     OW 5969   5.095   6.687   5.820 -0.5255 -0.7069 -0.2956
 1026SOL    HW1 5970   5.179   6.687   5.865  0.1491 -0.4639 -1.5107
 1026SOL    HW2 5971   5.101   6.615   5.758 -1.7492 -1.5451  0.5230
 1027SOL     OW 5972   4.275   2.955   3.381  0.3746 -0.4597 -0.4493
 1027SOL    HW1 5973   4.308   2.892   3.446 -1.2377 -1.2496 -0.3366
 1027SOL    HW2 5974   4.180   2.949   3.388  0.0418  3.5609  1.0592
 1028SOL     OW 5975   2.156   5.025   4.978  0.0383  0.4044 -0.2939
 1028SOL    HW1 5976   2.174   5.004   4.886  1.3145  0.0511  0.0156
 1028SOL    HW2 5977   2.194   5.112   4.990 -0.0845  0.4300 -0.0971
 1029SOL     OW 5978   1.634   3.944   8.211  0.0481  0.5517 -0.2015
 1029SOL    HW1 5979   1.546   3.944   8.250 -0.5852  0.2138 -1.5511
 1029SOL    HW2 5980   1.685   3.887   8.269 -0.6751  0.5834  0.4955
 1030SOL     OW 5981   3.733   4.562   0.945 -0.5473  0.1824  0.1541
 1030SOL    HW1 5982   3.821   4.527   0.937 -0.5001  0.1338  0.8056
 1030SOL    HW2 5983   3.740   4.653   0.916 -0.8363 -0.5214 -2.3231
 1031SOL     OW 5984   3.748   5.515   4.651 -0.8096 -0.8507 -0.2208
 1031SOL    HW1 5985   3.758   5.440   4.709  0.2938 -0.2656  0.3856
 1031SOL    HW2 5986   3.677   5.566   4.689 -1.0480 -1.2007 -0.1971
 1032SOL     OW 5987   5.336   1.467   6.305  0.2464  0.3658  0.1265
 1032SOL    HW1 5988   5.405   1.423   6.354  0.0826 -0.6990 -0.5567
 1032SOL    HW2 5989   5.382   1.530   6.249  0.5658  0.4538  0.4886
 1033SOL     OW 5990   7.317   4.801   0.681 -0.1327 -0.4077  0.1940
 1033SOL    HW1 5991   7.232   4.774   0.714 -0.2160  0.0531  0.3710
 1033SOL    HW2 5992   7.337   4.739   0.611 -0.0841 -1.2075  0.9137
 1034SOL     OW 5993   3.302   6.035   5.893  0.6637 -0.2434 -0.3423
 1034SOL    HW1 5994   3.394   6.010   5.901  0.6896 -0.1412 -0.3187
 1034SOL    HW2 5995   3.258   5.955   5.864  0.4288 -0.8795  1.6577
 1035SOL     OW 5996   7.306   0.268   2.159 -0.5026  0.3473  0.4699
 1035SOL    HW1 5997   7.346   0.294   2.076  0.5354  1.4097  1.2581
 1035SOL    HW2 5998   7.213   0.261   2.140 -0.3453  1.0537 -0.6735
 1036SOL     OW 5999   1.924   8.243   8.721  0.4076 -0.2583  1.2399
 1036SOL    HW1 6000   1.872   8.285   8.789  1.6605  0.1768  1.9641
 1036SOL    HW2 6001   2.011   8.233   8.760  1.9530  2.3725 -1.1345
 1037SOL     OW 6002   9.092   8.666   0.246 -0.6936 -0.1806 -0.3217
 1037SOL    HW1 6003   9.153   8.735   0.223 -0.2561 -0.4646 -0.0441
 1037SOL    HW2 6004   9.108   8.650   0.339 -1.6002  0.1406 -0.0997
 1038SOL     OW 6005   0.668   5.369   2.634 -0.1774 -0.2791 -0.0680
 1038SOL    HW1 6006   0.629   5.336   2.553 -2.9231  2.5543 -0.0899
 1038SOL    HW2 6007   0.724   5.441   2.606 -1.9176  1.3740  0.5125
 1039SOL     OW 6008   9.143   8.582   4.560 -0.0395  0.4664 -0.3107
 1039SOL    HW1 6009   9.049   8.584   4.541 -0.1935  1.3207  0.4428
 1039SOL    HW2 6010   9.150   8.523   4.636  0.2181 -0.6771 -1.1951
 1040SOL     OW 6011   0.357   5.601   2.388 -0.1757  0.0015  0.3708
 1040SOL    HW1 6012   0.430   5.662   2.377  0.4245 -0.6267  0.7600
 1040SOL    HW2 6013   0.279   5.656   2.386  0.3629  0.8168  1.0014
 1041SOL     OW 6014   4.491   8.216   0.414  0.2195  0.1327  0.0775
 1041SOL    HW1 6015   4.572   8.241   0.370  0.3849  0.5518  0.6058
 1041SOL    HW2 6016   4.455   8.146   0.360  1.8155 -1.2963  0.7652
 1042SOL     OW 6017   0.134   2.783   0.452  0.0105  0.2235  0.5665
 1042SOL    HW1 6018   0.205   2.805   0.512  1.2569 -1.1472 -0.3306
 1042SOL    HW2 6019   0.112   2.692   0.474  1.1586 -0.6690 -1.5860
 1043SOL     OW 6020   9.614   1.138   7.047 -0.4853 -0.1487  0.8071
 1043SOL    HW1 6021   9.675   1.178   7.109  0.5178 -0.2626 -0.0935
 1043SOL    HW2 6022   9.529   1.175   7.072 -0.0615  0.0766  2.0232
 1044SOL     OW 6023   8.529   1.836   8.423  0.1221  0.0472 -0.3357
 1044SOL    HW1 6024   8.561   1.772   8.486 -0.8683  0.7903  0.9558
 1044SOL    HW2 6025   8.607   1.860   8.372  0.3787 -2.7696 -1.4725
 1045SOL     OW 6026   1.488   4.934   1.490 -0.6370  0.2331 -0.4959
 1045SOL    HW1 6027   1.398   4.958   1.470 -1.3367 -1.3237  0.5478
 1045SOL    HW2 6028   1.480   4.852   1.540  1.3835 -0.3927 -1.0977
 1046SOL     OW 6029   8.978   6.626   5.539  0.1975 -0.3482  0.5966
 1046SOL    HW1 6030   9.038   6.701   5.542  0.1859 -0.2595 -0.9200
 1046SOL    HW2 6031   8.992   6.587   5.453 -1.1466 -0.9726  0.6332
 1047SOL     OW 6032   4.785   1.297   3.941 -0.2614  0.0249 -0.4786
 1047SOL    HW1 6033   4.876   1.273   3.959  0.2369  1.2845 -1.1488
 1047SOL    HW2 6034   4.761   1.246   3.864 -0.1142 -0.2854 -0.3196
 1048SOL     OW 6035   3.321   3.694   8.145 -0.2929 -0.4169 -0.3339
 1048SOL    HW1 6036   3.333   3.717   8.238 -0.3577 -0.5417 -0.2957
 1048SOL    HW2 6037   3.374   3.759   8.098 -0.7788  0.0603 -0.2454
 1049SOL     OW 6038   5.658   2.841   0.436  0.3446  0.1543 -0.0405
 1049SOL    HW1 6039   5.664   2.860   0.343  1.3450  2.7491  0.4681
 1049SOL    HW2 6040   5.602   2.910   0.472  0.8494 -0.1542  1.4182
 1050SOL     OW 6041   0.728   9.503   7.524 -0.2591  0.2116 -0.4508
 1050SOL    HW1 6042   0.816   9.480   7.494 -0.7599 -1.5608 -0.6982
 1050SOL    HW2 6043   0.709   9.440   7.594 -0.3438  2.2483  1.4907
 1051SOL     OW 6044   3.584   2.257   6.870 -0.3316 -0.0009 -0.6387
 1051SOL    HW1 6045   3.558   2.349   6.873 -2.3058 -0.5452  0.2903
 1051SOL    HW2 6046   3.604   2.234   6.960  3.1062  0.2154 -1.2079
 1052SOL     OW 6047   0.080   3.583   4.937  0.3351  0.5276 -0.1675
 1052SOL    HW1 6048   0.138   3.532   4.881 -1.4063 -2.6663  0.6876
 1052SOL    HW2 6049  -0.005   3.579   4.895 -0.4957  0.0688  1.4540
 1053SOL     OW 6050   9.154   7.374   0.105  0.6638  0.0534 -0.8676
 1053SOL    HW1 6051   9.185   7.284   0.106  1.1116  0.1839  1.2405
 1053SOL    HW2 6052   9.085   7.376   0.172  1.6352  1.5670  0.1473
 1054SOL     OW 6053   1.410   7.833   3.331  0.2208 -0.2880  0.4616
 1054SOL    HW1 6054   1.458   7.884   3.397  2.1209 -0.6968 -0.5487
 1054SOL    HW2 6055   1.438   7.743   3.345 -0.5998 -0.6110  0.1069
 1055SOL     OW 6056   8.510   1.168   7.282 -0.0306 -0.1174  0.5591
 1055SOL    HW1 6057   8.420   1.201   7.279  0.7199  2.0003 -0.6224
 1055SOL    HW2 6058   8.542   1.195   7.368  0.6916  2.8906 -0.5127
 1056SOL     OW 6059   0.803   6.932   8.180  0.5255  0.2992 -0.0969
 1056SOL    HW1 6060   0.785   6.838   8.188  0.8006  0.2051 -0.5502
 1056SOL    HW2 6061   0.824   6.960   8.269  1.5329 -0.3019 -0.1241
 1057SOL     OW 6062   0.745   8.319   7.559  0.3700 -0.1997  0.1455
 1057SOL    HW1 6063   0.748   8.270   7.477 -0.8714  0.1062 -0.0951
 1057SOL    HW2 6064   0.803   8.394   7.544  0.4169 -0.3262 -0.3302
 1058SOL     OW 6065   3.298   7.007   5.282 -0.1918 -0.1598 -0.4044
 1058SOL    HW1 6066   3.249   6.940   5.331  2.2877 -1.6546  0.1855
 1058SOL    HW2 6067   3.273   6.992   5.191 -3.1748  1.2139  0.0796
 1059SOL     OW 6068   0.216   0.499   4.435 -0.2900  0.5808 -1.1650
 1059SOL    HW1 6069   0.273   0.455   4.372 -2.0796 -1.0176 -1.7607
 1059SOL    HW2 6070   0.255   0.480   4.521  1.3829  1.6056 -1.6409
 1060SOL     OW 6071   1.810   3.357   7.375  0.7065 -0.0056 -0.1934
 1060SOL    HW1 6072   1.822   3.380   7.467  1.4718  1.4101 -0.6105
 1060SOL    HW2 6073   1.859   3.424   7.327 -0.6686  0.0015 -1.6722
 1061SOL     OW 6074   8.879   2.818   8.735  0.3453  0.1682  0.1715
 1061SOL    HW1 6075   8.867   2.780   8.822  0.4778  0.4796  0.3248
 1061SOL    HW2 6076   8.852   2.748   8.675 -1.2877  0.4899  0.4829
 1062SOL     OW 6077   6.572   2.584   1.189  0.2153  0.1840  0.3054
 1062SOL    HW1 6078   6.502   2.612   1.130  1.3703  0.2988 -1.0701
 1062SOL    HW2 6079   6.604   2.502   1.151  0.6281 -0.0205  1.0855
 1063SOL     OW 6080   8.166   3.949   8.181  0.0766 -0.2344  0.1088
 1063SOL    HW1 6081   8.212   3.945   8.097  1.4324 -0.6055  0.8333
 1063SOL    HW2 6082   8.092   4.007   8.165 -1.1896 -2.2194 -2.0179
 1064SOL     OW 6083   2.914   4.311   4.867  0.1751 -0.3125 -0.1567
 1064SOL    HW1 6084   2.915   4.242   4.800 -0.4069 -0.8082  0.3360
 1064SOL    HW2 6085   2.969   4.277   4.937  2.9780  1.3137 -1.4201
 1065SOL     OW 6086   6.307   8.364   5.526  0.0806 -0.0948  0.6060
 1065SOL    HW1 6087   6.230   8.368   5.469 -0.8400 -1.5294  1.6719
 1065SOL    HW2 6088   6.324   8.270   5.536  2.3385  0.1731 -0.0314
 1066SOL     OW 6089   9.389   1.147   6.773 -0.0313 -0.0090 -0.7946
 1066SOL    HW1 6090   9.329   1.090   6.725  0.6334 -2.2304  0.8146
 1066SOL    HW2 6091   9.454   1.087   6.811 -0.1577  1.5710  2.2916
 1067SOL     OW 6092   8.187   6.924   2.357  0.1122 -0.2807 -0.0516
 1067SOL    HW1 6093   8.265   6.938   2.302  0.0592  1.5422  0.2857
 1067SOL    HW2 6094   8.147   6.845   2.321  0.9872 -0.0765 -1.5840
 1068SOL     OW 6095   7.189   8.140   4.886 -0.1141 -0.4238 -0.3237
 1068SOL    HW1 6096   7.138   8.141   4.805  0.4698  3.1310 -0.7905
 1068SOL    HW2 6097   7.280   8.134   4.857  0.2418  2.8352 -0.2043
 1069SOL     OW 6098   0.595   3.180   7.191 -0.1070 -0.3603 -0.7141
 1069SOL    HW1 6099   0.628   3.268   7.174  0.0916 -0.3238 -0.1744
 1069SOL    HW2 6100   0.563   3.184   7.282  0.2435 -0.9448 -0.5594
 1070SOL     OW 6101   9.148   1.509   3.547 -0.4196 -0.1662  0.4951
 1070SOL    HW1 6102   9.111   1.445   3.607  0.7438 -1.0413  0.3014
 1070SOL    HW2 6103   9.177   1.458   3.471 -0.1785  0.6840 -0.0063
 1071SOL     OW 6104   6.410   2.622   7.505  0.1200  0.0658  0.5375
 1071SOL    HW1 6105   6.393   2.711   7.474 -0.9882  0.0082  0.9439
 1071SOL    HW2 6106   6.455   2.580   7.431  0.3010  0.8349  0.1919
 1072SOL     OW 6107   1.472   0.009   2.869 -0.0965 -0.5981  0.4001
 1072SOL    HW1 6108   1.499   0.023   2.960 -0.0879 -0.7279  0.4167
 1072SOL    HW2 6109   1.453  -0.084   2.863 -1.2854 -0.3770  0.5805
 1073SOL     OW 6110   0.629   8.410   3.109  0.2059  0.0096  0.3045
 1073SOL    HW1 6111   0.555   8.441   3.057  1.8085 -0.7538 -2.7479
 1073SOL    HW2 6112   0.611   8.317   3.124  0.1027  0.0376  0.3467
 1074SOL     OW 6113   5.375   7.151   0.127 -0.2340  0.6955  0.2003
 1074SOL    HW1 6114   5.363   7.235   0.172  1.9619  0.8365  0.6450
 1074SOL    HW2 6115   5.470   7.145   0.115 -0.5225 -0.8398 -1.5682
 1075SOL     OW 6116   2.346   2.019   1.942  0.4649 -0.1613  0.2102
 1075SOL    HW1 6117   2.266   2.036   1.991  0.1951  0.0952 -0.3154
 1075SOL    HW2 6118   2.411   1.998   2.009  0.1244  0.2665  0.6795
 1076SOL     OW 6119   0.359   1.792   7.444 -0.1945 -0.1226  0.1007
 1076SOL    HW1 6120   0.378   1.886   7.449 -0.6459  0.0258 -0.7734
 1076SOL    HW2 6121   0.341   1.777   7.351 -1.2746 -0.8495  0.4198
 1077SOL     OW 6122   0.288   7.843   4.315  0.2879 -0.3759  0.5907
 1077SOL    HW1 6123   0.284   7.919   4.373 -1.2359 -1.0036  1.3495
 1077SOL    HW2 6124   0.381   7.824   4.307  0.5909  0.5074  1.7799
 1078SOL     OW 6125   3.474   2.896   8.958  0.1152  0.5033 -0.5365
 1078SOL    HW1 6126   3.438   2.840   8.889 -0.8559 -0.9078  1.0321
 1078SOL    HW2 6127   3.430   2.867   9.038  1.2863  1.9914  0.7161
 1079SOL     OW 6128   8.087   3.941   7.411  0.7617  0.2979  0.0206
 1079SOL    HW1 6129   8.061   3.872   7.473 -0.3484 -1.5959 -2.3838
 1079SOL    HW2 6130   8.005   3.964   7.366  1.9476 -0.7685 -2.9264
 1080SOL     OW 6131   7.673   2.746   7.163 -0.1918  0.1717  0.1107
 1080SOL    HW1 6132   7.640   2.819   7.216 -0.7484 -0.5106  0.7241
 1080SOL    HW2 6133   7.595   2.696   7.140  0.4033 -1.8504  2.1471
 1081SOL     OW 6134   0.594   5.758   3.329  0.2572  0.1922 -0.0149
 1081SOL    HW1 6135   0.648   5.825   3.372 -0.3964 -0.0702  1.2638
 1081SOL    HW2 6136   0.509   5.766   3.372 -0.4771  0.0214 -1.4086
 1082SOL     OW 6137   3.427   9.093   1.924  0.0863 -0.1672 -0.1025
 1082SOL    HW1 6138   3.491   9.151   1.967  0.5085  0.8935 -2.0289
 1082SOL    HW2 6139   3.470   9.007   1.923  0.4479 -0.0099  0.7580
 1083SOL     OW 6140   8.226   7.333   9.633  0.3025  0.6708 -0.3562
 1083SOL    HW1 6141   8.296   7.386   9.595  0.8525 -1.1919 -2.1050
 1083SOL    HW2 6142   8.217   7.366   9.722  1.6774  2.6175 -0.8763
 1084SOL     OW 6143   2.434   6.478   5.433  0.0437  0.3989  0.4221
 1084SOL    HW1 6144   2.503   6.415   5.415 -1.3850 -1.5042  1.2639
 1084SOL    HW2 6145   2.407   6.460   5.523 -1.7613  0.8517  0.0111
 1085SOL     OW 6146   1.144   7.400   1.965  0.0076  0.3503 -0.4881
 1085SOL    HW1 6147   1.055   7.437   1.969  0.6619  2.4190 -2.9201
 1085SOL    HW2 6148   1.147   7.354   1.881  0.7590 -1.2058  0.3465
 1086SOL     OW 6149   1.836   6.256   9.452  0.5135  1.0356  0.2149
 1086SOL    HW1 6150   1.764   6.301   9.496  0.3564 -0.5119  1.6311
 1086SOL    HW2 6151   1.914   6.308   9.473  0.0652  1.7570  0.1207
 1087SOL     OW 6152   8.396   8.690   7.165  0.2348 -0.2485  0.5008
 1087SOL    HW1 6153   8.484   8.672   7.198 -0.1263 -1.1974  1.0092
 1087SOL    HW2 6154   8.377   8.779   7.193  0.1660 -0.8165  2.4168
 1088SOL     OW 6155   3.885   9.304   7.936 -0.0108 -0.0279  0.1290
 1088SOL    HW1 6156   3.794   9.330   7.954  0.3138  0.5441  1.0148
 1088SOL    HW2 6157   3.935   9.344   8.006  1.2340  1.5133 -1.5602
 1089SOL     OW 6158   0.354   6.614   3.709  0.2320 -0.8050  0.5339
 1089SOL    HW1 6159   0.426   6.635   3.769 -0.2964 -1.8409  1.5756
 1089SOL    HW2 6160   0.275   6.640   3.757 -0.1815 -1.3840  0.1797
 1090SOL     OW 6161   3.882   4.928   3.672 -0.2754  0.2231 -0.3314
 1090SOL    HW1 6162   3.972   4.906   3.650 -0.4820 -0.7250 -0.2753
 1090SOL    HW2 6163   3.882   4.936   3.768 -0.0885  1.0265 -0.3909
 1091SOL     OW 6164   3.735   5.264   3.559  0.5415 -0.0651  0.0311
 1091SOL    HW1 6165   3.687   5.222   3.631 -0.4311 -0.2009 -0.6758
 1091SOL    HW2 6166   3.723   5.205   3.485  4.2784 -1.6997  0.4732
 1092SOL     OW 6167   8.560   6.843   7.362 -0.2450  0.2285 -0.2541
 1092SOL    HW1 6168   8.539   6.842   7.455 -2.2380 -1.7174 -0.6451
 1092SOL    HW2 6169   8.524   6.761   7.328 -3.8739  2.8341 -3.5953
 1093SOL     OW 6170   7.843   9.359   1.328  0.1084 -0.1377 -0.2324
 1093SOL    HW1 6171   7.797   9.443   1.326  0.1941 -0.0983 -1.7370
 1093SOL    HW2 6172   7.781   9.296   1.291  0.3961 -0.5440 -0.0266
 1094SOL     OW 6173   8.741   5.519   4.102  0.2987 -0.2110 -0.5310
 1094SOL    HW1 6174   8.834   5.522   4.123  0.0202 -0.5755  0.8200
 1094SOL    HW2 6175   8.696   5.530   4.186 -0.8634 -1.7861 -0.9046
 1095SOL     OW 6176   6.436   2.981   2.251  0.1859 -0.4579  0.5588
 1095SOL    HW1 6177   6.375   3.036   2.299 -3.2954 -1.4602 -2.2268
 1095SOL    HW2 6178   6.400   2.892   2.259  1.5838 -1.1933 -0.7555
 1096SOL     OW 6179   5.362   3.820   2.751  0.1317  0.1585  0.2824
 1096SOL    HW1 6180   5.356   3.912   2.776  0.2155 -0.3435  2.3616
 1096SOL    HW2 6181   5.274   3.796   2.725 -0.5492  0.1855  2.3637
 1097SOL     OW 6182   4.256   4.812   5.095 -0.2894 -0.5281 -0.4859
 1097SOL    HW1 6183   4.238   4.800   5.188  0.1862  2.6714  0.1445
 1097SOL    HW2 6184   4.350   4.796   5.086 -0.3153 -0.7361 -0.3807
 1098SOL     OW 6185   1.729   0.130   3.434 -0.5648 -0.0928 -0.6021
 1098SOL    HW1 6186   1.718   0.081   3.352  0.1240 -0.3470 -0.5504
 1098SOL    HW2 6187   1.796   0.081   3.482 -0.1208  0.7084 -0.3920
 1099SOL     OW 6188   5.130   3.664   5.992 -0.1565  0.2880 -0.3324
 1099SOL    HW1 6189   5.114   3.570   6.003 -1.1514  0.4590 -0.2487
 1099SOL    HW2 6190   5.159   3.673   5.901  1.2917 -0.2606  0.0499
 1100SOL     OW 6191   1.879   4.861   3.034 -0.2632 -0.3673 -0.2567
 1100SOL    HW1 6192   1.827   4.941   3.045 -0.5163 -0.3633 -1.3673
 1100SOL    HW2 6193   1.844   4.820   2.954  0.7296 -0.9080 -0.4319
 1101SOL     OW 6194   4.306   9.501   0.457  0.2014 -0.3020  0.3038
 1101SOL    HW1 6195   4.311   9.489   0.362  0.7674 -1.2423  0.4411
 1101SOL    HW2 6196   4.236   9.443   0.485  1.4567 -1.7073  0.6987
 1102SOL     OW 6197   5.657   7.724   1.210  0.1733  0.5855 -0.1119
 1102SOL    HW1 6198   5.683   7.815   1.226  0.0001  0.6234 -0.0405
 1102SOL    HW2 6199   5.688   7.705   1.122  0.6204  0.5657  0.0488
 1103SOL     OW 6200   7.455   0.369   3.318  0.3331 -0.1965 -0.6310
 1103SOL    HW1 6201   7.452   0.428   3.243 -1.3180 -0.0364 -0.4630
 1103SOL    HW2 6202   7.381   0.395   3.372 -1.2647 -3.2562 -1.1656
 1104SOL     OW 6203   9.639   7.392   1.725  0.0749 -0.2836  0.0814
 1104SOL    HW1 6204   9.641   7.322   1.660  0.3137 -1.0958  0.9357
 1104SOL    HW2 6205   9.655   7.347   1.808  1.6316  0.9761  0.4946
 1105SOL     OW 6206   0.001   8.472   4.369 -0.1576  0.2713 -0.5419
 1105SOL    HW1 6207  -0.052   8.446   4.444 -0.7426  0.5879 -0.8429
 1105SOL    HW2 6208  -0.062   8.496   4.301  0.3676  1.1250 -0.7411
 1106SOL     OW 6209   8.372   0.731   4.058 -0.2553  0.1250 -0.1439
 1106SOL    HW1 6210   8.349   0.775   4.140 -0.2435  0.1112 -0.1329
 1106SOL    HW2 6211   8.406   0.646   4.087 -1.7120 -0.5121 -0.2277
 1107SOL     OW 6212   7.787   6.670   3.127  0.8900 -0.3248  0.4808
 1107SOL    HW1 6213   7.758   6.641   3.213 -0.8942  1.2460  0.4822
 1107SOL    HW2 6214   7.714   6.648   3.069 -0.6201  3.8160  0.4753
 1108SOL     OW 6215   5.102   4.506   8.009  0.0771 -0.3682  0.0124
 1108SOL    HW1 6216   5.035   4.465   8.064 -0.0892 -0.5907 -0.3509
 1108SOL    HW2 6217   5.067   4.592   7.989 -0.9007 -1.0836 -1.5646
 1109SOL     OW 6218   7.552   6.522   3.582  0.0140 -0.2658  0.5280
 1109SOL    HW1 6219   7.606   6.581   3.531 -0.3621  0.7028  1.2345
 1109SOL    HW2 6220   7.590   6.522   3.669  0.1498 -1.2653  0.4891
 1110SOL     OW 6221   7.504   9.256   4.523  0.1712 -0.8456  0.2733
 1110SOL    HW1 6222   7.433   9.192   4.519 -0.1076 -0.6082  1.3379
 1110SOL    HW2 6223   7.583   9.205   4.502 -0.3618 -0.9435 -1.7851
 1111SOL     OW 6224   1.405   3.403   2.284 -0.2019 -0.3788 -0.0218
 1111SOL    HW1 6225   1.443   3.316   2.273  3.3851  1.2055 -1.5156
 1111SOL    HW2 6226   1.394   3.436   2.195 -4.2301 -0.1667  0.3431
 1112SOL     OW 6227   1.205   8.786   5.053  1.0884  0.0811  0.3049
 1112SOL    HW1 6228   1.199   8.817   5.144  1.3641 -0.4353  0.5031
 1112SOL    HW2 6229   1.299   8.787   5.034  0.9209  2.2091 -0.7015
 1113SOL     OW 6230   4.249   5.087   8.056  0.0955 -1.1148 -0.3559
 1113SOL    HW1 6231   4.238   5.089   8.151  0.7906 -0.1057 -0.2850
 1113SOL    HW2 6232   4.188   5.154   8.024  0.8470 -0.5015 -0.5096
 1114SOL     OW 6233   6.103   0.601   7.390  0.0171  0.0656 -0.6464
 1114SOL    HW1 6234   6.111   0.693   7.416  2.8873  0.1718 -1.6110
 1114SOL    HW2 6235   6.019   0.597   7.343 -0.5271  1.9961  0.0693
 1115SOL     OW 6236   6.877   8.225   1.483 -0.0326  0.1762  0.4262
 1115SOL    HW1 6237   6.917   8.261   1.562 -0.4317  0.7875  0.3526
 1115SOL    HW2 6238   6.818   8.157   1.515  1.3957 -1.0822  0.5075
 1116SOL     OW 6239   5.756   1.917   2.562 -0.5475  0.2879  0.4640
 1116SOL    HW1 6240   5.705   1.894   2.484  0.4391  0.5839 -0.2949
 1116SOL    HW2 6241   5.764   1.834   2.610 -0.4330 -0.0923 -0.1937
 1117SOL     OW 6242   8.849   0.703   6.074  0.1151 -0.1902 -0.2528
 1117SOL    HW1 6243   8.903   0.640   6.027  0.7472 -0.6511  1.0531
 1117SOL    HW2 6244   8.784   0.649   6.119  1.0285  0.0080  1.3596
 1118SOL     OW 6245   1.990   4.240   5.445 -0.0949 -0.1333 -0.8237
 1118SOL    HW1 6246   1.977   4.321   5.494  1.0603 -0.1393 -0.4819
 1118SOL    HW2 6247   1.921   4.182   5.477  0.0386  0.1913  0.0931
 1119SOL     OW 6248   0.923   8.888   8.106 -0.2452  0.1354  0.2319
 1119SOL    HW1 6249   0.961   8.953   8.164 -0.4366  1.1253 -0.7089
 1119SOL    HW2 6250   0.977   8.892   8.027  0.4674 -1.7006  0.5684
 1120SOL     OW 6251   4.804   5.982   2.193 -0.1172  0.4655 -0.5932
 1120SOL    HW1 6252   4.771   5.913   2.136 -0.7922  0.4517 -0.1855
 1120SOL    HW2 6253   4.895   5.957   2.210  0.8622  1.5834 -3.4388
 1121SOL     OW 6254   2.619   4.966   6.509  0.0443 -0.3107  0.0628
 1121SOL    HW1 6255   2.632   5.021   6.587 -0.2284  0.4226 -0.4011
 1121SOL    HW2 6256   2.643   4.878   6.538  1.6015  0.2220  0.5145
 1122SOL     OW 6257   0.341   1.395   7.965 -0.2849 -0.5748 -0.2862
 1122SOL    HW1 6258   0.405   1.361   8.028 -0.1743 -1.3747 -0.8249
 1122SOL    HW2 6259   0.262   1.344   7.980 -1.2821  1.2690  1.2726
 1123SOL     OW 6260   5.569   6.273   7.249 -0.6778  0.0821 -0.2383
 1123SOL    HW1 6261   5.617   6.256   7.330  2.3475 -1.8019 -2.2033
 1123SOL    HW2 6262   5.589   6.365   7.229  0.3365 -0.0534  0.1010
 1124SOL     OW 6263   3.735   1.343   1.533  0.3242 -0.1503 -0.1323
 1124SOL    HW1 6264   3.724   1.300   1.618 -1.2147  0.9450  0.2523
 1124SOL    HW2 6265   3.745   1.270   1.471  1.3480 -0.9704  0.9247
 1125SOL     OW 6266   5.100   3.566   2.554 -0.9114  0.1394 -0.8351
 1125SOL    HW1 6267   5.112   3.559   2.649  0.0401  0.3535 -0.9323
 1125SOL    HW2 6268   5.029   3.505   2.535 -1.8596  0.8784  0.1539
 1126SOL     OW 6269   4.213   3.193   7.913  0.1676 -0.0652  0.2596
 1126SOL    HW1 6270   4.133   3.211   7.962 -0.1419 -0.6799 -0.0090
 1126SOL    HW2 6271   4.283   3.224   7.970 -0.2240 -0.1631  0.8075
 1127SOL     OW 6272   7.493   4.211   2.235 -0.0361 -0.1542  0.7913
 1127SOL    HW1 6273   7.530   4.156   2.166  0.4251 -0.5963  1.3756
 1127SOL    HW2 6274   7.436   4.152   2.285 -0.7350  0.2742  0.5201
 1128SOL     OW 6275   9.630   4.418   7.518  0.0675  0.0684  0.2515
 1128SOL    HW1 6276   9.719   4.452   7.528  0.6010 -1.5206  1.2437
 1128SOL    HW2 6277   9.600   4.405   7.608 -0.9968  0.1383 -0.0844
 1129SOL     OW 6278   5.553   5.059   0.915 -0.2664  0.7767  0.3779
 1129SOL    HW1 6279   5.592   5.145   0.933 -1.0735  1.3144 -0.3596
 1129SOL    HW2 6280   5.470   5.060   0.963  1.0441 -0.8150  2.9266
 1130SOL     OW 6281   3.887   3.583   7.511 -0.5273  0.2356 -0.1186
 1130SOL    HW1 6282   3.800   3.623   7.511  0.3999  2.3796 -0.5896
 1130SOL    HW2 6283   3.920   3.598   7.422  0.5508  0.0041  0.2315
 1131SOL     OW 6284   0.513   8.944   5.837  0.1622 -0.1746 -0.9050
 1131SOL    HW1 6285   0.529   9.018   5.779 -1.5425 -0.6263 -2.0184
 1131SOL    HW2 6286   0.576   8.878   5.810  1.4526  0.6913 -0.1413
 1132SOL     OW 6287   8.059   6.991   7.209 -0.3524 -0.8660 -0.1239
 1132SOL    HW1 6288   8.019   7.074   7.236 -1.9752 -1.6541  0.0167
 1132SOL    HW2 6289   8.096   7.010   7.123 -1.7148 -0.2704 -0.6135
 1133SOL     OW 6290   5.748   0.693   8.112 -0.6026 -0.3359 -0.2611
 1133SOL    HW1 6291   5.672   0.635   8.121 -1.1303  0.5027  0.9454
 1133SOL    HW2 6292   5.816   0.651   8.165 -1.1535  0.3954  1.0596
 1134SOL     OW 6293   9.637   8.891   1.721  0.5225 -0.2171  0.0448
 1134SOL    HW1 6294   9.575   8.889   1.648 -0.2113 -1.9216  0.6483
 1134SOL    HW2 6295   9.682   8.807   1.716  0.4472 -0.3707  1.5549
 1135SOL     OW 6296   5.217   3.978   8.997 -0.4302  0.1058 -0.0463
 1135SOL    HW1 6297   5.165   3.935   9.065  0.6186 -2.7622 -0.9114
 1135SOL    HW2 6298   5.303   3.992   9.037  0.2426 -1.7436 -0.7249
 1136SOL     OW 6299   6.800   2.745   6.914 -0.0969  0.2734 -0.0024
 1136SOL    HW1 6300   6.850   2.826   6.903 -0.1166  0.3469  0.4530
 1136SOL    HW2 6301   6.829   2.690   6.841 -0.8007  1.0476 -0.8861
 1137SOL     OW 6302   1.772   5.289   9.171 -0.0142  0.2152 -0.2392
 1137SOL    HW1 6303   1.814   5.286   9.257 -3.2402 -0.6918  1.4282
 1137SOL    HW2 6304   1.829   5.234   9.116  0.4775 -1.8759  2.1540
 1138SOL     OW 6305   4.307   8.517   1.527 -0.0882 -0.3960  0.7691
 1138SOL    HW1 6306   4.228   8.520   1.474  1.0078 -0.8515 -0.9677
 1138SOL    HW2 6307   4.328   8.608   1.546 -2.0799 -0.2957  3.0009
 1139SOL     OW 6308   1.917   4.874   4.137 -0.1305 -0.1900  0.1627
 1139SOL    HW1 6309   1.994   4.897   4.189  1.4276  0.4007 -2.2482
 1139SOL    HW2 6310   1.884   4.959   4.106  0.3890 -0.6173 -1.6580
 1140SOL     OW 6311   6.246   2.650   5.619 -0.2115 -0.5118 -0.1521
 1140SOL    HW1 6312   6.171   2.628   5.563 -0.7977 -1.2452  0.8954
 1140SOL    HW2 6313   6.207   2.689   5.697  0.4026 -2.0135  0.9403
 1141SOL     OW 6314   4.529   8.273   5.129 -0.2957 -0.3260  0.3940
 1141SOL    HW1 6315   4.600   8.286   5.066 -2.0859  1.7622 -1.3757
 1141SOL    HW2 6316   4.485   8.193   5.100  0.1836 -0.5621  0.3113
 1142SOL     OW 6317   6.602   5.201   4.985  0.2909 -0.0499 -0.2535
 1142SOL    HW1 6318   6.671   5.143   4.952 -0.1219 -0.4929 -0.3537
 1142SOL    HW2 6319   6.606   5.190   5.080  0.9285  0.5901 -0.1995
 1143SOL     OW 6320   2.759   3.796   5.981  0.1355  0.1569 -0.5440
 1143SOL    HW1 6321   2.724   3.755   5.902  2.0787 -0.5349 -1.1117
 1143SOL    HW2 6322   2.692   3.782   6.048  0.0102 -2.5288 -1.1386
 1144SOL     OW 6323   9.181   3.444   7.711  0.1459  0.3344 -0.4035
 1144SOL    HW1 6324   9.226   3.439   7.795 -0.1654  1.7658 -0.1295
 1144SOL    HW2 6325   9.091   3.417   7.731  0.4386 -0.8766 -0.6185
 1145SOL     OW 6326   2.084   5.653   9.356 -0.7485 -0.0921  0.3859
 1145SOL    HW1 6327   2.122   5.565   9.360 -1.1401 -0.2506  3.1763
 1145SOL    HW2 6328   1.994   5.641   9.386 -1.0855  1.1313 -0.0914
 1146SOL     OW 6329   1.358   7.992   4.519 -0.2733 -0.3215 -0.2070
 1146SOL    HW1 6330   1.393   8.049   4.587  1.5400 -0.5698 -0.8840
 1146SOL    HW2 6331   1.302   7.930   4.567  1.8189 -1.2013  1.2939
 1147SOL     OW 6332   6.868   6.705   5.276  0.1488 -0.0266  0.4332
 1147SOL    HW1 6333   6.845   6.618   5.246 -2.7142  0.2874  1.4518
 1147SOL    HW2 6334   6.793   6.760   5.253  1.9065  2.2656 -0.3325
 1148SOL     OW 6335   8.186   8.766   2.391  0.7190  0.1573 -0.4390
 1148SOL    HW1 6336   8.275   8.787   2.361  0.8943 -2.2425 -1.9086
 1148SOL    HW2 6337   8.196   8.750   2.485  1.4356  1.7611 -0.2134
 1149SOL     OW 6338   2.769   8.658   9.035  0.0606 -0.3695  0.4062
 1149SOL    HW1 6339   2.804   8.586   9.087 -0.4198  0.3664  1.8092
 1149SOL    HW2 6340   2.687   8.625   8.999 -0.9167 -0.1239  2.2418
 1150SOL     OW 6341   9.529   1.961   6.237 -0.2845  0.2314 -0.2078
 1150SOL    HW1 6342   9.453   1.910   6.210  0.1519  0.0008 -1.0211
 1150SOL    HW2 6343   9.511   2.050   6.206 -0.7801  0.4597  0.7003
 1151SOL     OW 6344   7.163   6.229   8.883 -0.3774 -0.0691 -0.2968
 1151SOL    HW1 6345   7.191   6.151   8.836  0.6208  0.8147 -1.1976
 1151SOL    HW2 6346   7.202   6.302   8.835 -0.9965  0.9738  0.7350
 1152SOL     OW 6347   4.481   0.097   2.797 -0.3764  0.0801 -0.0744
 1152SOL    HW1 6348   4.567   0.137   2.784 -0.2833  0.6390  1.9275
 1152SOL    HW2 6349   4.491   0.044   2.876 -2.2113  1.2451  0.9927
 1153SOL     OW 6350   3.241   4.408   3.135 -0.0380  0.4221 -0.3795
 1153SOL    HW1 6351   3.174   4.471   3.161  0.7448  0.8908  0.5573
 1153SOL    HW2 6352   3.292   4.392   3.214  3.1991  2.8203 -1.7645
 1154SOL     OW 6353   6.064   0.600   0.684  0.0137  0.3703  0.5367
 1154SOL    HW1 6354   6.053   0.678   0.739  1.4468  0.2770  0.9942
 1154SOL    HW2 6355   5.992   0.543   0.710 -0.4031  1.0822  0.9941
 1155SOL     OW 6356   9.263   6.987   7.499  0.6656 -0.0364 -0.3417
 1155SOL    HW1 6357   9.211   6.909   7.521  0.0848 -0.4426 -2.7895
 1155SOL    HW2 6358   9.307   6.963   7.417  0.1936  2.3024 -1.3628
 1156SOL     OW 6359   1.432   8.436   9.354 -0.3694  0.0617  0.5298
 1156SOL    HW1 6360   1.385   8.450   9.272 -2.2879  0.7013  1.6778
 1156SOL    HW2 6361   1.405   8.349   9.383 -0.7692  0.3832  1.1401
 1157SOL     OW 6362   4.091   3.969   9.357 -0.4478  0.6471  0.4600
 1157SOL    HW1 6363   4.079   4.059   9.387  4.1447  1.5885  0.1399
 1157SOL    HW2 6364   4.111   3.978   9.263  2.9681 -0.1827  0.9708
 1158SOL     OW 6365   8.996   5.517   2.246  0.0302  0.0564  0.1708
 1158SOL    HW1 6366   8.945   5.467   2.309  0.8483  0.2382  1.0102
 1158SOL    HW2 6367   9.001   5.605   2.284  1.2850 -0.0538  0.3197
 1159SOL     OW 6368   5.425   3.922   0.358 -0.0566 -0.0849 -0.1031
 1159SOL    HW1 6369   5.515   3.931   0.328 -0.2457 -0.3544 -0.7793
 1159SOL    HW2 6370   5.389   4.011   0.355 -0.5337 -0.2798 -2.2444
 1160SOL     OW 6371   3.150   9.568   7.026  0.6670  0.3928 -0.3417
 1160SOL    HW1 6372   3.089   9.494   7.030  0.2231  0.6941 -1.1520
 1160SOL    HW2 6373   3.140   9.612   7.110 -0.9814  0.9893 -0.8084
 1161SOL     OW 6374   6.677   5.729   0.231  0.0024 -0.4412  0.0100
 1161SOL    HW1 6375   6.751   5.788   0.250 -0.6989  0.2806  0.5932
 1161SOL    HW2 6376   6.707   5.675   0.158  2.4388 -2.5452  2.3347
 1162SOL     OW 6377   0.111   4.882   8.091 -0.2143  0.2706 -0.1430
 1162SOL    HW1 6378   0.202   4.865   8.067 -0.1755 -1.0816  0.8432
 1162SOL    HW2 6379   0.115   4.911   8.182 -0.5410  3.2876 -0.9849
 1163SOL     OW 6380   7.206   6.081   6.342 -0.4041  0.3336 -0.2405
 1163SOL    HW1 6381   7.283   6.044   6.299 -0.2266 -0.1014  0.4316
 1163SOL    HW2 6382   7.201   6.170   6.309  2.7047  1.7806  2.5283
 1164SOL     OW 6383   2.695   6.479   1.805 -0.2961  0.1565 -0.5626
 1164SOL    HW1 6384   2.723   6.392   1.778  0.0059  0.5610 -1.6253
 1164SOL    HW2 6385   2.625   6.464   1.868 -0.4386 -0.8590 -0.9467
 1165SOL     OW 6386   5.969   9.426   5.674  0.0707 -0.5147 -0.5623
 1165SOL    HW1 6387   5.970   9.520   5.657 -0.2333 -0.6934 -1.6650
 1165SOL    HW2 6388   5.881   9.397   5.646 -0.1464 -0.9951  0.5506
 1166SOL     OW 6389   7.516   0.548   0.467  0.0612 -0.1852 -0.1692
 1166SOL    HW1 6390   7.456   0.475   0.483 -0.6341  0.1651 -1.0865
 1166SOL    HW2 6391   7.466   0.626   0.491  0.1052  0.1189 -1.0550
 1167SOL     OW 6392   5.224   0.427   4.677 -0.1282 -0.2886  0.2393
 1167SOL    HW1 6393   5.271   0.473   4.747  0.8317  0.7201 -0.9923
 1167SOL    HW2 6394   5.265   0.340   4.674  0.3263 -0.0893  0.4766
 1168SOL     OW 6395   1.407   9.001   4.568  0.2070  0.1294  0.3532
 1168SOL    HW1 6396   1.494   9.005   4.608 -0.3493 -3.2460  2.3216
 1168SOL    HW2 6397   1.424   8.992   4.474  2.1599 -2.2550  0.8372
 1169SOL     OW 6398   1.657   2.350   8.782 -0.3856 -0.2269  0.2627
 1169SOL    HW1 6399   1.643   2.343   8.687 -0.9190  0.6702  0.2648
 1169SOL    HW2 6400   1.688   2.263   8.808 -1.7501 -0.9620 -0.4777
 1170SOL     OW 6401   1.890   5.582   7.354  0.0426  0.0519 -0.1690
 1170SOL    HW1 6402   1.919   5.555   7.441  0.6566  0.3545 -0.2771
 1170SOL    HW2 6403   1.961   5.554   7.295  1.2558  2.8015 -0.1751
 1171SOL     OW 6404   4.449   6.392   6.243 -0.1239 -0.2720 -0.2953
 1171SOL    HW1 6405   4.484   6.427   6.160 -0.4916  1.4517  0.2371
 1171SOL    HW2 6406   4.491   6.446   6.310 -0.0900 -1.4335  0.6298
 1172SOL     OW 6407   5.915   7.896   2.626 -0.6646  0.8534 -0.0784
 1172SOL    HW1 6408   5.836   7.853   2.594 -1.7416 -0.2469  3.5738
 1172SOL    HW2 6409   5.883   7.971   2.677  0.3719 -0.5120  2.8077
 1173SOL     OW 6410   8.093   1.973   8.996  0.3675  0.3899  0.6564
 1173SOL    HW1 6411   8.181   1.976   9.035  0.9500 -2.2431 -0.2749
 1173SOL    HW2 6412   8.059   1.887   9.019 -0.9161  0.3368 -1.2152
 1174SOL     OW 6413   0.350   4.135   5.982 -0.0026  0.1673  0.5494
 1174SOL    HW1 6414   0.324   4.076   5.912 -0.6109 -0.0843  0.9758
 1174SOL    HW2 6415   0.445   4.140   5.975  0.0794 -0.9729  0.5841
 1175SOL     OW 6416   7.763   3.486   8.629 -0.1791 -0.3702  0.1187
 1175SOL    HW1 6417   7.858   3.486   8.615 -0.1794 -2.7569 -0.2121
 1175SOL    HW2 6418   7.753   3.511   8.721  0.8697 -1.3318  0.5216
 1176SOL     OW 6419   3.418   1.310   8.513 -0.0007 -0.0376  0.3806
 1176SOL    HW1 6420   3.444   1.239   8.572 -2.3154  0.0167  1.5780
 1176SOL    HW2 6421   3.415   1.388   8.569  0.1904  0.5357 -0.3879
 1177SOL     OW 6422   1.692   3.628   8.062  0.3790  0.0087  0.5652
 1177SOL    HW1 6423   1.692   3.543   8.106  1.2853  1.2449  3.1416
 1177SOL    HW2 6424   1.666   3.690   8.130 -0.1215  1.8418 -1.2084
 1178SOL     OW 6425   6.744   7.662   5.575  0.1984 -0.7635  0.0780
 1178SOL    HW1 6426   6.809   7.593   5.574 -1.5399 -2.5643 -2.7188
 1178SOL    HW2 6427   6.793   7.742   5.595  2.8527 -2.2882  0.0114
 1179SOL     OW 6428   1.476   4.693   8.465 -0.6546  0.5830  0.1852
 1179SOL    HW1 6429   1.556   4.743   8.480  0.0518  0.3776 -2.4296
 1179SOL    HW2 6430   1.501   4.602   8.480 -0.0671  0.4186 -1.5689
 1180SOL     OW 6431   2.215   0.954   6.824  0.3620 -0.3674 -0.4392
 1180SOL    HW1 6432   2.268   0.894   6.771  1.7823  1.0960 -0.7717
 1180SOL    HW2 6433   2.279   1.015   6.862 -1.1279  2.0676 -1.6184
 1181SOL     OW 6434   0.838   2.583   8.066  0.3465 -0.3648  0.2171
 1181SOL    HW1 6435   0.870   2.577   7.976  0.0617  0.6720  0.0312
 1181SOL    HW2 6436   0.760   2.637   8.060  0.7477  0.3565  1.1887
 1182SOL     OW 6437   6.903   6.293   6.823  0.0829 -0.6725 -0.3034
 1182SOL    HW1 6438   6.978   6.297   6.882 -0.9888  0.5871  1.0596
 1182SOL    HW2 6439   6.831   6.332   6.873 -0.8733  0.4923 -2.4730
 1183SOL     OW 6440   9.302   3.929   9.039 -0.2788 -0.5265  0.3686
 1183SOL    HW1 6441   9.291   3.908   8.946  0.7166  1.9010 -0.3668
 1183SOL    HW2 6442   9.220   3.971   9.065 -0.4184 -0.8755  0.4993
 1184SOL     OW 6443   6.543   2.428   5.092  0.5428 -0.1471 -0.2025
 1184SOL    HW1 6444   6.604   2.471   5.032  0.7728 -0.3607 -0.1252
 1184SOL    HW2 6445   6.470   2.489   5.101  0.2992 -0.3120 -1.0548
 1185SOL     OW 6446   8.297   8.890   8.005  0.3169 -0.4024  0.1126
 1185SOL    HW1 6447   8.330   8.916   7.919 -0.3915 -2.0439 -0.7251
 1185SOL    HW2 6448   8.353   8.817   8.031  0.4126 -0.0290  0.9691
 1186SOL     OW 6449   9.259   0.669   5.692 -0.1527  0.2169 -0.0661
 1186SOL    HW1 6450   9.235   0.705   5.607  0.5749 -0.4477 -0.5656
 1186SOL    HW2 6451   9.218   0.728   5.755  0.6004  1.6680 -0.8609
 1187SOL     OW 6452   8.891   6.376   3.104 -0.5682 -0.3497  0.5151
 1187SOL    HW1 6453   8.817   6.396   3.162 -1.3863  0.5512 -0.7909
 1187SOL    HW2 6454   8.902   6.455   3.051 -0.1582 -1.3216 -0.8938
 1188SOL     OW 6455   9.142   7.557   5.191 -0.0694 -1.0795 -0.3229
 1188SOL    HW1 6456   9.233   7.565   5.162  0.1190  1.4146  0.7005
 1188SOL    HW2 6457   9.092   7.611   5.130 -0.3300  0.3480  1.0839
 1189SOL     OW 6458   6.998   6.406   5.859 -0.1679 -0.0914  0.6421
 1189SOL    HW1 6459   6.986   6.312   5.850  0.2375  0.0293 -1.7181
 1189SOL    HW2 6460   7.004   6.421   5.954 -1.9151 -2.1950  1.1690
 1190SOL     OW 6461   3.034   5.545   3.534  0.2499 -0.2384  0.1429
 1190SOL    HW1 6462   3.081   5.596   3.600 -1.2524  0.3087  0.8565
 1190SOL    HW2 6463   3.078   5.460   3.532  0.1315 -0.3868  2.1254
 1191SOL     OW 6464   5.583   5.877   7.784 -0.4143 -0.2812 -0.1718
 1191SOL    HW1 6465   5.581   5.944   7.853 -1.4941 -0.4192 -0.0542
 1191SOL    HW2 6466   5.669   5.836   7.794 -0.8343 -0.8284  1.6189
 1192SOL     OW 6467   4.244   9.525   9.337 -0.2405 -0.1036  0.3528
 1192SOL    HW1 6468   4.317   9.538   9.398 -0.4417 -1.5161  0.9340
 1192SOL    HW2 6469   4.283   9.531   9.250  0.4519 -0.2614  0.6530
 1193SOL     OW 6470   0.815   5.190   6.990  0.6078  0.4429  0.4883
 1193SOL    HW1 6471   0.729   5.227   6.970  0.8574  0.7934  0.0512
 1193SOL    HW2 6472   0.864   5.197   6.908  0.9135 -0.1490  0.6176
 1194SOL     OW 6473   2.862   8.738   0.579 -0.6336  0.1430 -0.5654
 1194SOL    HW1 6474   2.953   8.760   0.557 -0.8462  1.6940 -0.0228
 1194SOL    HW2 6475   2.870   8.661   0.636  0.5385  1.4929  1.2294
 1195SOL     OW 6476   2.997   3.713   6.075 -0.2186 -0.3236 -0.1784
 1195SOL    HW1 6477   2.907   3.745   6.085  0.1053  1.2731 -2.0111
 1195SOL    HW2 6478   3.045   3.752   6.149 -0.4777  1.0074 -0.6953
 1196SOL     OW 6479   8.747   0.235   3.006 -0.4177 -0.1424  1.0791
 1196SOL    HW1 6480   8.738   0.147   3.042 -2.2282 -0.1108  0.8086
 1196SOL    HW2 6481   8.755   0.221   2.911 -1.8985 -0.0231  0.9019
 1197SOL     OW 6482   8.791   4.859   4.929 -0.2992  0.7958 -0.6851
 1197SOL    HW1 6483   8.725   4.804   4.970 -0.7230  1.4561 -0.4698
 1197SOL    HW2 6484   8.834   4.905   5.001  1.3655 -0.6453 -0.6888
 1198SOL     OW 6485   3.919   1.282   8.170  0.0231  0.4190  0.2565
 1198SOL    HW1 6486   3.953   1.342   8.237 -0.7064  1.1546 -0.0208
 1198SOL    HW2 6487   3.824   1.281   8.184 -0.0389 -0.1636 -0.1669
 1199SOL     OW 6488   4.048   2.153   8.439  0.3298 -0.1133 -0.3834
 1199SOL    HW1 6489   4.045   2.062   8.465  1.7972 -0.8215 -2.3948
 1199SOL    HW2 6490   3.960   2.187   8.457 -0.3960 -2.0460 -0.0900
 1200SOL     OW 6491   0.797   0.686   0.896  0.7011  0.2934  0.1600
 1200SOL    HW1 6492   0.720   0.705   0.843  2.2769  0.6292 -2.1527
 1200SOL    HW2 6493   0.813   0.593   0.882  2.4603  0.8426 -1.9751
 1201SOL     OW 6494   3.380   9.339   0.221  0.1962  0.1052  0.4278
 1201SOL    HW1 6495   3.382   9.435   0.218 -1.4113  0.1347 -0.5336
 1201SOL    HW2 6496   3.295   9.318   0.260  0.5897 -0.9470  0.7625
 1202SOL     OW 6497   0.433   1.749   0.592 -0.3775 -0.0995  0.1726
 1202SOL    HW1 6498   0.378   1.805   0.646 -0.0116  0.5084 -0.0740
 1202SOL    HW2 6499   0.381   1.669   0.579 -0.4319 -0.2951  1.4849
 1203SOL     OW 6500   3.420   1.981   1.055  0.1546  0.5384 -0.3932
 1203SOL    HW1 6501   3.419   1.986   1.150  0.4659  1.1074 -0.4167
 1203SOL    HW2 6502   3.354   1.915   1.033  0.1716  0.3189  0.2192
 1204SOL     OW 6503   6.206   7.439   5.288  0.0644 -0.3943  0.3266
 1204SOL    HW1 6504   6.218   7.494   5.211  0.0808 -0.3447  0.3647
 1204SOL    HW2 6505   6.111   7.432   5.299  0.0215  1.6375  1.7533
 1205SOL     OW 6506   9.606   3.942   7.219 -0.0332  0.0130  0.5614
 1205SOL    HW1 6507   9.700   3.934   7.234  0.4807  1.9584 -1.1531
 1205SOL    HW2 6508   9.571   3.971   7.303  0.8335 -1.0852  1.3235
 1206SOL     OW 6509   1.132   3.901   8.866  0.3115  0.3112 -0.1912
 1206SOL    HW1 6510   1.134   3.829   8.804  0.1020  0.4806 -0.3981
 1206SOL    HW2 6511   1.061   3.957   8.835  0.5529  0.6685 -0.1003
 1207SOL     OW 6512   2.832   2.294   9.053  0.3497 -0.2845 -0.5639
 1207SOL    HW1 6513   2.766   2.329   8.992 -0.0885 -0.9628 -0.4910
 1207SOL    HW2 6514   2.906   2.270   8.997  0.5662  0.5150 -0.6429
 1208SOL     OW 6515   5.303   2.179   8.822 -0.3345 -0.3158  0.6367
 1208SOL    HW1 6516   5.327   2.198   8.913  0.0249  1.6618  0.1739
 1208SOL    HW2 6517   5.305   2.264   8.778  1.5549 -1.4474 -1.7299
 1209SOL     OW 6518   0.628   0.711   1.100 -0.5801 -0.0085 -0.0389
 1209SOL    HW1 6519   0.708   0.721   1.050 -1.5688 -0.9753 -1.9342
 1209SOL    HW2 6520   0.625   0.618   1.123 -1.2331 -0.0218 -0.1492
 1210SOL     OW 6521   0.508   4.121   3.906  0.0225 -0.4206 -0.0302
 1210SOL    HW1 6522   0.510   4.216   3.889  0.2574 -0.1619  1.3541
 1210SOL    HW2 6523   0.567   4.084   3.840 -1.5243  0.1564 -1.8289
 1211SOL     OW 6524   2.241   0.308   8.040 -0.6155  0.2182  0.0719
 1211SOL    HW1 6525   2.254   0.269   7.954  1.7119 -0.6329  0.7351
 1211SOL    HW2 6526   2.324   0.295   8.085 -1.1291  2.3220  1.8019
 1212SOL     OW 6527   0.820   1.688   2.409  0.4786 -0.2606  0.3687
 1212SOL    HW1 6528   0.860   1.660   2.492  0.0208  0.5893  0.8956
 1212SOL    HW2 6529   0.846   1.780   2.400 -0.6885  0.0855  0.3245
 1213SOL     OW 6530   4.227   1.467   3.568  0.8182 -0.5727  0.4362
 1213SOL    HW1 6531   4.216   1.536   3.633 -0.6484  0.3404 -0.7022
 1213SOL    HW2 6532   4.184   1.391   3.605  1.2312 -0.4812  1.1145
 1214SOL     OW 6533   6.146   0.862   4.111  0.1122 -0.2556 -0.3485
 1214SOL    HW1 6534   6.237   0.850   4.140 -0.2181  0.4595  1.0401
 1214SOL    HW2 6535   6.150   0.849   4.016  1.7980  0.4899 -0.4214
 1215SOL     OW 6536   0.089   7.939   7.385 -0.2845  0.0806 -0.8350
 1215SOL    HW1 6537   0.148   7.990   7.329  1.9832 -0.4408  0.9155
 1215SOL    HW2 6538   0.080   7.855   7.340 -1.4613  0.8592 -2.1465
 1216SOL     OW 6539   5.385   4.118   6.788  0.4107  0.0176 -0.4487
 1216SOL    HW1 6540   5.393   4.062   6.711  0.8688  0.9265 -1.0753
 1216SOL    HW2 6541   5.320   4.184   6.764  0.9992  0.6645 -0.2877
 1217SOL     OW 6542   8.380   0.935   6.973  0.0247  0.3286  0.8613
 1217SOL    HW1 6543   8.436   0.857   6.968  0.3568  0.6220 -0.1724
 1217SOL    HW2 6544   8.321   0.927   6.898 -0.0317  1.0088  0.8313
 1218SOL     OW 6545   9.053   0.697   1.430 -0.6655 -0.4303 -0.5388
 1218SOL    HW1 6546   9.055   0.665   1.520 -0.4988  0.1161 -0.3481
 1218SOL    HW2 6547   8.960   0.715   1.413 -1.0111 -2.5926 -1.2162
 1219SOL     OW 6548   1.419   3.697   4.312 -0.3572  0.1998 -0.1650
 1219SOL    HW1 6549   1.497   3.672   4.262 -1.2993 -1.2287 -1.0163
 1219SOL    HW2 6550   1.384   3.773   4.266 -0.4858 -0.3024 -0.9092
 1220SOL     OW 6551   9.243   5.724   7.876  0.0613 -0.3182  0.2833
 1220SOL    HW1 6552   9.277   5.648   7.828  0.0498  0.2179 -0.6020
 1220SOL    HW2 6553   9.281   5.799   7.831 -0.7391  0.2301  0.5125
 1221SOL     OW 6554   2.582   8.500   8.863 -0.2489  0.4801  0.0079
 1221SOL    HW1 6555   2.509   8.494   8.801 -1.2984 -1.1867  1.3153
 1221SOL    HW2 6556   2.657   8.464   8.815 -0.5973  0.9473 -0.9048
 1222SOL     OW 6557   2.164   6.614   2.707 -0.3186 -0.5261  0.7934
 1222SOL    HW1 6558   2.184   6.520   2.707 -0.8286 -0.6397  1.5272
 1222SOL    HW2 6559   2.094   6.624   2.643 -0.7764 -0.7627  1.2535
 1223SOL     OW 6560   7.278   7.193   5.806 -0.0836  0.5314 -0.4997
 1223SOL    HW1 6561   7.332   7.171   5.730  2.0863 -1.5724  1.4958
 1223SOL    HW2 6562   7.330   7.255   5.856  0.7140 -1.5830  1.4899
 1224SOL     OW 6563   1.794   6.304   6.122  0.2647  0.5016  0.1177
 1224SOL    HW1 6564   1.779   6.370   6.055  1.1625 -0.6377 -1.2632
 1224SOL    HW2 6565   1.817   6.354   6.200  1.6284  1.8082 -1.0709
 1225SOL     OW 6566   4.017   5.177   4.898 -0.1977 -0.7314  0.0920
 1225SOL    HW1 6567   4.088   5.218   4.849  0.2961 -1.1660  0.4331
 1225SOL    HW2 6568   4.041   5.084   4.901 -0.1783 -0.6989  1.2238
 1226SOL     OW 6569   3.605   7.630   7.538 -0.3619 -0.0047  0.1679
 1226SOL    HW1 6570   3.643   7.691   7.602 -1.8678  1.2075 -0.0150
 1226SOL    HW2 6571   3.520   7.606   7.576  0.0023 -1.6552  0.0001
 1227SOL     OW 6572   4.624   7.900   8.431  0.3084 -0.1722 -0.3910
 1227SOL    HW1 6573   4.594   7.931   8.346 -0.0494 -0.8166 -0.5084
 1227SOL    HW2 6574   4.660   7.813   8.413 -2.0878 -1.4274  0.4985
 1228SOL     OW 6575   5.679   5.911   8.698 -0.0559  0.1492 -0.3717
 1228SOL    HW1 6576   5.600   5.910   8.753  0.7792 -0.4328  0.8784
 1228SOL    HW2 6577   5.663   5.843   8.633 -0.6135  0.0721 -0.1673
 1229SOL     OW 6578   0.959   7.496   6.170 -0.2949 -0.2358 -0.2178
 1229SOL    HW1 6579   0.998   7.506   6.083  1.0149  0.6307  0.4310
 1229SOL    HW2 6580   1.012   7.429   6.213 -0.8864 -0.6025 -0.0478
 1230SOL     OW 6581   0.987   3.013   6.567  0.8249 -0.2374  0.4134
 1230SOL    HW1 6582   1.031   2.985   6.487  0.3874  1.8602 -0.6333
 1230SOL    HW2 6583   0.899   2.974   6.561  1.5573 -2.1502  1.1691
 1231SOL     OW 6584   1.377   3.546   5.562 -0.3186 -0.0442  0.3463
 1231SOL    HW1 6585   1.439   3.493   5.513  0.6048 -1.6520  3.0307
 1231SOL    HW2 6586   1.321   3.482   5.606  0.1112  1.1467  2.8125
 1232SOL     OW 6587   5.840   6.758   6.152 -0.2763 -0.2878  0.7560
 1232SOL    HW1 6588   5.887   6.804   6.082  0.5375  1.0389  2.1082
 1232SOL    HW2 6589   5.785   6.695   6.106 -0.2075  0.9212 -1.1124
 1233SOL     OW 6590   4.460   1.059   4.138 -0.0126  0.4269  0.4436
 1233SOL    HW1 6591   4.546   1.089   4.167  0.4234 -0.6199  0.2748
 1233SOL    HW2 6592   4.463   1.066   4.043  0.8003 -1.8265  0.2255
 1234SOL     OW 6593   6.506   5.738   4.917 -0.1545 -0.0208  0.6123
 1234SOL    HW1 6594   6.570   5.710   4.852  1.3735 -2.3243  2.9343
 1234SOL    HW2 6595   6.447   5.663   4.926 -0.4732  0.3448  1.7394
 1235SOL     OW 6596   6.730   5.611   8.605 -0.0321 -0.1218 -0.1744
 1235SOL    HW1 6597   6.656   5.555   8.626  0.5024 -0.6031  0.4863
 1235SOL    HW2 6598   6.709   5.648   8.520 -0.6933 -0.8249 -0.3278
 1236SOL     OW 6599   1.017   6.493   0.112  0.1292 -0.6486 -0.4195
 1236SOL    HW1 6600   0.942   6.501   0.054  0.1427  1.0289 -0.2679
 1236SOL    HW2 6601   0.980   6.488   0.200  0.1822  0.4052 -0.3276
 1237SOL     OW 6602   0.227   9.223   8.238 -0.0807  0.2207  0.2650
 1237SOL    HW1 6603   0.300   9.195   8.293 -1.1404 -0.8248  1.1813
 1237SOL    HW2 6604   0.161   9.155   8.248 -1.2106  1.1543 -0.5133
 1238SOL     OW 6605   8.940   9.039   5.099  0.3726 -0.0538  0.1135
 1238SOL    HW1 6606   8.930   8.944   5.100 -0.5721  0.0319 -0.3303
 1238SOL    HW2 6607   9.002   9.057   5.028  0.6040 -0.3394  0.2429
 1239SOL     OW 6608   3.289   4.146   4.789 -0.2898 -0.1457 -0.7294
 1239SOL    HW1 6609   3.368   4.092   4.799 -0.0055 -0.1705 -2.7727
 1239SOL    HW2 6610   3.220   4.096   4.833  0.4768 -0.9738 -0.4429
 1240SOL     OW 6611   8.486   8.524   8.893 -0.3911 -0.1488  0.3931
 1240SOL    HW1 6612   8.429   8.462   8.846 -0.2915 -0.6185  0.8911
 1240SOL    HW2 6613   8.432   8.556   8.965 -1.2224  2.0352 -1.1142
 1241SOL     OW 6614   3.361   4.868   7.103 -0.2534 -0.2330 -0.2930
 1241SOL    HW1 6615   3.387   4.927   7.032  1.6882  1.0042  1.3400
 1241SOL    HW2 6616   3.265   4.872   7.103 -0.3015  0.0722 -2.5151
 1242SOL     OW 6617   8.923   1.774   3.262  0.2782  0.4616  0.3173
 1242SOL    HW1 6618   8.870   1.736   3.192 -2.5043  1.0690  1.9127
 1242SOL    HW2 6619   9.012   1.746   3.243 -0.4710 -0.1096 -2.9334
 1243SOL     OW 6620   7.053   9.018   7.885  0.0553  0.1639 -0.2581
 1243SOL    HW1 6621   6.984   8.986   7.826 -0.2468  1.9552 -0.9327
 1243SOL    HW2 6622   7.066   9.109   7.859 -0.7610  1.3533  3.1101
 1244SOL     OW 6623   0.298   0.188   2.599  0.0735 -0.0517 -0.3423
 1244SOL    HW1 6624   0.301   0.272   2.644 -0.3082  0.1108 -0.6062
 1244SOL    HW2 6625   0.346   0.203   2.517  0.5309 -0.2662 -0.1122
 1245SOL     OW 6626   2.588   3.714   4.642  0.2171  0.2772  0.4016
 1245SOL    HW1 6627   2.683   3.702   4.642  0.2009 -0.1706 -1.5886
 1245SOL    HW2 6628   2.570   3.769   4.719  2.4829  3.3531 -1.0863
 1246SOL     OW 6629   7.883   1.368   1.681 -0.3007  0.1645 -0.3886
 1246SOL    HW1 6630   7.976   1.347   1.681 -0.2906  0.1907  0.4239
 1246SOL    HW2 6631   7.847   1.319   1.755 -0.7380  0.9966 -0.0407
 1247SOL     OW 6632   3.407   1.059   6.787 -0.3083 -0.2264 -0.1209
 1247SOL    HW1 6633   3.414   1.155   6.792  0.3758 -0.2170 -1.0100
 1247SOL    HW2 6634   3.484   1.032   6.737 -0.2180 -1.2960  0.5827
 1248SOL     OW 6635   5.037   4.652   3.942 -0.2404 -0.0553 -0.4826
 1248SOL    HW1 6636   5.035   4.558   3.926 -0.7998  0.0208 -0.9008
 1248SOL    HW2 6637   5.006   4.691   3.860  0.5309  0.5204 -0.5101
 1249SOL     OW 6638   1.383   8.921   9.007  0.0522  0.0853  0.8179
 1249SOL    HW1 6639   1.354   8.898   9.096  1.8673  0.9229  1.6787
 1249SOL    HW2 6640   1.453   8.857   8.988 -1.0732 -0.8075 -0.4991
 1250SOL     OW 6641   4.664   5.056   9.440  0.1517  0.0484  0.2759
 1250SOL    HW1 6642   4.699   4.979   9.485  0.5913  1.4110  2.3678
 1250SOL    HW2 6643   4.694   5.131   9.491  0.4675  1.7324 -2.1647
 1251SOL     OW 6644   2.257   7.269   8.921 -0.0848 -0.0046  0.0981
 1251SOL    HW1 6645   2.245   7.332   8.849  1.7107  1.2505  0.8202
 1251SOL    HW2 6646   2.209   7.307   8.994  0.4490  0.2072  0.3457
 1252SOL     OW 6647   1.854   1.206   2.838  0.0254 -0.0106  0.1757
 1252SOL    HW1 6648   1.922   1.266   2.807  1.2087 -0.9144  0.9291
 1252SOL    HW2 6649   1.818   1.168   2.759  1.2924 -0.4541 -0.2131
 1253SOL     OW 6650   8.113   1.234   2.449 -0.4328 -0.6084 -0.0621
 1253SOL    HW1 6651   8.188   1.191   2.408 -0.6334 -0.0962 -1.0024
 1253SOL    HW2 6652   8.137   1.242   2.541  1.4168  1.1035 -0.6393
 1254SOL     OW 6653   2.305   3.946   0.408 -0.3439 -0.1404  0.3467
 1254SOL    HW1 6654   2.334   3.973   0.495 -1.5463  0.9092  0.4466
 1254SOL    HW2 6655   2.372   3.981   0.349  0.4690 -0.8435  0.8233
 1255SOL     OW 6656   5.064   8.768   6.560 -0.0700  0.0489  0.3792
 1255SOL    HW1 6657   4.989   8.798   6.508  0.0147 -2.4074 -1.3531
 1255SOL    HW2 6658   5.117   8.846   6.573 -1.7864  1.4096 -0.3254
 1256SOL     OW 6659   8.313   6.783   6.233 -0.2176  0.0965  0.5274
 1256SOL    HW1 6660   8.345   6.716   6.172  0.8998  1.2756 -0.2491
 1256SOL    HW2 6661   8.251   6.834   6.181 -0.4099  0.1793  0.8412
 1257SOL     OW 6662   5.007   2.501   6.644 -0.2369 -0.0757  0.3627
 1257SOL    HW1 6663   5.046   2.588   6.642  0.2538 -0.2775  0.9662
 1257SOL    HW2 6664   4.922   2.513   6.685 -0.3298  0.1756  0.0995
 1258SOL     OW 6665   3.683   4.066   4.728  0.1399  0.6474  0.3730
 1258SOL    HW1 6666   3.643   4.079   4.642 -0.1589 -3.1006 -0.2303
 1258SOL    HW2 6667   3.611   4.036   4.784  0.4327  2.5461  1.8558
 1259SOL     OW 6668   6.045   4.811   0.680  0.2376 -0.5916  0.2249
 1259SOL    HW1 6669   6.030   4.875   0.611 -0.7112 -0.5622  0.4413
 1259SOL    HW2 6670   6.116   4.756   0.648 -1.6009 -1.9465 -1.7358
 1260SOL     OW 6671   8.706   6.240   1.731 -0.2927 -0.2440 -0.1441
 1260SOL    HW1 6672   8.645   6.182   1.776  0.2012 -0.0033  0.8592
 1260SOL    HW2 6673   8.788   6.231   1.780  0.3568 -0.2255 -1.2028
 1261SOL     OW 6674   2.133   4.572   1.104  0.2921  0.7409 -0.7711
 1261SOL    HW1 6675   2.134   4.509   1.177  1.4826  1.2894 -0.2821
 1261SOL    HW2 6676   2.165   4.522   1.029  2.5122  1.0092 -0.1033
 1262SOL     OW 6677   1.177   6.407   1.907 -0.1650  0.3942  0.1703
 1262SOL    HW1 6678   1.085   6.378   1.903  0.0899 -0.6226  1.2306
 1262SOL    HW2 6679   1.224   6.333   1.945  0.7173  1.7754  1.8887
 1263SOL     OW 6680   5.046   9.162   8.802  0.0221 -0.4231 -0.5043
 1263SOL    HW1 6681   5.069   9.199   8.887  1.0545 -0.5329 -0.7322
 1263SOL    HW2 6682   5.106   9.089   8.790  1.7839  1.2549 -2.5458
 1264SOL     OW 6683   5.239   5.689   8.247  0.1201  0.5168  0.1353
 1264SOL    HW1 6684   5.316   5.730   8.208  1.7495 -1.1793  1.3902
 1264SOL    HW2 6685   5.185   5.664   8.172  1.9840 -0.4632 -0.9692
 1265SOL     OW 6686   2.563   6.229   0.448  0.1343 -0.2008  0.1239
 1265SOL    HW1 6687   2.639   6.251   0.394  0.6887  0.4763  1.1534
 1265SOL    HW2 6688   2.490   6.273   0.405  0.2478 -1.0833 -1.0368
 1266SOL     OW 6689   2.439   6.448   1.935  0.2248  0.0550  0.1825
 1266SOL    HW1 6690   2.451   6.394   2.014  0.0435 -1.6315 -0.9091
 1266SOL    HW2 6691   2.345   6.464   1.930  0.4170  2.1450  1.5067
 1267SOL     OW 6692   4.750   7.217   4.073 -0.3498  0.1118 -0.5909
 1267SOL    HW1 6693   4.736   7.174   3.989 -2.9708 -1.5337  0.5617
 1267SOL    HW2 6694   4.762   7.145   4.135  0.4055  1.2472  0.6411
 1268SOL     OW 6695   0.300   3.127   5.382  0.2888  0.1547 -0.2980
 1268SOL    HW1 6696   0.214   3.087   5.399  0.2994  0.8238  1.6544
 1268SOL    HW2 6697   0.283   3.194   5.316 -0.7532  0.3768  0.1677
 1269SOL     OW 6698   7.335   9.471   0.103  0.2554  0.3158 -0.1361
 1269SOL    HW1 6699   7.276   9.404   0.070 -0.3850  0.6553  0.2977
 1269SOL    HW2 6700   7.383   9.501   0.026 -0.2220  0.1106 -0.5159
 1270SOL     OW 6701   6.134   2.732   8.763 -0.0323  0.4212 -0.3739
 1270SOL    HW1 6702   6.171   2.798   8.821 -1.4920 -0.2556  1.4049
 1270SOL    HW2 6703   6.190   2.655   8.775 -1.2222 -0.2170  1.3933
 1271SOL     OW 6704   1.308   2.276   3.789 -0.1065 -0.5431  0.3590
 1271SOL    HW1 6705   1.388   2.294   3.839 -1.3353  0.8723  1.9355
 1271SOL    HW2 6706   1.273   2.362   3.767 -1.5265 -1.1079  0.2739
 1272SOL     OW 6707   5.720   0.746   0.591 -0.6480  0.6491  0.2788
 1272SOL    HW1 6708   5.757   0.667   0.631  2.0972  1.1063 -1.0950
 1272SOL    HW2 6709   5.655   0.713   0.528  0.5424 -0.5784 -0.3654
 1273SOL     OW 6710   7.707   8.172   6.454 -0.0448  0.6358 -0.6293
 1273SOL    HW1 6711   7.759   8.105   6.497  0.2622  1.1385 -0.2214
 1273SOL    HW2 6712   7.765   8.247   6.445 -0.2535  0.7153 -1.4693
 1274SOL     OW 6713   1.482   0.743   6.574 -0.7189  0.0117 -0.4730
 1274SOL    HW1 6714   1.448   0.829   6.547  0.5463  0.7073  0.0279
 1274SOL    HW2 6715   1.404   0.690   6.590 -1.5320  1.0892 -0.7391
 1275SOL     OW 6716   1.910   3.046   3.916 -0.2044  0.5136  0.0737
 1275SOL    HW1 6717   1.935   3.105   3.987 -0.6624  1.3997 -0.4944
 1275SOL    HW2 6718   1.993   3.020   3.876  0.1661 -1.0121  1.7077
 1276SOL     OW 6719   6.115   4.015   9.233  0.2042  0.2100  0.7358
 1276SOL    HW1 6720   6.207   4.039   9.240  0.2399 -0.0478  1.1902
 1276SOL    HW2 6721   6.099   3.958   9.309 -0.2884  0.1328  0.5786
 1277SOL     OW 6722   2.375   7.741   7.798 -0.0885 -0.0920 -0.2035
 1277SOL    HW1 6723   2.292   7.770   7.835 -0.9605 -0.9974 -1.3882
 1277SOL    HW2 6724   2.376   7.646   7.811  0.3235 -0.2126 -1.0148
 1278SOL     OW 6725   1.574   9.631   6.472  0.0710  0.1349 -0.3626
 1278SOL    HW1 6726   1.490   9.617   6.429  0.4449 -0.5262 -0.9196
 1278SOL    HW2 6727   1.556   9.691   6.544 -0.4374  1.9567 -1.9474
 1279SOL     OW 6728   5.617   2.331   9.466  0.4381 -0.0069  0.1362
 1279SOL    HW1 6729   5.627   2.371   9.553  0.9916  0.3089 -0.0715
 1279SOL    HW2 6730   5.669   2.252   9.470 -0.8659 -0.8832  0.6336
 1280SOL     OW 6731   7.644   2.423   4.827  0.2885  0.1084 -0.3817
 1280SOL    HW1 6732   7.634   2.504   4.876  0.5652 -0.2856  0.3305
 1280SOL    HW2 6733   7.574   2.427   4.760  0.6228  1.1554 -0.6875
 1281SOL     OW 6734   7.699   9.511   4.340 -0.4701 -0.3517 -0.4099
 1281SOL    HW1 6735   7.746   9.522   4.258  0.1730  0.1615  0.0130
 1281SOL    HW2 6736   7.650   9.430   4.329  0.4073 -0.8334 -0.9245
 1282SOL     OW 6737   1.416   7.146   2.778  0.1763 -0.6447  0.2487
 1282SOL    HW1 6738   1.487   7.187   2.728 -1.2006  0.8182 -0.6286
 1282SOL    HW2 6739   1.449   7.140   2.867  1.1118  0.7778  0.0291
 1283SOL     OW 6740   2.526   3.836   3.700 -0.5286  0.5004 -0.1039
 1283SOL    HW1 6741   2.503   3.928   3.684  0.2584  1.3078  2.7185
 1283SOL    HW2 6742   2.465   3.807   3.768  0.7271 -0.2625  0.7497
 1284SOL     OW 6743   6.439   0.437   8.768  0.0807  0.5105  0.6342
 1284SOL    HW1 6744   6.387   0.432   8.687 -0.5185 -0.4307  1.0630
 1284SOL    HW2 6745   6.432   0.529   8.795  2.3886  1.5052 -1.7118
 1285SOL     OW 6746   0.136   4.734   5.636 -0.8336 -0.2690  0.6481
 1285SOL    HW1 6747   0.058   4.787   5.653 -0.1898  0.6518  0.7920
 1285SOL    HW2 6748   0.206   4.798   5.621 -0.0305 -1.0748  0.8636
 1286SOL     OW 6749   2.278   6.333   2.710 -0.1896  0.0155 -0.4881
 1286SOL    HW1 6750   2.368   6.355   2.737 -1.4034  2.4027  2.1979
 1286SOL    HW2 6751   2.259   6.251   2.757 -0.2017  0.8789  1.0995
 1287SOL     OW 6752   2.576   3.255   4.112  0.3867  0.5634 -0.0902
 1287SOL    HW1 6753   2.515   3.278   4.042 -0.2901 -0.8384  0.0097
 1287SOL    HW2 6754   2.661   3.285   4.081  0.2089 -0.5967 -1.8222
 1288SOL     OW 6755   6.168   0.310   0.897  0.3585  0.6006  0.1256
 1288SOL    HW1 6756   6.213   0.392   0.917 -0.8498  1.0842  0.9628
 1288SOL    HW2 6757   6.182   0.255   0.974 -0.1371  0.6199  0.2381
 1289SOL     OW 6758   6.748   5.855   1.293  0.6676  0.6149  0.3958
 1289SOL    HW1 6759   6.802   5.830   1.367 -0.3731 -2.0871  0.3349
 1289SOL    HW2 6760   6.667   5.888   1.332  1.4330  2.5527  0.4481
 1290SOL     OW 6761   4.988   7.255   1.462 -0.7801 -0.0163  0.2640
 1290SOL    HW1 6762   4.987   7.219   1.373  1.2533  0.1877  0.1079
 1290SOL    HW2 6763   4.909   7.309   1.467 -1.2632 -0.5353 -1.1983
 1291SOL     OW 6764   9.511   4.909   8.390 -0.0362  0.0943 -0.2123
 1291SOL    HW1 6765   9.579   4.976   8.399 -1.2392  1.1119  2.1493
 1291SOL    HW2 6766   9.442   4.952   8.339  0.3215 -0.3268 -1.0680
 1292SOL     OW 6767   8.417   5.160   0.065 -0.3417  0.1205 -0.0067
 1292SOL    HW1 6768   8.352   5.092   0.045 -0.5195  0.0483  0.7947
 1292SOL    HW2 6769   8.471   5.165  -0.014 -1.2337  0.0825 -0.6367
 1293SOL     OW 6770   6.513   7.396   6.108 -0.2924 -0.2217  0.3049
 1293SOL    HW1 6771   6.601   7.361   6.122  0.0546 -0.2651 -1.6463
 1293SOL    HW2 6772   6.526   7.489   6.090 -0.6478 -0.2080  0.0934
 1294SOL     OW 6773   8.984   9.360   2.932  0.0696  0.2156  0.3123
 1294SOL    HW1 6774   9.036   9.281   2.928 -0.8425 -0.3947  0.2065
 1294SOL    HW2 6775   8.911   9.345   2.872 -1.9652 -0.2660  2.7101
 1295SOL     OW 6776   8.844   2.716   1.983 -0.5364  0.1664 -0.3026
 1295SOL    HW1 6777   8.894   2.670   2.050  0.0794  0.8046 -0.3094
 1295SOL    HW2 6778   8.850   2.660   1.906  0.7407  0.5341 -0.4960
 1296SOL     OW 6779   6.009   5.411   0.671 -0.1253  0.2310  1.3678
 1296SOL    HW1 6780   6.049   5.474   0.731 -1.0210  0.5370  1.6597
 1296SOL    HW2 6781   6.052   5.328   0.691  1.2157  0.7651  0.8423
 1297SOL     OW 6782   7.299   3.487   1.694  0.1838 -0.6221  0.3252
 1297SOL    HW1 6783   7.285   3.408   1.642  0.0294 -0.6233  0.3690
 1297SOL    HW2 6784   7.237   3.480   1.766 -1.0978  0.4042 -0.6341
 1298SOL     OW 6785   5.410   0.797   0.742 -0.4969 -0.0094 -0.6603
 1298SOL    HW1 6786   5.432   0.845   0.662 -0.7077 -0.9703 -1.3155
 1298SOL    HW2 6787   5.436   0.707   0.724 -0.8937 -0.3113  0.2163
 1299SOL     OW 6788   0.221   1.522   0.532 -0.5699  0.1567 -0.4023
 1299SOL    HW1 6789   0.207   1.520   0.438  1.8078 -1.7273 -0.8254
 1299SOL    HW2 6790   0.266   1.439   0.551  2.5042  2.0954  1.7269
 1300SOL     OW 6791   6.897   5.519   4.637  0.0116  0.0263  0.0022
 1300SOL    HW1 6792   6.930   5.478   4.557 -0.2626 -0.9513  0.3754
 1300SOL    HW2 6793   6.883   5.446   4.697 -0.9526  0.6249  0.5250
 1301SOL     OW 6794   0.586   8.068   4.180  0.2717 -0.7010 -0.1423
 1301SOL    HW1 6795   0.585   7.983   4.224 -1.5682 -0.4098  0.4671
 1301SOL    HW2 6796   0.495   8.097   4.182  0.8549  1.2875 -0.3491
 1302SOL     OW 6797   4.816   4.367   6.406 -0.4346 -0.8590 -0.1315
 1302SOL    HW1 6798   4.750   4.395   6.342 -0.4121 -1.0890 -0.2580
 1302SOL    HW2 6799   4.900   4.376   6.359 -0.3428 -0.1765  0.1679
 1303SOL     OW 6800   1.100   6.701   3.249 -0.0660 -0.1289 -0.0131
 1303SOL    HW1 6801   1.131   6.613   3.272 -0.7014 -0.4605 -0.3942
 1303SOL    HW2 6802   1.072   6.694   3.158 -1.4032  0.0951  0.3535
 1304SOL     OW 6803   5.466   7.157   0.485  0.1967  0.3383  0.3779
 1304SOL    HW1 6804   5.462   7.236   0.538  0.8761 -0.0586  1.0204
 1304SOL    HW2 6805   5.557   7.150   0.457  0.0731 -0.0376  0.0490
 1305SOL     OW 6806   8.415   3.889   3.037 -0.4297  0.0813 -0.2561
 1305SOL    HW1 6807   8.346   3.824   3.028 -1.2087  0.6395  1.3375
 1305SOL    HW2 6808   8.486   3.857   2.981 -1.6149 -0.9838 -1.1906
 1306SOL     OW 6809   7.455   9.133   6.622 -0.2055  0.1623  0.4910
 1306SOL    HW1 6810   7.434   9.088   6.703 -1.1300  1.8158  1.2358
 1306SOL    HW2 6811   7.397   9.094   6.556 -1.5953  0.7921  1.2969
 1307SOL     OW 6812   0.229   8.967   2.455  0.2909 -0.1460 -0.0402
 1307SOL    HW1 6813   0.282   8.896   2.419 -1.0314 -1.4331  0.4383
 1307SOL    HW2 6814   0.268   8.985   2.541  1.1402  0.3091 -0.5094
 1308SOL     OW 6815   2.842   4.702   5.366  0.3230 -0.5538 -0.8439
 1308SOL    HW1 6816   2.880   4.725   5.451  0.4452  1.7692 -1.4451
 1308SOL    HW2 6817   2.914   4.713   5.304 -0.2965 -0.0829 -1.4972
 1309SOL     OW 6818   4.138   0.595   8.313 -0.2845  0.1391 -0.1498
 1309SOL    HW1 6819   4.176   0.677   8.281 -0.5501  0.6306  0.7402
 1309SOL    HW2 6820   4.122   0.544   8.234  2.7717 -0.3792 -0.5824
 1310SOL     OW 6821   6.432   7.387   5.472 -0.1395  0.1565 -0.2118
 1310SOL    HW1 6822   6.498   7.371   5.539  0.3547  0.2275 -0.6657
 1310SOL    HW2 6823   6.355   7.338   5.501  0.2674 -0.3146  0.0909
 1311SOL     OW 6824   4.795   4.732   4.398  0.7729 -0.5587  0.3662
 1311SOL    HW1 6825   4.890   4.747   4.394  0.6828 -0.0406  0.0293
 1311SOL    HW2 6826   4.781   4.654   4.344  0.7894  0.4959 -1.2456
 1312SOL     OW 6827   2.149   4.945   7.250  0.0193  0.2376 -0.1080
 1312SOL    HW1 6828   2.096   4.940   7.170 -0.4785 -0.4050  0.2536
 1312SOL    HW2 6829   2.238   4.928   7.221 -0.0036  1.0145 -0.6781
 1313SOL     OW 6830   8.516   4.287   3.093 -0.0890 -0.2135 -0.0700
 1313SOL    HW1 6831   8.597   4.337   3.084  1.6479 -2.6823  0.7832
 1313SOL    HW2 6832   8.469   4.302   3.011  1.3388  1.0495 -0.7025
 1314SOL     OW 6833   9.166   1.984   9.245 -0.3809  0.4931 -0.1545
 1314SOL    HW1 6834   9.186   1.891   9.256 -0.3515  0.3551 -1.2506
 1314SOL    HW2 6835   9.071   1.987   9.233 -0.2125  0.3899 -1.8277
 1315SOL     OW 6836   4.595   8.992   6.441  0.0015  0.2165  0.9087
 1315SOL    HW1 6837   4.522   8.950   6.486  0.1530  0.8453  1.7562
 1315SOL    HW2 6838   4.589   9.085   6.464  0.3276  0.4910 -0.0385
 1316SOL     OW 6839   3.558   1.004   8.296 -0.2196 -0.3787 -0.0589
 1316SOL    HW1 6840   3.624   1.005   8.227  0.1525 -0.6538  0.2897
 1316SOL    HW2 6841   3.498   0.934   8.271  0.1513 -0.7622  0.1100
 1317SOL     OW 6842   7.580   3.539   1.646  0.1686  0.2001 -0.1805
 1317SOL    HW1 6843   7.512   3.480   1.676 -0.4964  0.6875 -0.6983
 1317SOL    HW2 6844   7.660   3.508   1.688 -0.4034 -0.2781  0.5627
 1318SOL     OW 6845   3.130   7.446   0.866  0.0621 -0.3133  0.3548
 1318SOL    HW1 6846   3.124   7.502   0.944  0.3530 -0.2220  0.3142
 1318SOL    HW2 6847   3.156   7.506   0.796 -1.9056 -0.0408 -0.2117
 1319SOL     OW 6848   2.771   3.665   0.269 -0.3272 -0.3777 -0.4290
 1319SOL    HW1 6849   2.752   3.752   0.305  0.5679 -1.2655  2.4401
 1319SOL    HW2 6850   2.685   3.623   0.263 -0.8045  0.7142 -2.1044
 1320SOL     OW 6851   2.144   2.454   8.502 -0.1668 -0.0511  0.0821
 1320SOL    HW1 6852   2.135   2.365   8.538 -1.6427  0.3179  0.7210
 1320SOL    HW2 6853   2.054   2.480   8.482  0.1973  1.4966  0.3865
 1321SOL     OW 6854   7.154   4.999   2.607 -0.1126  0.4638 -0.3973
 1321SOL    HW1 6855   7.081   4.941   2.625  0.5707 -0.6309 -1.0382
 1321SOL    HW2 6856   7.143   5.024   2.515 -0.8939  2.0992  0.1050
 1322SOL     OW 6857   1.633   0.525   1.716 -0.0676  0.1917 -0.5993
 1322SOL    HW1 6858   1.568   0.576   1.764 -0.5354 -1.1476  0.2681
 1322SOL    HW2 6859   1.717   0.564   1.738 -0.5577  2.3393 -2.2121
 1323SOL     OW 6860   4.403   3.673   8.391 -0.0611  0.0618  0.1070
 1323SOL    HW1 6861   4.395   3.578   8.403  1.0039  0.2238  3.1436
 1323SOL    HW2 6862   4.335   3.710   8.447 -0.9187  1.1471 -1.5856
 1324SOL     OW 6863   7.427   4.863   0.277 -0.6381 -0.3793 -0.0071
 1324SOL    HW1 6864   7.413   4.907   0.194 -1.4824 -0.2872  0.1737
 1324SOL    HW2 6865   7.363   4.791   0.277 -1.8982  0.6663  1.2814
 1325SOL     OW 6866   6.168   7.530   1.637  0.3934 -0.0256  0.1636
 1325SOL    HW1 6867   6.141   7.451   1.685  1.5398 -0.6526 -0.1940
 1325SOL    HW2 6868   6.264   7.528   1.640  0.4513  0.7978 -0.7534
 1326SOL     OW 6869   1.241   0.184   7.710  0.2133 -0.7527 -0.0255
 1326SOL    HW1 6870   1.190   0.217   7.784 -1.8789 -2.4070 -0.6295
 1326SOL    HW2 6871   1.180   0.183   7.637  1.8851 -0.3412 -1.5095
 1327SOL     OW 6872   2.966   5.093   5.925 -0.2366 -0.6258 -0.5687
 1327SOL    HW1 6873   2.898   5.158   5.905  0.2921  0.4875  1.0253
 1327SOL    HW2 6874   2.954   5.025   5.859 -1.1244  0.8567 -2.0309
 1328SOL     OW 6875   1.866   1.998   6.875 -0.1490 -0.2385 -0.2050
 1328SOL    HW1 6876   1.869   2.086   6.838 -0.8004 -0.1757 -0.1099
 1328SOL    HW2 6877   1.931   1.949   6.825 -0.5129  0.0267 -0.9540
 1329SOL     OW 6878   5.559   7.771   0.001  0.2775  0.0485 -0.1211
 1329SOL    HW1 6879   5.560   7.690   0.052 -0.1017  0.4498  0.5503
 1329SOL    HW2 6880   5.502   7.752  -0.073  2.0588 -1.0406 -1.2737
 1330SOL     OW 6881   9.011   3.216   4.630 -0.1303  0.1369  0.0239
 1330SOL    HW1 6882   8.931   3.219   4.579 -0.3552  1.0560  0.4213
 1330SOL    HW2 6883   9.078   3.187   4.568 -0.5911  0.2365 -0.5296
 1331SOL     OW 6884   0.998   3.334   5.913 -0.3030 -0.2885  0.0417
 1331SOL    HW1 6885   1.007   3.311   6.006  0.0629  0.4689  0.1981
 1331SOL    HW2 6886   1.015   3.428   5.910  0.1644 -0.3974 -0.8677
 1332SOL     OW 6887   7.634   4.314   0.780  0.0708 -0.1371  0.1357
 1332SOL    HW1 6888   7.602   4.263   0.854 -1.3510  2.1650  1.2184
 1332SOL    HW2 6889   7.723   4.341   0.806 -0.5698  0.9991  1.2333
 1333SOL     OW 6890   6.049   3.086   2.576 -0.0500  0.1120 -0.4866
 1333SOL    HW1 6891   6.095   3.002   2.580 -1.3183 -0.5732  0.3745
 1333SOL    HW2 6892   5.995   3.080   2.498 -1.3109 -0.5244  0.4105
 1334SOL     OW 6893   3.950   4.224   8.728 -0.2487  0.5380  0.8384
 1334SOL    HW1 6894   3.884   4.167   8.768 -0.8987 -0.5644 -1.6300
 1334SOL    HW2 6895   4.027   4.168   8.718  0.9218  1.6204  3.0470
 1335SOL     OW 6896   3.770   6.462   7.185  0.1560 -0.4426  0.1068
 1335SOL    HW1 6897   3.690   6.440   7.137  1.0105  0.7542 -2.0085
 1335SOL    HW2 6898   3.841   6.425   7.132  1.1166  0.2325  0.8719
 1336SOL     OW 6899   8.457   3.421   0.699  0.0187 -0.0199 -0.4555
 1336SOL    HW1 6900   8.408   3.372   0.764  1.3328  0.6779  1.1558
 1336SOL    HW2 6901   8.496   3.354   0.642 -0.0485 -0.7359  0.3221
 1337SOL     OW 6902   7.142   5.521   2.026 -0.5783 -0.2520  0.7219
 1337SOL    HW1 6903   7.052   5.490   2.022 -0.1843 -1.7662  2.3344
 1337SOL    HW2 6904   7.149   5.564   2.111 -0.5494  2.6777 -0.6263
 1338SOL     OW 6905   5.376   2.783   7.369 -0.2079  0.1545 -0.2700
 1338SOL    HW1 6906   5.305   2.760   7.429  0.3124  1.6457  1.0126
 1338SOL    HW2 6907   5.405   2.700   7.332 -1.5616 -0.6422  0.4062
 1339SOL     OW 6908   9.148   0.480   8.602  0.1618  1.0143  0.1063
 1339SOL    HW1 6909   9.186   0.568   8.611  1.0805  0.8569 -1.8301
 1339SOL    HW2 6910   9.220   0.421   8.624  0.0947  0.7401 -0.4075
 1340SOL     OW 6911   3.061   6.682   1.699  0.5928 -0.7662  0.1051
 1340SOL    HW1 6912   3.019   6.750   1.647 -1.1883  0.8265  3.2845
 1340SOL    HW2 6913   3.140   6.723   1.734  0.1197 -0.6726  1.1075
 1341SOL     OW 6914   5.104   2.364   9.349 -0.9087 -0.5374 -0.0301
 1341SOL    HW1 6915   5.034   2.424   9.374  0.0313  0.0965  1.2148
 1341SOL    HW2 6916   5.104   2.365   9.253 -0.6395  1.8031 -0.0619
 1342SOL     OW 6917   4.831   5.005   6.396  0.3809 -0.1766  0.0602
 1342SOL    HW1 6918   4.851   5.051   6.314 -0.9926 -0.0681 -0.2358
 1342SOL    HW2 6919   4.910   4.955   6.415  0.6441 -0.3879 -1.4606
 1343SOL     OW 6920   2.993   6.867   5.152 -0.0205  0.0392 -0.7238
 1343SOL    HW1 6921   2.925   6.863   5.085  0.0523 -0.0114 -0.7954
 1343SOL    HW2 6922   2.963   6.935   5.212  0.0955  0.3520 -1.0120
 1344SOL     OW 6923   7.300   0.812   9.226  0.1968  0.4156 -0.7663
 1344SOL    HW1 6924   7.382   0.772   9.197  0.3227 -0.8827  1.1618
 1344SOL    HW2 6925   7.301   0.900   9.187  1.9166  0.0112 -1.7578
 1345SOL     OW 6926   0.627   9.078   3.657 -0.1681 -0.4554 -0.4914
 1345SOL    HW1 6927   0.631   8.985   3.677 -0.4371 -0.2494  0.5611
 1345SOL    HW2 6928   0.598   9.119   3.738  0.3379  0.5951 -0.8242
 1346SOL     OW 6929   7.934   3.956   8.558 -0.4656 -0.5840 -0.2055
 1346SOL    HW1 6930   7.999   3.905   8.607  1.6715  1.8489 -0.3255
 1346SOL    HW2 6931   7.866   3.892   8.536  1.2273 -2.9859  1.0455
 1347SOL     OW 6932   3.916   2.273   0.541 -0.4101  0.0273 -0.6226
 1347SOL    HW1 6933   3.923   2.278   0.446  2.3981 -1.2290 -0.5856
 1347SOL    HW2 6934   3.914   2.364   0.570 -1.1616  0.4252 -1.8653
 1348SOL     OW 6935   7.640   5.716   3.581  0.2404  1.0054 -0.4736
 1348SOL    HW1 6936   7.702   5.694   3.651 -0.0557  0.4883 -0.3673
 1348SOL    HW2 6937   7.687   5.698   3.500 -0.6482 -2.0280 -0.4032
 1349SOL     OW 6938   7.810   4.171   6.563 -0.1498  0.4428  0.1305
 1349SOL    HW1 6939   7.894   4.151   6.604 -0.4693 -0.5447  0.3484
 1349SOL    HW2 6940   7.824   4.254   6.518  1.3773 -0.4442 -1.1068
 1350SOL     OW 6941   4.719   0.399   2.850  0.0558  0.3106  0.3032
 1350SOL    HW1 6942   4.788   0.447   2.896  0.2369  0.4911 -0.1564
 1350SOL    HW2 6943   4.642   0.409   2.907  0.5677 -0.4626  1.1510
 1351SOL     OW 6944   7.713   5.545   3.024  0.1191 -0.6073 -0.3432
 1351SOL    HW1 6945   7.806   5.532   3.042  0.0294 -1.2088 -0.3185
 1351SOL    HW2 6946   7.669   5.524   3.106 -0.0693 -0.6962 -0.4665
 1352SOL     OW 6947   5.356   7.000   3.506  0.3143  0.4806 -0.4332
 1352SOL    HW1 6948   5.311   7.084   3.505  0.4968  0.5969  0.3320
 1352SOL    HW2 6949   5.309   6.947   3.441 -1.7882  0.1710  1.2039
 1353SOL     OW 6950   0.725   1.394   8.960  0.6009  0.0281 -0.2169
 1353SOL    HW1 6951   0.655   1.449   8.996  0.3328  0.0592 -0.7821
 1353SOL    HW2 6952   0.684   1.308   8.948  0.1599  0.4814 -2.1645
 1354SOL     OW 6953   3.868   9.215   4.698 -0.1721  0.0294 -0.3094
 1354SOL    HW1 6954   3.949   9.227   4.747 -0.1017  0.3527 -0.5013
 1354SOL    HW2 6955   3.823   9.299   4.705 -0.8371 -0.3710  0.4077
 1355SOL     OW 6956   6.727   2.896   7.650 -0.5693 -0.2423  0.2172
 1355SOL    HW1 6957   6.815   2.911   7.686  0.2518 -0.1377 -1.7122
 1355SOL    HW2 6958   6.684   2.981   7.655  0.5229  0.4621 -1.5079
 1356SOL     OW 6959   7.168   8.108   4.341  0.1201 -0.5236 -0.7192
 1356SOL    HW1 6960   7.137   8.108   4.251  1.1527  0.4400 -1.1082
 1356SOL    HW2 6961   7.262   8.090   4.334  0.3365  0.1890  0.1007
 1357SOL     OW 6962   2.943   9.013   3.545 -0.2635 -0.4234  0.1687
 1357SOL    HW1 6963   2.970   8.923   3.565  0.5526 -0.2356 -0.0192
 1357SOL    HW2 6964   3.009   9.043   3.481 -0.5511  0.2910  0.2032
 1358SOL     OW 6965   5.518   7.645   8.957  0.2019  0.0548 -0.0229
 1358SOL    HW1 6966   5.516   7.732   8.919  1.0254  0.5645  1.0417
 1358SOL    HW2 6967   5.427   7.617   8.961  0.0348  0.3283 -1.5476
 1359SOL     OW 6968   1.825   6.751   2.288 -0.3989  0.2987  0.2195
 1359SOL    HW1 6969   1.914   6.785   2.279  0.1380 -1.1803 -0.2880
 1359SOL    HW2 6970   1.822   6.674   2.231 -1.5987 -0.4474  1.2256
 1360SOL     OW 6971   9.222   5.910   1.282 -0.6635 -0.0852  0.1133
 1360SOL    HW1 6972   9.314   5.883   1.273 -0.6420  0.1532 -0.4208
 1360SOL    HW2 6973   9.189   5.913   1.193 -1.3550 -0.6931  0.3416
 1361SOL     OW 6974   2.068   0.768   1.973 -0.3627  0.0685 -0.1180
 1361SOL    HW1 6975   2.053   0.822   2.050 -1.4433 -0.5223  0.1173
 1361SOL    HW2 6976   2.156   0.790   1.944  0.2739 -0.0979  1.6022
 1362SOL     OW 6977   8.659   3.908   0.072 -0.0157  0.3153 -0.3391
 1362SOL    HW1 6978   8.596   3.960   0.023 -1.5930 -1.2531 -0.0864
 1362SOL    HW2 6979   8.645   3.933   0.164 -0.9201 -0.6657 -0.1977
 1363SOL     OW 6980   2.759   3.967   9.291  0.1719 -0.0740 -0.6603
 1363SOL    HW1 6981   2.685   3.906   9.286  0.4465 -0.4480 -0.2572
 1363SOL    HW2 6982   2.815   3.944   9.218  0.7460 -0.9447  0.0300
 1364SOL     OW 6983   2.149   0.062   8.192  0.1006  0.1603 -0.4485
 1364SOL    HW1 6984   2.118   0.151   8.177  1.9297  0.5191 -2.7305
 1364SOL    HW2 6985   2.232   0.074   8.239 -0.3178 -0.4223  0.4435
 1365SOL     OW 6986   9.344   2.027   5.337 -0.3668 -0.1311  0.3124
 1365SOL    HW1 6987   9.389   1.943   5.340  1.6806  0.8593 -0.5059
 1365SOL    HW2 6988   9.276   2.021   5.404  0.3898 -2.0439  0.9661
 1366SOL     OW 6989   8.721   0.371   4.388  0.4301 -0.0338  0.4367
 1366SOL    HW1 6990   8.664   0.314   4.337  1.4208 -0.3230 -0.3584
 1366SOL    HW2 6991   8.688   0.363   4.478  0.0967 -1.2913  0.2204
 1367SOL     OW 6992   0.662   4.829   4.302 -0.1933  0.2401  0.0266
 1367SOL    HW1 6993   0.719   4.862   4.372 -0.2760  2.1528 -0.7501
 1367SOL    HW2 6994   0.696   4.742   4.283  0.1475 -0.1400  2.0849
 1368SOL     OW 6995   5.771   7.317   7.006 -0.1349 -0.2271 -0.2175
 1368SOL    HW1 6996   5.867   7.313   7.017 -0.1465 -0.6687 -0.2394
 1368SOL    HW2 6997   5.755   7.400   6.962  0.2780 -0.3306 -0.5750
 1369SOL     OW 6998   1.812   3.336   4.526 -0.2095  0.5038 -0.1294
 1369SOL    HW1 6999   1.748   3.332   4.456 -0.5335  0.4676  0.1658
 1369SOL    HW2 7000   1.856   3.251   4.524 -0.2076  0.5102 -0.2997
 1370SOL     OW 7001   1.808   7.968   8.594 -0.7426  0.2174 -0.0590
 1370SOL    HW1 7002   1.803   8.063   8.590 -2.0104  0.1611 -0.2091
 1370SOL    HW2 7003   1.816   7.940   8.503 -1.3919  0.1460 -0.0995
 1371SOL     OW 7004   8.072   6.686   2.297  0.3284  0.7142 -0.1030
 1371SOL    HW1 7005   8.020   6.637   2.361 -1.2124  2.6122  0.1755
 1371SOL    HW2 7006   8.019   6.687   2.218  1.2503  0.2549 -0.7459
 1372SOL     OW 7007   3.031   7.193   1.831 -0.0500  0.2195 -0.1882
 1372SOL    HW1 7008   3.020   7.280   1.867  0.5248  0.9360 -1.6578
 1372SOL    HW2 7009   3.109   7.199   1.776 -0.3947 -1.0264 -0.8653
 1373SOL     OW 7010   7.977   9.558   5.048  0.1074  0.7456  0.0681
 1373SOL    HW1 7011   7.972   9.515   4.962  0.9341  1.0636 -0.1424
 1373SOL    HW2 7012   8.003   9.488   5.108  1.9916  1.0348 -0.3637
 1374SOL     OW 7013   2.457   1.528   0.944  0.2019 -0.2222 -0.4113
 1374SOL    HW1 7014   2.479   1.612   0.905  1.6434 -1.2001 -1.8370
 1374SOL    HW2 7015   2.369   1.508   0.911 -0.1330  0.6861 -0.0919
 1375SOL     OW 7016   8.875   8.501   8.140  0.3019 -0.3409 -0.5640
 1375SOL    HW1 7017   8.928   8.478   8.217 -1.2074 -1.0806  0.2980
 1375SOL    HW2 7018   8.851   8.592   8.154 -1.6221 -1.0020  0.9378
 1376SOL     OW 7019   2.587   1.918   8.632 -0.4235 -0.3713  0.1040
 1376SOL    HW1 7020   2.666   1.884   8.590 -0.8854 -1.4728  0.0891
 1376SOL    HW2 7021   2.619   1.963   8.711  0.3305  0.5413 -0.6977
 1377SOL     OW 7022   9.245   0.104   5.251 -0.1810  0.3831  0.1545
 1377SOL    HW1 7023   9.158   0.144   5.264  0.2767  1.2232  0.7515
 1377SOL    HW2 7024   9.236   0.054   5.170 -1.4355 -0.1561  0.5876
 1378SOL     OW 7025   2.338   3.029   0.918 -0.0392 -0.5288  0.6990
 1378SOL    HW1 7026   2.247   3.012   0.941 -0.4031  0.9396  0.4414
 1378SOL    HW2 7027   2.355   3.117   0.951  0.3202  0.4899 -1.9667
 1379SOL     OW 7028   9.032   5.279   6.379  0.9490 -0.0009  0.1279
 1379SOL    HW1 7029   9.062   5.196   6.414  0.9250 -0.6438 -1.3436
 1379SOL    HW2 7030   8.997   5.259   6.293 -3.4137  0.7004  1.4676
 1380SOL     OW 7031   5.427   3.692   9.210  0.0872  0.0380  0.2803
 1380SOL    HW1 7032   5.482   3.694   9.289  0.7767 -0.5578 -0.1684
 1380SOL    HW2 7033   5.470   3.629   9.153 -0.9280 -0.2334 -0.2045
 1381SOL     OW 7034   3.369   2.501   4.491 -0.2239 -0.5579  0.2838
 1381SOL    HW1 7035   3.318   2.555   4.552  1.4457  0.1242  1.1354
 1381SOL    HW2 7036   3.392   2.560   4.420  1.6402 -0.0739  1.2373
 1382SOL     OW 7037   7.242   5.419   5.047 -0.0823  0.7677 -0.0222
 1382SOL    HW1 7038   7.170   5.360   5.069 -0.7997  1.4088 -0.6065
 1382SOL    HW2 7039   7.310   5.361   5.011 -0.6437  0.2537 -0.2759
 1383SOL     OW 7040   3.913   4.310   6.862 -0.3976  0.3193 -0.0183
 1383SOL    HW1 7041   3.862   4.299   6.782 -0.3987 -0.9783  0.1451
 1383SOL    HW2 7042   3.942   4.402   6.859  0.1211  0.1439 -1.8113
 1384SOL     OW 7043   7.935   0.440   8.803 -0.5704 -0.6284  0.0011
 1384SOL    HW1 7044   8.018   0.417   8.847 -0.4588 -1.4409 -0.6150
 1384SOL    HW2 7045   7.957   0.440   8.710 -1.1572 -0.3541 -0.1381
 1385SOL     OW 7046   4.936   0.656   4.335 -0.0093  0.2021 -0.3371
 1385SOL    HW1 7047   4.873   0.585   4.324  1.7075 -1.5902  0.5855
 1385SOL    HW2 7048   4.979   0.663   4.250 -2.8475  3.0562 -1.7479
 1386SOL     OW 7049   0.104   9.333   6.128 -0.5549 -0.3930  0.0824
 1386SOL    HW1 7050   0.124   9.341   6.035  0.1397 -0.2184  0.2408
 1386SOL    HW2 7051   0.090   9.240   6.141  0.8693 -0.6366  0.0850
 1387SOL     OW 7052   1.318   6.959   1.352 -0.1578 -0.2998  0.0366
 1387SOL    HW1 7053   1.325   6.866   1.375 -0.7351 -0.8296 -1.7511
 1387SOL    HW2 7054   1.387   7.001   1.402 -0.0756 -1.6349  1.1275
 1388SOL     OW 7055   5.645   9.504   4.931  0.4950  0.0455  0.1172
 1388SOL    HW1 7056   5.664   9.413   4.952 -0.4593 -0.0872  0.4679
 1388SOL    HW2 7057   5.564   9.523   4.979 -0.3856  0.4800 -1.4744
 1389SOL     OW 7058   6.785   0.570   6.720 -0.0570  0.3751  0.1486
 1389SOL    HW1 7059   6.852   0.615   6.771 -2.1971  0.1811  3.4264
 1389SOL    HW2 7060   6.715   0.552   6.783 -2.2023 -1.5118 -2.5383
 1390SOL     OW 7061   7.520   5.996   5.984 -0.1872 -0.4970  0.2406
 1390SOL    HW1 7062   7.499   6.050   5.908  0.0230  0.4056  0.8048
 1390SOL    HW2 7063   7.605   6.029   6.013 -0.5766 -0.3708  1.2682
 1391SOL     OW 7064   7.510   0.894   4.613  0.0615 -0.5082 -0.0477
 1391SOL    HW1 7065   7.549   0.808   4.594  0.4581 -0.2411 -0.4717
 1391SOL    HW2 7066   7.475   0.886   4.701 -0.6891 -1.3944 -0.4030
 1392SOL     OW 7067   4.627   1.592   7.300 -0.2528  0.0247  0.2465
 1392SOL    HW1 7068   4.544   1.582   7.255  0.7418  1.8518 -2.2299
 1392SOL    HW2 7069   4.646   1.686   7.296  1.6262 -0.2431  1.3019
 1393SOL     OW 7070   4.771   2.617   8.607  0.3848 -0.7203  0.2760
 1393SOL    HW1 7071   4.733   2.622   8.695  2.4620 -0.3443  1.2222
 1393SOL    HW2 7072   4.805   2.706   8.591 -0.5100 -0.6152 -1.1953
 1394SOL     OW 7073   2.906   9.239   9.053 -0.1706 -0.6310  0.2866
 1394SOL    HW1 7074   2.863   9.155   9.042 -1.1542 -0.1927  0.6220
 1394SOL    HW2 7075   2.978   9.221   9.114 -1.6483 -0.8624  2.0651
 1395SOL     OW 7076   2.415   3.873   3.982 -0.2152  0.0830 -0.6600
 1395SOL    HW1 7077   2.339   3.931   3.987  1.2730  2.1110  0.2967
 1395SOL    HW2 7078   2.423   3.836   4.070 -0.3582 -0.5159 -0.8935
 1396SOL     OW 7079   0.708   6.798   1.015 -0.2262  0.4254 -0.2265
 1396SOL    HW1 7080   0.762   6.872   1.044  0.3416 -0.4127  0.9480
 1396SOL    HW2 7081   0.664   6.769   1.095  1.4233 -2.0286 -0.0940
 1397SOL     OW 7082   7.101   2.524   0.902  0.0132  0.1236 -0.0227
 1397SOL    HW1 7083   7.090   2.595   0.965  0.1387 -0.1809  0.3456
 1397SOL    HW2 7084   7.195   2.504   0.905  0.0660  0.2825 -0.4997
 1398SOL     OW 7085   7.760   5.256   8.964 -0.3467 -0.2749 -0.0167
 1398SOL    HW1 7086   7.795   5.172   8.994  1.6317  1.2120  2.1581
 1398SOL    HW2 7087   7.824   5.321   8.993 -2.2798  2.1180 -0.7560
 1399SOL     OW 7088   9.535   4.988   1.650 -0.5271 -0.2666  0.3408
 1399SOL    HW1 7089   9.485   4.913   1.681 -0.2047 -0.1932  1.0558
 1399SOL    HW2 7090   9.486   5.064   1.683 -0.9138 -0.1492 -0.4708
 1400SOL     OW 7091   6.150   4.869   2.217 -0.0096 -0.9218 -0.1153
 1400SOL    HW1 7092   6.240   4.842   2.201 -0.0785 -1.0793 -0.2455
 1400SOL    HW2 7093   6.141   4.952   2.171 -0.0902 -1.1782 -0.5743
 1401SOL     OW 7094   7.812   4.822   3.784  0.2115  0.2694  0.1568
 1401SOL    HW1 7095   7.722   4.794   3.771  0.0396  1.1169 -0.6292
 1401SOL    HW2 7096   7.834   4.795   3.873 -0.9123  0.3219  0.4557
 1402SOL     OW 7097   5.961   9.239   6.420  0.0655  0.2360  0.1562
 1402SOL    HW1 7098   6.028   9.214   6.484 -0.7876 -1.5107  0.4381
 1402SOL    HW2 7099   5.882   9.253   6.473 -0.5983 -1.0306 -0.4466
 1403SOL     OW 7100   3.881   0.298   5.139 -0.5155 -0.0153 -0.5990
 1403SOL    HW1 7101   3.912   0.388   5.140 -2.3750  0.6681 -0.2849
 1403SOL    HW2 7102   3.785   0.305   5.137 -0.7238 -1.9809 -0.1110
 1404SOL     OW 7103   4.397   7.650   8.561  0.1244  0.2917  0.3645
 1404SOL    HW1 7104   4.434   7.568   8.530  0.8319  1.0222 -0.7939
 1404SOL    HW2 7105   4.388   7.638   8.656  0.1783 -1.1209  0.2103
 1405SOL     OW 7106   8.774   8.497   1.255 -0.1817 -0.3032  0.0771
 1405SOL    HW1 7107   8.689   8.538   1.274  0.7713  1.3578  1.0134
 1405SOL    HW2 7108   8.756   8.437   1.183 -1.7483  1.5308 -1.1543
 1406SOL     OW 7109   9.168   4.077   4.408 -0.5072  0.1060 -0.0827
 1406SOL    HW1 7110   9.226   4.133   4.358  0.2024 -0.4505  0.0945
 1406SOL    HW2 7111   9.148   4.005   4.348  1.9350 -1.6146  0.9894
 1407SOL     OW 7112   2.097   3.401   4.674  0.1582 -0.0340 -0.0634
 1407SOL    HW1 7113   2.092   3.452   4.754  0.3312 -0.7947  0.4427
 1407SOL    HW2 7114   2.051   3.454   4.608  1.2591  1.2567  0.1780
 1408SOL     OW 7115   5.091   4.774   2.431 -0.3255  0.6328 -0.1042
 1408SOL    HW1 7116   5.029   4.820   2.375  0.3742 -1.0339 -2.4217
 1408SOL    HW2 7117   5.164   4.835   2.442 -0.9474  1.3838 -0.0813
 1409SOL     OW 7118   7.198   6.710   5.608 -0.0447 -0.4317 -0.3372
 1409SOL    HW1 7119   7.280   6.743   5.643  0.4712  0.6456 -2.4163
 1409SOL    HW2 7120   7.213   6.616   5.596  1.1974 -0.1164 -1.4477
 1410SOL     OW 7121   3.806   5.946   1.986 -0.5827  0.4195 -0.0901
 1410SOL    HW1 7122   3.772   6.034   2.003  1.1914  1.3587 -1.0509
 1410SOL    HW2 7123   3.775   5.925   1.899  0.0826  0.6988 -0.4081
 1411SOL     OW 7124   1.689   8.911   4.142  0.1840 -0.4461 -0.2199
 1411SOL    HW1 7125   1.627   8.953   4.202 -0.0591 -1.4574  0.2551
 1411SOL    HW2 7126   1.635   8.852   4.089  0.6823 -1.1215  0.0054
 1412SOL     OW 7127   1.204   7.045   6.378  0.5007 -0.2651 -0.0748
 1412SOL    HW1 7128   1.241   7.046   6.290  1.7540  0.2258  0.4235
 1412SOL    HW2 7129   1.110   7.058   6.366  0.9664  3.1621 -1.2121
 1413SOL     OW 7130   4.848   2.953   9.049 -0.0139  0.1705 -0.4843
 1413SOL    HW1 7131   4.832   2.877   9.106  0.0582  1.9398  2.0434
 1413SOL    HW2 7132   4.760   2.982   9.023 -0.0500 -0.5348 -1.2365
 1414SOL     OW 7133   1.132   8.059   7.410  0.0578 -0.0363 -0.2075
 1414SOL    HW1 7134   1.048   8.017   7.431  0.7456 -0.9239  0.8747
 1414SOL    HW2 7135   1.164   8.091   7.494  0.1531  1.5805 -0.8312
 1415SOL     OW 7136   2.703   4.110   1.623  0.2073  0.8394 -0.2207
 1415SOL    HW1 7137   2.766   4.055   1.669 -0.0356  0.4713 -0.3235
 1415SOL    HW2 7138   2.619   4.090   1.664  0.2564  1.8605  0.4087
 1416SOL     OW 7139   0.928   1.193   5.704  0.3717  0.1329  0.4457
 1416SOL    HW1 7140   1.009   1.141   5.705  0.4252  0.1333 -1.3941
 1416SOL    HW2 7141   0.861   1.133   5.673 -0.0261  0.5623  0.4694
 1417SOL     OW 7142   6.766   5.413   5.517 -0.1328 -0.0781 -0.7315
 1417SOL    HW1 7143   6.862   5.405   5.514 -0.0737  0.7813 -1.6838
 1417SOL    HW2 7144   6.740   5.363   5.595  1.2623  1.3445  0.7075
 1418SOL     OW 7145   3.676   6.985   3.179  0.4559  0.0027 -0.3958
 1418SOL    HW1 7146   3.629   7.054   3.132  0.1980  1.9057  2.4280
 1418SOL    HW2 7147   3.619   6.908   3.172 -0.8755  0.9928 -0.8649
 1419SOL     OW 7148   5.473   5.524   7.122 -0.3936  0.4025 -0.3682
 1419SOL    HW1 7149   5.548   5.470   7.095 -0.5732 -0.6036  1.0670
 1419SOL    HW2 7150   5.464   5.508   7.216 -3.0731 -0.3414 -0.6621
 1420SOL     OW 7151   6.424   2.838   6.753  0.1501 -0.1414  0.1305
 1420SOL    HW1 7152   6.348   2.887   6.783 -0.2358  0.9214 -2.3579
 1420SOL    HW2 7153   6.499   2.886   6.789 -0.2958  0.8985 -0.2852
 1421SOL     OW 7154   6.693   8.320   3.279  0.3333 -0.0383 -0.3563
 1421SOL    HW1 7155   6.750   8.396   3.291 -0.7498  0.7787 -0.2762
 1421SOL    HW2 7156   6.608   8.357   3.257 -0.4812 -1.2032  0.7474
 1422SOL     OW 7157   9.123   3.144   2.407  0.4241  0.1819  0.0826
 1422SOL    HW1 7158   9.071   3.211   2.452  1.1672  1.4024 -0.8108
 1422SOL    HW2 7159   9.057   3.088   2.364 -0.2286 -0.1333  1.4289
 1423SOL     OW 7160   4.603   8.002   2.789 -0.0109  0.7413  0.5028
 1423SOL    HW1 7161   4.548   7.985   2.713 -1.3588  0.1393  1.5664
 1423SOL    HW2 7162   4.690   8.019   2.753 -0.0054 -2.0345 -1.0494
 1424SOL     OW 7163   1.138   8.838   3.398 -0.4657 -0.1864 -0.3807
 1424SOL    HW1 7164   1.062   8.780   3.408 -0.8382  0.4968  1.1472
 1424SOL    HW2 7165   1.146   8.881   3.484  2.1452 -0.8404 -0.2287
 1425SOL     OW 7166   1.925   6.452   1.488  0.0380 -0.3713 -0.2397
 1425SOL    HW1 7167   1.997   6.515   1.491  1.1902 -1.5225 -1.8379
 1425SOL    HW2 7168   1.902   6.439   1.579  2.2930 -0.4118  0.4025
 1426SOL     OW 7169   6.367   1.326   3.293  0.5238 -0.2276 -0.2504
 1426SOL    HW1 7170   6.356   1.354   3.383 -1.4099 -1.9509  0.1139
 1426SOL    HW2 7171   6.431   1.387   3.256  0.3613  1.3125  1.8867
 1427SOL     OW 7172   1.638   2.752   0.977 -0.6975  0.3371  0.1032
 1427SOL    HW1 7173   1.683   2.720   0.899  1.2625  1.5001  0.6889
 1427SOL    HW2 7174   1.547   2.763   0.950  0.1302  1.7238 -2.3327
 1428SOL     OW 7175   2.331   2.347   2.329  0.3088 -0.3327 -0.4153
 1428SOL    HW1 7176   2.268   2.314   2.393 -0.4441 -1.0123 -1.4542
 1428SOL    HW2 7177   2.282   2.347   2.246  0.5438  2.5588 -0.6655
 1429SOL     OW 7178   8.885   5.762   0.473  0.0356  0.2041 -0.0203
 1429SOL    HW1 7179   8.960   5.818   0.490 -0.4360  0.8993 -0.1842
 1429SOL    HW2 7180   8.826   5.778   0.547  0.0066 -0.2701  0.0637
 1430SOL     OW 7181   4.726   8.317   8.925  0.1454  0.1812  0.1132
 1430SOL    HW1 7182   4.767   8.388   8.975  0.4455  0.3354 -0.3441
 1430SOL    HW2 7183   4.798   8.279   8.874  0.3018 -1.3930  1.4114
 1431SOL     OW 7184   3.750   6.076   6.116 -0.2167  0.0445 -1.2512
 1431SOL    HW1 7185   3.802   6.072   6.035  0.8930 -2.4964 -0.4944
 1431SOL    HW2 7186   3.813   6.058   6.185 -1.5514  0.0895  0.0136
 1432SOL     OW 7187   7.199   1.910   0.773 -0.6668 -0.3687  0.0536
 1432SOL    HW1 7188   7.245   1.847   0.827  1.1173  0.6043 -0.2509
 1432SOL    HW2 7189   7.131   1.945   0.830  1.2345  0.7214  1.7926
 1433SOL     OW 7190   7.384   5.323   8.730 -0.0174 -0.2910  0.3156
 1433SOL    HW1 7191   7.448   5.259   8.698 -0.9824 -1.6657  1.0378
 1433SOL    HW2 7192   7.375   5.303   8.823 -2.5216 -1.1107 -0.0204
 1434SOL     OW 7193   8.545   9.379   0.927 -0.1704 -0.1307  0.1910
 1434SOL    HW1 7194   8.514   9.455   0.976 -1.7762 -0.0873 -0.8029
 1434SOL    HW2 7195   8.475   9.315   0.936  0.4118 -0.8596 -0.3740
 1435SOL     OW 7196   4.732   1.319   2.206 -0.0452 -0.0503 -0.5304
 1435SOL    HW1 7197   4.658   1.262   2.223  0.3124 -0.7537 -1.3091
 1435SOL    HW2 7198   4.785   1.314   2.286 -0.7819  0.4114  0.0055
 1436SOL     OW 7199   8.712   5.835   0.276  0.0175  0.5734 -0.8919
 1436SOL    HW1 7200   8.761   5.794   0.347 -0.5268 -1.1267 -1.4529
 1436SOL    HW2 7201   8.677   5.916   0.314  1.3689  0.7086  0.1627
 1437SOL     OW 7202   2.778   9.104   6.979  0.1977 -0.2462 -0.0525
 1437SOL    HW1 7203   2.841   9.137   6.916  0.9428 -0.1693  0.7174
 1437SOL    HW2 7204   2.829   9.088   7.059 -1.2271  2.7984  1.6399
 1438SOL     OW 7205   5.349   7.519   8.294  0.0313  0.1530  0.0740
 1438SOL    HW1 7206   5.315   7.433   8.321  0.9920 -0.2096  0.1870
 1438SOL    HW2 7207   5.444   7.508   8.296  0.1488  0.9159 -0.9402
 1439SOL     OW 7208   6.346   3.857   2.729 -0.4967 -0.9494 -0.5317
 1439SOL    HW1 7209   6.309   3.805   2.801  1.1835  0.8194  1.7768
 1439SOL    HW2 7210   6.406   3.798   2.684  0.0827 -1.5371  0.9473
 1440SOL     OW 7211   4.927   2.329   1.441 -0.2244 -0.0280  0.2336
 1440SOL    HW1 7212   4.983   2.403   1.421 -0.6702  0.4791  0.8005
 1440SOL    HW2 7213   4.847   2.369   1.477 -0.9734 -0.7228 -0.6217
 1441SOL     OW 7214   3.344   5.469   9.429  0.1856  0.0435 -0.2930
 1441SOL    HW1 7215   3.435   5.463   9.458  0.7191 -2.4336 -2.0920
 1441SOL    HW2 7216   3.307   5.383   9.449 -1.5771  0.7716 -0.2560
 1442SOL     OW 7217   0.530   0.996   1.485  0.2326 -0.4166  0.0305
 1442SOL    HW1 7218   0.598   0.996   1.552 -1.3844 -3.8314  1.9193
 1442SOL    HW2 7219   0.458   1.047   1.523  0.7642  1.1947 -0.9908
 1443SOL     OW 7220   8.060   7.170   4.088 -0.3724  0.1546 -0.5536
 1443SOL    HW1 7221   8.134   7.211   4.043  0.9606 -0.1003  1.3025
 1443SOL    HW2 7222   7.995   7.240   4.093  0.9784  1.3930  0.5492
 1444SOL     OW 7223   8.921   5.258   9.391  0.1576 -0.0672 -0.6085
 1444SOL    HW1 7224   8.901   5.331   9.450  0.3486  0.7000 -1.4809
 1444SOL    HW2 7225   8.872   5.184   9.428 -0.9711  0.7753 -0.3620
 1445SOL     OW 7226   2.050   1.067   6.216  0.3625 -0.0016 -0.7585
 1445SOL    HW1 7227   2.116   1.055   6.284  0.2926  1.8830 -0.3087
 1445SOL    HW2 7228   1.967   1.067   6.263  0.3404  1.7164 -0.7471
 1446SOL     OW 7229   3.253   1.431   3.422 -0.1396 -0.5794  0.2458
 1446SOL    HW1 7230   3.263   1.526   3.431  1.2003 -0.5489 -1.1175
 1446SOL    HW2 7231   3.331   1.394   3.463  0.1819 -0.9820 -0.6873
 1447SOL     OW 7232   2.157   1.575   6.002 -0.3337 -0.5468  0.0590
 1447SOL    HW1 7233   2.200   1.520   6.067  0.8244  0.5297  0.2530
 1447SOL    HW2 7234   2.139   1.516   5.928  1.3115 -1.1036  0.0582
 1448SOL     OW 7235   5.772   1.607   4.500  0.0621 -0.0922 -0.2095
 1448SOL    HW1 7236   5.836   1.651   4.557 -0.5896  0.4358  0.1227
 1448SOL    HW2 7237   5.747   1.528   4.548 -1.7113  1.1516  1.0487
 1449SOL     OW 7238   5.904   7.147   3.115  0.2619  0.3344  0.6510
 1449SOL    HW1 7239   5.904   7.089   3.039 -0.8702 -0.0520  0.9270
 1449SOL    HW2 7240   5.883   7.233   3.080 -1.2705 -0.0219  0.6229
 1450SOL     OW 7241   7.277   7.113   3.774 -0.3704 -0.2497  0.2535
 1450SOL    HW1 7242   7.261   7.087   3.865 -0.1243  2.2584  1.0991
 1450SOL    HW2 7243   7.373   7.114   3.766 -0.3727 -2.2624 -0.6704
 1451SOL     OW 7244   3.393   2.580   1.928  0.5884  0.0044 -0.1492
 1451SOL    HW1 7245   3.461   2.542   1.984 -0.8000 -1.6088  0.5542
 1451SOL    HW2 7246   3.367   2.661   1.973  1.9811  0.6175 -0.4122
 1452SOL     OW 7247   5.975   5.562   6.845 -0.6561  0.2878  0.3036
 1452SOL    HW1 7248   6.049   5.501   6.836  1.4916  2.3815  2.3322
 1452SOL    HW2 7249   5.956   5.561   6.939 -2.6523  0.4956 -0.0725
 1453SOL     OW 7250   0.723   0.328   3.587 -0.4496  0.3484  0.2776
 1453SOL    HW1 7251   0.809   0.367   3.600 -0.0568 -0.0565 -0.9715
 1453SOL    HW2 7252   0.722   0.301   3.495 -1.1393 -1.5029  0.7809
 1454SOL     OW 7253   6.391   1.659   2.745  0.0422 -0.5235  1.1030
 1454SOL    HW1 7254   6.443   1.609   2.808 -0.4341 -2.0814  0.3252
 1454SOL    HW2 7255   6.304   1.618   2.749 -1.1071  1.8335  2.1730
 1455SOL     OW 7256   6.819   4.503   2.159 -0.1473 -0.2851  0.7334
 1455SOL    HW1 7257   6.902   4.521   2.114  0.5452 -1.1851  1.5724
 1455SOL    HW2 7258   6.797   4.413   2.133  0.3806 -0.9086  2.2794
 1456SOL     OW 7259   9.062   7.117   4.527  0.2889  0.3047  0.1867
 1456SOL    HW1 7260   9.109   7.191   4.490  0.6294 -0.2792 -0.5964
 1456SOL    HW2 7261   9.081   7.044   4.467  0.1635 -0.4754  1.0612
 1457SOL     OW 7262   0.349   4.229   7.829 -0.2389  0.4162  0.5481
 1457SOL    HW1 7263   0.361   4.250   7.737  0.7604  0.5135  0.6920
 1457SOL    HW2 7264   0.373   4.137   7.837  0.4675  0.6216  0.8482
 1458SOL     OW 7265   6.377   9.127   2.651  0.2188  0.7788 -0.1823
 1458SOL    HW1 7266   6.375   9.128   2.747  2.0976 -3.1340  0.0707
 1458SOL    HW2 7267   6.470   9.135   2.629 -0.0242  0.0059 -1.5845
 1459SOL     OW 7268   9.599   9.637   8.674  0.5412 -0.1961  0.5792
 1459SOL    HW1 7269   9.543   9.596   8.740  0.8518  0.5975  1.3583
 1459SOL    HW2 7270   9.687   9.632   8.710  0.9193 -1.0229 -0.4322
 1460SOL     OW 7271   7.288   7.707   6.667 -0.5335  0.0741  0.7757
 1460SOL    HW1 7272   7.250   7.742   6.586  0.7021  1.9420  0.9527
 1460SOL    HW2 7273   7.341   7.778   6.702 -1.2589 -0.5643  3.4172
 1461SOL     OW 7274   0.627   9.597   3.424 -0.0329 -0.3946  0.3484
 1461SOL    HW1 7275   0.614   9.528   3.360  1.9463 -1.5065  1.0619
 1461SOL    HW2 7276   0.682   9.661   3.379 -0.5798 -0.0282  0.1935
 1462SOL     OW 7277   0.556   5.132   0.305  0.2153 -0.3982  0.2709
 1462SOL    HW1 7278   0.523   5.090   0.225  0.3734 -1.0417  0.5426
 1462SOL    HW2 7279   0.478   5.173   0.344 -0.1066 -1.1893  0.4657
 1463SOL     OW 7280   7.721   8.866   6.452  0.5523  0.4038 -0.2266
 1463SOL    HW1 7281   7.626   8.860   6.455  0.5242 -0.7860 -1.9360
 1463SOL    HW2 7282   7.739   8.921   6.376  1.2143 -1.0538 -1.1699
 1464SOL     OW 7283   9.411   2.105   9.160  0.5853 -0.5065 -0.3538
 1464SOL    HW1 7284   9.373   2.193   9.158  3.0412  0.7375  1.6350
 1464SOL    HW2 7285   9.339   2.049   9.188 -0.7725  1.0236 -0.6020
 1465SOL     OW 7286   4.950   2.762   8.841  0.4341  0.7146  0.3065
 1465SOL    HW1 7287   4.952   2.855   8.818  0.3888  0.5789 -0.2654
 1465SOL    HW2 7288   4.984   2.718   8.763 -2.7136  0.0023 -0.8084
 1466SOL     OW 7289   5.658   6.251   7.510  0.2204  0.3687 -0.0640
 1466SOL    HW1 7290   5.675   6.162   7.479 -0.5201 -0.8472  2.6866
 1466SOL    HW2 7291   5.738   6.275   7.557 -0.4471  0.1655  1.2081
 1467SOL     OW 7292   2.931   0.553   4.378  0.0572 -0.3517  0.7544
 1467SOL    HW1 7293   2.866   0.483   4.380  0.6930 -0.9634  0.1684
 1467SOL    HW2 7294   2.995   0.526   4.312  0.3065  0.7868  0.4993
 1468SOL     OW 7295   2.253   1.197   0.359 -0.3471 -0.3788 -0.2442
 1468SOL    HW1 7296   2.171   1.161   0.326 -0.2184 -0.2609 -0.6968
 1468SOL    HW2 7297   2.240   1.204   0.453 -1.2744  0.6625 -0.4283
 1469SOL     OW 7298   3.159   8.262   4.363 -0.2862  0.2241 -0.1316
 1469SOL    HW1 7299   3.134   8.171   4.379  0.8091  0.1088  1.0466
 1469SOL    HW2 7300   3.252   8.266   4.387  0.3630  1.1007 -2.4366
 1470SOL     OW 7301   5.208   9.156   1.178  0.0602  0.1676 -0.1159
 1470SOL    HW1 7302   5.158   9.094   1.230 -1.2793  0.7194 -0.6977
 1470SOL    HW2 7303   5.159   9.164   1.096  1.0198  0.8526 -0.6456
 1471SOL     OW 7304   9.432   5.884   7.370 -0.3694 -0.0067  0.0496
 1471SOL    HW1 7305   9.386   5.923   7.295  0.9100  1.3089 -0.1098
 1471SOL    HW2 7306   9.427   5.951   7.438 -1.0160 -0.9622  0.9627
 1472SOL     OW 7307   6.883   6.992   4.017  0.1345 -0.7559  0.1409
 1472SOL    HW1 7308   6.922   6.935   3.950  1.8664  0.0649  0.3958
 1472SOL    HW2 7309   6.905   6.949   4.100 -0.3582 -0.7803  0.2613
 1473SOL     OW 7310   8.842   8.975   0.458  0.3839 -0.9552 -0.0685
 1473SOL    HW1 7311   8.908   8.910   0.484  1.6140  0.4267  0.4457
 1473SOL    HW2 7312   8.868   9.055   0.505 -0.3512  0.2421 -1.6129
 1474SOL     OW 7313   4.317   5.280   6.760 -0.1979  0.3064 -0.3290
 1474SOL    HW1 7314   4.409   5.297   6.737 -0.2238  0.8449 -0.0441
 1474SOL    HW2 7315   4.287   5.220   6.692 -0.0208  1.1947 -1.2299
 1475SOL     OW 7316   3.117   7.928   2.407  0.5825  0.5996  0.4154
 1475SOL    HW1 7317   3.079   7.841   2.390  0.0486  0.6913  1.1087
 1475SOL    HW2 7318   3.192   7.910   2.463  0.2508  0.6157  0.8683
 1476SOL     OW 7319   5.230   1.668   5.644  0.3245 -0.5207 -0.0158
 1476SOL    HW1 7320   5.216   1.751   5.599  1.7187 -0.5905 -0.6377
 1476SOL    HW2 7321   5.182   1.677   5.727  1.7121  1.5498  0.6583
 1477SOL     OW 7322   8.667   8.002   0.002 -0.1429 -0.1789  0.0506
 1477SOL    HW1 7323   8.610   8.058   0.055 -0.1042 -1.4956  1.5362
 1477SOL    HW2 7324   8.662   7.916   0.043  0.6329 -1.0373 -1.5524
 1478SOL     OW 7325   9.180   5.627   0.349 -0.2471 -0.0632 -0.3629
 1478SOL    HW1 7326   9.114   5.578   0.398  1.7181 -1.4535  1.0995
 1478SOL    HW2 7327   9.260   5.574   0.357  1.3951  2.1617 -0.8857
 1479SOL     OW 7328   7.195   9.069   2.482  0.0394 -0.1597 -0.2274
 1479SOL    HW1 7329   7.170   9.133   2.415  0.1334 -1.1809 -1.2609
 1479SOL    HW2 7330   7.193   8.985   2.437 -0.2759 -0.9254  1.1576
 1480SOL     OW 7331   5.721   9.193   4.565 -0.0703 -0.1197 -0.3210
 1480SOL    HW1 7332   5.651   9.243   4.523 -0.5368 -1.0113 -0.6321
 1480SOL    HW2 7333   5.786   9.259   4.589 -0.7878  0.6671 -0.4737
 1481SOL     OW 7334   0.043   2.068   0.049  0.8112  0.3004  0.0702
 1481SOL    HW1 7335   0.040   2.146   0.104 -0.1665  0.2071  0.1801
 1481SOL    HW2 7336  -0.049   2.040   0.043  0.8169  0.5717 -1.9759
 1482SOL     OW 7337   9.576   4.951   6.287  0.3126 -0.1566  0.6625
 1482SOL    HW1 7338   9.658   4.975   6.243 -1.1626 -1.2280 -3.0971
 1482SOL    HW2 7339   9.595   4.865   6.327  0.6050 -1.3622 -1.8763
 1483SOL     OW 7340   3.702   4.370   9.446  0.2335  0.0221 -0.5017
 1483SOL    HW1 7341   3.614   4.393   9.476 -0.4325 -0.8463 -1.6672
 1483SOL    HW2 7342   3.750   4.452   9.443 -0.5820  0.5263  0.0140
 1484SOL     OW 7343   4.772   8.341   7.399  0.2966 -0.0300 -0.3095
 1484SOL    HW1 7344   4.731   8.331   7.485  2.0452 -0.6709  0.5043
 1484SOL    HW2 7345   4.763   8.434   7.379 -2.1211 -0.2398 -0.5323
 1485SOL     OW 7346   9.207   0.604   4.350 -0.2492  0.3738  0.3567
 1485SOL    HW1 7347   9.172   0.521   4.319 -0.3280  1.1873 -1.8831
 1485SOL    HW2 7348   9.143   0.635   4.415  0.6217 -2.0301  2.5237
 1486SOL     OW 7349   4.349   4.179   5.935  0.1111 -0.5149  0.0814
 1486SOL    HW1 7350   4.330   4.179   5.842 -1.7927  1.0679  0.3998
 1486SOL    HW2 7351   4.288   4.115   5.972  1.2706 -1.5823  0.2109
 1487SOL     OW 7352   5.289   5.381   8.840  0.7615 -0.1567 -0.4741
 1487SOL    HW1 7353   5.266   5.463   8.885 -1.5498 -0.8521 -0.2386
 1487SOL    HW2 7354   5.383   5.387   8.827  0.7998  2.1751  0.2643
 1488SOL     OW 7355   8.977   8.150   6.042  0.3873 -0.0781 -0.2086
 1488SOL    HW1 7356   8.918   8.173   5.971 -0.2350  0.1625  0.3683
 1488SOL    HW2 7357   9.048   8.214   6.036 -0.4552  0.9449  0.3228
 1489SOL     OW 7358   5.587   3.510   9.078 -0.0525  0.2617 -0.3122
 1489SOL    HW1 7359   5.557   3.419   9.075 -0.8690  0.4478  1.3287
 1489SOL    HW2 7360   5.658   3.511   9.141 -0.7538  0.9185  0.5033
 1490SOL     OW 7361   0.740   7.559   2.696  0.4828 -0.2318  0.2258
 1490SOL    HW1 7362   0.730   7.475   2.742 -0.3569 -0.2487  0.0350
 1490SOL    HW2 7363   0.650   7.592   2.688  0.8283  0.8423  0.5875
 1491SOL     OW 7364   9.486   9.120   2.925 -0.4342 -0.2141 -1.1242
 1491SOL    HW1 7365   9.427   9.050   2.896 -1.2961  0.8262 -1.9243
 1491SOL    HW2 7366   9.440   9.201   2.903  0.0959  0.6290  0.6922
 1492SOL     OW 7367   1.296   4.784   2.351  0.0957  0.6269 -0.2609
 1492SOL    HW1 7368   1.252   4.850   2.405  0.9765  1.2518 -0.2923
 1492SOL    HW2 7369   1.306   4.826   2.266 -0.6368 -0.0959 -0.7205
 1493SOL     OW 7370   3.372   2.604   8.880  0.5005 -0.1179  0.8589
 1493SOL    HW1 7371   3.355   2.550   8.803  2.0981  0.6997 -0.1104
 1493SOL    HW2 7372   3.309   2.677   8.871 -0.2056 -0.6913  1.0433
 1494SOL     OW 7373   0.914   4.357   0.321 -0.3550  0.1706  0.2665
 1494SOL    HW1 7374   1.000   4.345   0.281 -0.3438  0.5228  0.1876
 1494SOL    HW2 7375   0.893   4.271   0.357 -0.4993 -0.2502 -0.7648
 1495SOL     OW 7376   1.777   4.491   9.570  0.1470  0.1062 -0.0029
 1495SOL    HW1 7377   1.691   4.452   9.587  0.3236 -0.1145  0.4023
 1495SOL    HW2 7378   1.835   4.416   9.555  0.3344  0.2421  0.0377
 1496SOL     OW 7379   0.978   2.677   9.317  0.2182 -0.0750 -0.2483
 1496SOL    HW1 7380   0.965   2.763   9.278 -3.1257 -1.0295 -1.6441
 1496SOL    HW2 7381   0.909   2.670   9.383  1.9665 -0.8245  1.5994
 1497SOL     OW 7382   6.575   6.366   4.984  0.0028  0.2307  0.6268
 1497SOL    HW1 7383   6.630   6.322   4.918 -0.5174 -1.3930  1.2414
 1497SOL    HW2 7384   6.633   6.377   5.059  0.4362  1.5811  0.1127
 1498SOL     OW 7385   6.953   5.492   4.010 -0.6959 -0.0159 -0.5358
 1498SOL    HW1 7386   7.012   5.562   4.040 -0.8697 -0.4108  0.8241
 1498SOL    HW2 7387   7.010   5.431   3.964 -0.3394  0.4432 -0.7089
 1499SOL     OW 7388   0.238   7.490   6.625 -0.0072 -0.5128  0.5118
 1499SOL    HW1 7389   0.267   7.452   6.708 -0.8694 -1.6114  0.3284
 1499SOL    HW2 7390   0.206   7.577   6.648 -0.2437 -0.8087  1.3305
 1500SOL     OW 7391   9.362   1.431   4.416 -0.1254  0.2477  0.2842
 1500SOL    HW1 7392   9.441   1.424   4.363 -0.8897  0.0454 -0.8476
 1500SOL    HW2 7393   9.388   1.488   4.489  1.1390 -0.0568  0.0904
 1501SOL     OW 7394   8.352   8.888   3.413 -0.3279  0.0672  0.3030
 1501SOL    HW1 7395   8.297   8.811   3.428 -0.3792  0.3561  1.6722
 1501SOL    HW2 7396   8.379   8.879   3.322 -0.9404 -1.1797  0.2114
 1502SOL     OW 7397   2.681   4.157   6.304  0.2228 -0.3628  0.3524
 1502SOL    HW1 7398   2.738   4.133   6.378  1.4429  0.0709 -0.4099
 1502SOL    HW2 7399   2.681   4.079   6.248  0.7452 -0.0898 -0.0417
 1503SOL     OW 7400   1.117   4.861   1.616 -0.1237 -0.7278 -0.1484
 1503SOL    HW1 7401   1.147   4.913   1.541 -0.1584 -0.9576 -0.3222
 1503SOL    HW2 7402   1.121   4.921   1.690 -1.3717 -0.1033 -0.5623
 1504SOL     OW 7403   3.676   1.908   7.388 -0.6744  0.0687  0.8697
 1504SOL    HW1 7404   3.700   1.830   7.338  2.2245  0.8305  0.9418
 1504SOL    HW2 7405   3.608   1.877   7.449  0.6064 -2.4908  1.1267
 1505SOL     OW 7406   0.970   1.301   4.020 -0.2785  0.7502 -0.3091
 1505SOL    HW1 7407   1.052   1.263   3.987 -1.5293 -1.2755 -1.2470
 1505SOL    HW2 7408   0.964   1.385   3.975  1.0449  0.7267 -0.5923
 1506SOL     OW 7409   1.541   1.023   3.639 -0.4297 -0.7371 -0.5073
 1506SOL    HW1 7410   1.482   0.952   3.664 -0.7820 -1.2218 -2.4793
 1506SOL    HW2 7411   1.489   1.077   3.579  0.9711 -0.9914 -2.0411
 1507SOL     OW 7412   4.748   3.262   2.846 -0.1223 -0.3531  0.4336
 1507SOL    HW1 7413   4.683   3.320   2.805  0.0692 -0.5124 -0.1065
 1507SOL    HW2 7414   4.708   3.235   2.928  0.2127  1.4047  1.2351
 1508SOL     OW 7415   4.761   3.092   5.294 -0.4350  0.0194 -0.0087
 1508SOL    HW1 7416   4.716   3.025   5.346 -1.6025 -0.9511 -2.1358
 1508SOL    HW2 7417   4.832   3.045   5.250  0.6429  0.8566  0.7813
 1509SOL     OW 7418   6.243   1.269   8.628  0.0733 -0.3214 -0.6465
 1509SOL    HW1 7419   6.188   1.325   8.681 -0.6631 -1.4863 -0.1406
 1509SOL    HW2 7420   6.196   1.261   8.545  0.3406  0.0579 -0.8380
 1510SOL     OW 7421   8.143   8.497   0.004 -0.5633 -0.1894  0.1970
 1510SOL    HW1 7422   8.228   8.455  -0.005  0.1743  1.3050 -0.1940
 1510SOL    HW2 7423   8.130   8.542  -0.080  0.1140  2.8225  1.5864
 1511SOL     OW 7424   9.130   5.425   3.365  0.5520 -0.3776  0.0423
 1511SOL    HW1 7425   9.058   5.419   3.428  0.5920 -1.3703  0.0007
 1511SOL    HW2 7426   9.194   5.483   3.407 -0.8044  1.6344 -0.4744
 1512SOL     OW 7427   7.687   1.072   5.181 -0.5745 -0.0864  0.7132
 1512SOL    HW1 7428   7.770   1.114   5.157 -0.1157 -0.0058  2.3039
 1512SOL    HW2 7429   7.697   1.052   5.274 -3.5587  2.9558  1.8879
 1513SOL     OW 7430   1.842   9.221   0.266 -1.1084 -0.4007 -0.5859
 1513SOL    HW1 7431   1.848   9.210   0.361  1.0652 -2.3925 -0.8428
 1513SOL    HW2 7432   1.917   9.274   0.243 -1.6288  0.0808 -1.2112
 1514SOL     OW 7433   5.251   6.147   3.425 -0.0040  0.6110 -0.4828
 1514SOL    HW1 7434   5.255   6.051   3.430 -3.8441  0.3902  2.0447
 1514SOL    HW2 7435   5.343   6.174   3.425  1.2315 -3.0237 -0.1194
 1515SOL     OW 7436   8.715   7.549   1.182 -0.1895 -0.5833 -0.1519
 1515SOL    HW1 7437   8.648   7.574   1.246 -1.5682 -1.3708 -1.2498
 1515SOL    HW2 7438   8.760   7.475   1.223 -1.1741 -1.1934 -0.1472
 1516SOL     OW 7439   0.552   5.675   4.877 -0.2485 -0.6086  0.5074
 1516SOL    HW1 7440   0.487   5.745   4.871  0.8159  0.4359  0.8084
 1516SOL    HW2 7441   0.631   5.712   4.836  0.6882 -1.1690  1.7485
 1517SOL     OW 7442   2.732   0.922   7.765  0.0267 -0.2162  0.3930
 1517SOL    HW1 7443   2.791   0.911   7.840 -0.2350  0.1706  0.6598
 1517SOL    HW2 7444   2.714   1.016   7.763  0.1733 -0.2043 -0.2629
 1518SOL     OW 7445   0.662   1.947   2.681  0.0825 -0.1928 -0.0895
 1518SOL    HW1 7446   0.608   1.871   2.701 -2.4725  0.9464 -2.0355
 1518SOL    HW2 7447   0.659   2.000   2.761  0.8594 -1.4842  0.8409
 1519SOL     OW 7448   4.366   7.736   2.953  0.3280  0.2402 -0.0018
 1519SOL    HW1 7449   4.332   7.718   3.041  1.7476  2.1734  1.0293
 1519SOL    HW2 7450   4.435   7.671   2.940  0.1480 -0.0206  0.3487
 1520SOL     OW 7451   3.434   0.038   2.082 -0.1424  0.1872 -0.0145
 1520SOL    HW1 7452   3.472   0.063   1.998 -0.3903  2.0174  0.3687
 1520SOL    HW2 7453   3.395  -0.048   2.066 -0.4526  0.6281 -1.8579
 1521SOL     OW 7454   3.770   3.298   5.344  0.4906 -0.1685 -0.0614
 1521SOL    HW1 7455   3.775   3.393   5.343 -1.4593 -0.0149  0.0170
 1521SOL    HW2 7456   3.811   3.270   5.262  2.3072  0.6257  0.5407
 1522SOL     OW 7457   2.685   3.314   7.270 -0.0794 -0.7111  0.6919
 1522SOL    HW1 7458   2.655   3.250   7.205 -1.3778  0.6233 -0.0981
 1522SOL    HW2 7459   2.622   3.385   7.263  1.9705  1.2124  0.6643
 1523SOL     OW 7460   0.141   3.594   9.002 -0.4063  0.0646 -0.0435
 1523SOL    HW1 7461   0.128   3.505   8.970 -2.0306 -1.3103  3.9094
 1523SOL    HW2 7462   0.233   3.597   9.027 -0.1487 -0.1791 -0.9051
 1524SOL     OW 7463   1.654   0.243   1.231  0.0753 -0.5214  0.1090
 1524SOL    HW1 7464   1.695   0.157   1.215  1.2654 -0.3699  2.0075
 1524SOL    HW2 7465   1.598   0.229   1.308 -3.2512 -0.6000 -2.1384
 1525SOL     OW 7466   1.518   4.370   8.910  0.0910 -0.4893  0.8477
 1525SOL    HW1 7467   1.549   4.331   8.828 -1.5357  0.4321 -0.2606
 1525SOL    HW2 7468   1.589   4.428   8.937  0.5760 -0.6591 -0.0151
 1526SOL     OW 7469   4.992   4.030   0.510  0.8783 -0.1112  0.5501
 1526SOL    HW1 7470   4.908   4.009   0.467  1.0774  0.6128 -0.2212
 1526SOL    HW2 7471   4.979   4.005   0.601 -0.6129  1.0947  0.7175
 1527SOL     OW 7472   0.743   2.780   7.409  0.0865 -0.2821  0.5060
 1527SOL    HW1 7473   0.723   2.787   7.503  1.8801 -0.6246  0.9521
 1527SOL    HW2 7474   0.809   2.847   7.393  1.0127 -1.2943 -0.1084
 1528SOL     OW 7475   2.673   0.547   8.645  0.2265 -0.5714  0.0639
 1528SOL    HW1 7476   2.728   0.616   8.607 -1.1868 -0.2777 -1.5658
 1528SOL    HW2 7477   2.669   0.568   8.739  1.3783  0.4356 -0.0947
 1529SOL     OW 7478   9.270   0.358   6.486  0.4828  0.6587 -0.3209
 1529SOL    HW1 7479   9.317   0.442   6.486 -1.8866  2.0862  0.8440
 1529SOL    HW2 7480   9.285   0.323   6.398  2.0968  1.9342 -0.6192
 1530SOL     OW 7481   5.476   1.236   1.595 -0.2752 -0.3153  0.1613
 1530SOL    HW1 7482   5.561   1.229   1.551 -0.9899 -1.9748 -1.0723
 1530SOL    HW2 7483   5.452   1.146   1.615 -1.3331  0.1985  1.3651
 1531SOL     OW 7484   7.246   7.777   5.018 -0.1906  0.0614 -0.4230
 1531SOL    HW1 7485   7.197   7.696   5.006  1.3414 -0.5929 -2.9753
 1531SOL    HW2 7486   7.308   7.757   5.087 -1.8312  0.1388  1.1554
 1532SOL     OW 7487   6.418   1.235   0.589  0.3148 -1.0888 -0.1935
 1532SOL    HW1 7488   6.506   1.263   0.564  1.1277 -2.2401  1.2533
 1532SOL    HW2 7489   6.386   1.185   0.514  0.2276  0.6526 -1.3730
 1533SOL     OW 7490   2.682   1.583   8.187 -0.2651  0.1303 -0.6111
 1533SOL    HW1 7491   2.664   1.499   8.229  0.0265  0.4723  0.2254
 1533SOL    HW2 7492   2.748   1.624   8.243 -0.3230  0.8670 -1.0704
 1534SOL     OW 7493   8.154   5.290   9.513  0.1020  0.5114  0.6874
 1534SOL    HW1 7494   8.091   5.219   9.525  1.9161 -1.0377  1.5647
 1534SOL    HW2 7495   8.168   5.294   9.418  1.5855 -1.8816  0.7217
 1535SOL     OW 7496   6.069   2.606   5.403 -0.4667  0.2502  0.0333
 1535SOL    HW1 7497   6.000   2.542   5.384 -0.6764  0.1049  1.2169
 1535SOL    HW2 7498   6.026   2.691   5.400 -0.7792  0.1424  1.0313
 1536SOL     OW 7499   2.344   7.802   5.979  0.4258  0.8518 -0.3108
 1536SOL    HW1 7500   2.348   7.740   5.906 -0.9311  0.5456 -0.1561
 1536SOL    HW2 7501   2.433   7.805   6.013  0.9541  0.5529 -1.6102
 1537SOL     OW 7502   5.858   5.797   7.799  0.0197 -0.2042  0.3657
 1537SOL    HW1 7503   5.914   5.842   7.862  0.0552  0.3909 -0.0850
 1537SOL    HW2 7504   5.919   5.759   7.736 -0.0285 -0.6113  0.5568
 1538SOL     OW 7505   5.231   4.105   0.376  0.5223  0.3040  0.1890
 1538SOL    HW1 7506   5.173   4.085   0.450  0.0153 -0.1340 -0.3180
 1538SOL    HW2 7507   5.260   4.195   0.392  1.4105 -0.1803  1.5753
 1539SOL     OW 7508   2.555   8.155   3.122  0.0263  0.0524 -0.2964
 1539SOL    HW1 7509   2.525   8.245   3.109  2.0859  0.6963 -0.8873
 1539SOL    HW2 7510   2.489   8.101   3.078 -0.4976  1.3502 -1.1608
 1540SOL     OW 7511   9.022   8.629   7.302 -0.8970  0.6759  0.6910
 1540SOL    HW1 7512   9.024   8.715   7.258 -1.0242  0.6304  0.5947
 1540SOL    HW2 7513   8.996   8.568   7.233 -0.9452  0.5803  0.7939
 1541SOL     OW 7514   5.880   5.003   1.537  0.6621  0.8622 -0.2963
 1541SOL    HW1 7515   5.921   5.064   1.598  1.5488  1.6666 -1.6583
 1541SOL    HW2 7516   5.953   4.963   1.491  0.0457 -0.5610 -0.0887
 1542SOL     OW 7517   0.921   1.255   3.615 -0.1346  0.2001 -0.0327
 1542SOL    HW1 7518   0.940   1.342   3.651  0.5579  0.5413 -1.1736
 1542SOL    HW2 7519   0.909   1.270   3.521  0.7681 -1.0466 -0.3705
 1543SOL     OW 7520   0.404   4.221   2.265 -0.2882  0.2109 -0.3769
 1543SOL    HW1 7521   0.367   4.133   2.267 -1.0153  0.5165  0.4977
 1543SOL    HW2 7522   0.441   4.234   2.352  0.0631  0.6646 -0.5899
 1544SOL     OW 7523   9.128   0.462   0.155  0.3157 -0.0212  0.1902
 1544SOL    HW1 7524   9.159   0.387   0.103  1.7686  0.5388  0.2080
 1544SOL    HW2 7525   9.196   0.475   0.222  0.6761  1.9891 -0.4970
 1545SOL     OW 7526   8.446   8.018   1.621  0.0677 -0.3013 -0.2746
 1545SOL    HW1 7527   8.380   7.962   1.663 -0.4273  0.3682 -0.1470
 1545SOL    HW2 7528   8.529   7.988   1.656 -0.3656  0.5993  1.6137
 1546SOL     OW 7529   2.936   8.474   1.369 -0.7759 -0.4237 -0.2256
 1546SOL    HW1 7530   2.886   8.430   1.437 -1.2283  1.4803  0.7617
 1546SOL    HW2 7531   2.992   8.406   1.332 -1.4420 -1.7972  1.1824
 1547SOL     OW 7532   7.359   6.171   7.958  0.2492 -0.0803  0.3893
 1547SOL    HW1 7533   7.285   6.230   7.942 -0.5112 -1.0600  0.1727
 1547SOL    HW2 7534   7.371   6.172   8.053  2.4361  2.9776  0.1997
 1548SOL     OW 7535   3.742   2.998   8.964  0.2394  0.2721  0.0769
 1548SOL    HW1 7536   3.656   2.956   8.960 -0.3394  1.4923 -0.7488
 1548SOL    HW2 7537   3.778   2.986   8.877  0.1514  1.2882 -0.1098
 1549SOL     OW 7538   1.802   6.986   6.845 -0.2669 -0.0868 -0.2900
 1549SOL    HW1 7539   1.774   6.896   6.827 -1.8875  0.3650 -0.1961
 1549SOL    HW2 7540   1.755   7.039   6.781  0.9050  0.6885 -0.5349
 1550SOL     OW 7541   5.954   8.630   9.014  0.0345 -0.2741  0.5643
 1550SOL    HW1 7542   5.918   8.641   8.926 -0.4398  0.2276  0.8168
 1550SOL    HW2 7543   5.877   8.616   9.069  0.2384  0.5128  1.0620
 1551SOL     OW 7544   0.638   9.247   1.103  0.0836 -0.1720  0.1764
 1551SOL    HW1 7545   0.601   9.162   1.127 -1.6600  0.9789  1.7743
 1551SOL    HW2 7546   0.709   9.261   1.166  1.5166 -1.1338 -1.1475
 1552SOL     OW 7547   1.878   0.935   5.830 -0.2180  0.7628  0.2186
 1552SOL    HW1 7548   1.799   0.987   5.840 -0.7001 -0.3673  3.5948
 1552SOL    HW2 7549   1.865   0.887   5.748 -2.7440  1.1213  0.3271
 1553SOL     OW 7550   8.647   2.027   1.422  0.0955  0.1015 -0.2022
 1553SOL    HW1 7551   8.555   2.052   1.421  0.1373  0.2485 -1.1242
 1553SOL    HW2 7552   8.693   2.106   1.452 -0.0294  0.1912 -0.2452
 1554SOL     OW 7553   4.982   6.464   7.801 -0.0670 -0.4968  0.3122
 1554SOL    HW1 7554   4.967   6.396   7.867 -0.1662 -0.8938 -0.1043
 1554SOL    HW2 7555   4.902   6.515   7.800 -0.9822 -1.8429 -1.0236
 1555SOL     OW 7556   3.352   3.356   7.998 -0.0737 -0.1836 -1.0787
 1555SOL    HW1 7557   3.324   3.271   7.962 -0.6675 -0.0088 -1.0401
 1555SOL    HW2 7558   3.289   3.374   8.067  1.2847 -0.7149  0.3761
 1556SOL     OW 7559   6.022   5.301   2.036  0.4605  0.4925  0.9099
 1556SOL    HW1 7560   5.946   5.347   2.001  0.0528 -0.9620 -0.2030
 1556SOL    HW2 7561   6.029   5.332   2.126 -0.0205  2.4116  0.3238
 1557SOL     OW 7562   7.997   6.598   4.918 -0.0298 -0.1661 -0.1842
 1557SOL    HW1 7563   7.962   6.667   4.974 -1.4969 -1.2384  0.2729
 1557SOL    HW2 7564   7.966   6.621   4.830  0.9609  0.6721 -0.3358
 1558SOL     OW 7565   1.952   2.741   3.550  0.1891  0.4609 -0.2988
 1558SOL    HW1 7566   1.942   2.752   3.456 -1.6503  0.9723 -0.0714
 1558SOL    HW2 7567   2.047   2.749   3.565  0.4510  0.9074 -2.0239
 1559SOL     OW 7568   1.459   1.241   1.649  0.3349 -0.5381  0.4251
 1559SOL    HW1 7569   1.462   1.207   1.559  1.4485  0.7192 -0.0680
 1559SOL    HW2 7570   1.367   1.236   1.674  0.3028 -2.8306  0.0105
 1560SOL     OW 7571   0.619   2.503   6.539  0.2161  0.2487 -0.0631
 1560SOL    HW1 7572   0.680   2.571   6.510  2.1171 -1.2715  0.2487
 1560SOL    HW2 7573   0.591   2.531   6.626 -1.0821  1.9170 -0.9465
 1561SOL     OW 7574   6.742   0.127   5.877 -0.5171 -0.3197  0.2819
 1561SOL    HW1 7575   6.792   0.087   5.948  0.6694 -0.4195 -0.5758
 1561SOL    HW2 7576   6.653   0.133   5.911  0.0958  0.0537  1.9465
 1562SOL     OW 7577   8.601   5.723   2.232  0.3108 -0.6381 -0.1154
 1562SOL    HW1 7578   8.513   5.691   2.254 -0.1945  0.5928 -0.2800
 1562SOL    HW2 7579   8.645   5.733   2.316 -0.3411  0.4901  0.1021
 1563SOL     OW 7580   5.951   7.043   9.100  0.4349  0.3094  0.0047
 1563SOL    HW1 7581   5.991   6.958   9.086  0.1077  0.3095 -0.9713
 1563SOL    HW2 7582   6.020   7.106   9.083  0.9213  0.2484  1.5532
 1564SOL     OW 7583   4.048   2.842   8.543 -0.5754 -0.0980  0.0185
 1564SOL    HW1 7584   3.989   2.917   8.536  0.6991  0.8599 -0.8065
 1564SOL    HW2 7585   4.020   2.784   8.472  1.6287  1.9883 -2.8053
 1565SOL     OW 7586   9.572   3.369   7.084  0.1085 -0.5952  0.2374
 1565SOL    HW1 7587   9.655   3.370   7.037 -0.1724 -0.4594 -0.2652
 1565SOL    HW2 7588   9.569   3.452   7.131  0.3402 -0.6829  0.4061
 1566SOL     OW 7589   4.839   1.432   8.228  0.0835 -0.2761  0.2671
 1566SOL    HW1 7590   4.782   1.380   8.171  0.7994  0.3907 -1.0995
 1566SOL    HW2 7591   4.786   1.448   8.306 -2.4827  2.0992 -1.7714
 1567SOL     OW 7592   3.374   8.898   0.097 -0.5575 -0.1682 -0.4839
 1567SOL    HW1 7593   3.384   8.892   0.192  1.2484 -0.9609 -0.6764
 1567SOL    HW2 7594   3.386   8.991   0.078 -1.3446  0.0580  0.0964
 1568SOL     OW 7595   1.998   5.180   4.736  1.0700  0.3493  0.5686
 1568SOL    HW1 7596   2.029   5.089   4.738  2.3388  0.7089 -0.9810
 1568SOL    HW2 7597   2.057   5.224   4.675 -0.2889  1.9417  0.3425
 1569SOL     OW 7598   6.996   4.379   2.889  0.1902 -0.2925  0.3382
 1569SOL    HW1 7599   6.978   4.421   2.805 -0.3411 -2.5157 -0.7606
 1569SOL    HW2 7600   6.979   4.447   2.954 -3.2073  0.5039 -1.1456
 1570SOL     OW 7601   5.005   5.027   1.628 -0.4525 -0.1296 -0.0115
 1570SOL    HW1 7602   5.082   5.076   1.656  1.6298 -1.3451 -3.0917
 1570SOL    HW2 7603   4.949   5.093   1.587 -0.5589  0.5864  1.2431
 1571SOL     OW 7604   8.100   5.532   2.706  0.5431 -0.1215  0.4378
 1571SOL    HW1 7605   8.061   5.620   2.713  1.6700  0.4003  0.3566
 1571SOL    HW2 7606   8.117   5.507   2.796  2.5637  0.8566  0.3913
 1572SOL     OW 7607   0.316   3.529   1.961 -0.2530  0.0960  0.0330
 1572SOL    HW1 7608   0.357   3.486   1.886 -0.5594 -2.7261  1.3319
 1572SOL    HW2 7609   0.240   3.574   1.924  1.0858  1.0604 -1.6738
 1573SOL     OW 7610   6.331   5.962   8.789 -0.2888 -0.3854 -0.1087
 1573SOL    HW1 7611   6.386   6.020   8.843 -0.3648  0.3950 -0.8546
 1573SOL    HW2 7612   6.322   5.882   8.842  1.1975 -0.3675  0.2188
 1574SOL     OW 7613   0.879   2.230   5.575  0.3330  0.4702 -0.4919
 1574SOL    HW1 7614   0.958   2.180   5.554 -0.7535 -1.6946  0.2513
 1574SOL    HW2 7615   0.863   2.213   5.667 -0.9150  1.0002 -0.5871
 1575SOL     OW 7616   4.282   6.402   8.523  0.2191  0.4794  0.0677
 1575SOL    HW1 7617   4.235   6.481   8.496 -0.3106 -0.1306 -0.8229
 1575SOL    HW2 7618   4.261   6.337   8.457 -0.3785 -0.8035  1.4684
 1576SOL     OW 7619   5.538   5.017   3.380 -0.3625 -0.2857  0.0873
 1576SOL    HW1 7620   5.576   4.975   3.303 -0.9437 -1.0980  0.2398
 1576SOL    HW2 7621   5.561   5.110   3.369  1.5714 -0.7105  0.1313
 1577SOL     OW 7622   4.523   2.316   2.706  0.2753  0.2644 -0.0125
 1577SOL    HW1 7623   4.603   2.326   2.656  0.9776 -0.3526  0.9581
 1577SOL    HW2 7624   4.521   2.223   2.732 -2.0499 -0.3835 -2.1430
 1578SOL     OW 7625   7.287   1.472   9.422  0.3083 -0.3118 -0.0242
 1578SOL    HW1 7626   7.358   1.520   9.379  0.8781 -1.2787 -0.1902
 1578SOL    HW2 7627   7.218   1.537   9.434  1.3245  0.7210  0.4059
 1579SOL     OW 7628   8.358   0.419   1.605 -0.6789 -0.2058 -0.1057
 1579SOL    HW1 7629   8.313   0.374   1.533 -1.1656 -0.7872  0.5521
 1579SOL    HW2 7630   8.402   0.349   1.653 -1.3964  0.0132  0.9046
 1580SOL     OW 7631   8.251   3.373   3.802  0.3498 -0.8549  0.0625
 1580SOL    HW1 7632   8.191   3.439   3.838 -0.6687 -1.1052 -1.0694
 1580SOL    HW2 7633   8.290   3.416   3.726  0.4623 -1.2089 -0.0811
 1581SOL     OW 7634   5.443   8.668   0.951 -0.5867  0.2390 -0.0672
 1581SOL    HW1 7635   5.493   8.740   0.992  0.4709 -0.6247  0.2256
 1581SOL    HW2 7636   5.378   8.712   0.897  1.5010  1.4928 -1.7479
 1582SOL     OW 7637   8.203   2.654   2.275 -0.1078 -0.5862 -0.1998
 1582SOL    HW1 7638   8.298   2.662   2.265 -0.1196  1.0178  0.7572
 1582SOL    HW2 7639   8.168   2.676   2.188  0.3147  1.4819  0.0978
 1583SOL     OW 7640   9.432   9.520   9.597 -0.0463  0.0575  0.7237
 1583SOL    HW1 7641   9.422   9.602   9.645 -1.8840 -0.5978  1.5641
 1583SOL    HW2 7642   9.432   9.452   9.665  2.4122 -0.6576  0.1319
 1584SOL     OW 7643   8.890   1.571   7.893 -0.3740  0.3407  0.0117
 1584SOL    HW1 7644   8.899   1.636   7.962  1.0441  1.2778 -1.0053
 1584SOL    HW2 7645   8.968   1.582   7.839 -2.1796  0.8196 -2.7132
 1585SOL     OW 7646   2.465   2.312   9.258 -0.6407 -0.0871  0.8196
 1585SOL    HW1 7647   2.395   2.307   9.193  0.8213  0.6272 -0.9004
 1585SOL    HW2 7648   2.420   2.324   9.342 -2.5709 -0.0921 -0.1788
 1586SOL     OW 7649   5.934   1.959   2.834 -0.0279 -0.6200 -0.0057
 1586SOL    HW1 7650   5.897   1.885   2.881 -0.8155  0.0053  0.3922
 1586SOL    HW2 7651   5.964   1.922   2.751 -1.6231 -1.1664 -0.3869
 1587SOL     OW 7652   0.254   1.247   3.997 -0.0122  0.3312 -0.0388
 1587SOL    HW1 7653   0.292   1.320   4.046 -0.4230  1.0854 -0.8019
 1587SOL    HW2 7654   0.160   1.265   3.998 -0.6549 -2.3223  3.1473
 1588SOL     OW 7655   7.406   6.299   6.446  0.1059 -0.2071 -0.9568
 1588SOL    HW1 7656   7.458   6.237   6.395 -0.1429 -0.4912 -0.8674
 1588SOL    HW2 7657   7.470   6.358   6.484  0.2740  0.2134 -1.8660
 1589SOL     OW 7658   5.663   9.538   6.332  0.6418  0.0547  0.3616
 1589SOL    HW1 7659   5.638   9.569   6.419 -2.3648  1.1546 -0.7444
 1589SOL    HW2 7660   5.688   9.617   6.285  0.1414 -0.1969 -0.3503
 1590SOL     OW 7661   3.728   4.368   4.693 -0.2062  0.0471  0.2340
 1590SOL    HW1 7662   3.745   4.315   4.771 -0.3734 -1.1768 -0.5220
 1590SOL    HW2 7663   3.637   4.347   4.670 -0.4404  1.0567  0.1835
 1591SOL     OW 7664   4.668   9.541   8.506  0.7324  0.9016  0.0824
 1591SOL    HW1 7665   4.693   9.603   8.575 -0.6623 -0.0253  1.4878
 1591SOL    HW2 7666   4.679   9.455   8.546 -0.3655  0.3540 -0.7447
 1592SOL     OW 7667   5.212   4.994   6.538 -0.3584  1.1430  0.1418
 1592SOL    HW1 7668   5.164   4.913   6.553 -0.1490  1.1942  1.1345
 1592SOL    HW2 7669   5.237   4.990   6.445  1.5112 -0.9391  0.6600
 1593SOL     OW 7670   7.228   9.376   0.638 -0.6228  0.2385 -0.8084
 1593SOL    HW1 7671   7.149   9.327   0.662 -1.6120  1.5618 -1.2320
 1593SOL    HW2 7672   7.282   9.375   0.717 -0.2481 -2.1263 -1.0184
 1594SOL     OW 7673   8.385   1.388   9.616 -0.4039 -0.2191  0.3424
 1594SOL    HW1 7674   8.440   1.329   9.667  0.1153  0.1440  0.2184
 1594SOL    HW2 7675   8.435   1.402   9.535 -0.9368 -0.3140 -0.0085
 1595SOL     OW 7676   5.190   2.652   5.869  0.4260  0.1233 -0.1120
 1595SOL    HW1 7677   5.219   2.625   5.782  1.2242 -0.5249  0.3408
 1595SOL    HW2 7678   5.166   2.571   5.913  0.6049  0.3840  0.4770
 1596SOL     OW 7679   8.878   6.730   6.413 -0.3544  0.1887 -0.0483
 1596SOL    HW1 7680   8.825   6.656   6.443  0.3573 -1.1823 -1.9749
 1596SOL    HW2 7681   8.856   6.801   6.473 -2.5755 -1.0009  0.6632
 1597SOL     OW 7682   0.786   8.710   7.863 -0.6652  0.0853 -0.2192
 1597SOL    HW1 7683   0.759   8.661   7.941 -1.1434 -0.0150 -0.4457
 1597SOL    HW2 7684   0.754   8.799   7.879  2.2821  1.0174  1.3135
 1598SOL     OW 7685   8.889   8.160   0.844 -0.3920 -0.2625  0.4381
 1598SOL    HW1 7686   8.825   8.137   0.776 -0.0052  0.8748 -0.3274
 1598SOL    HW2 7687   8.957   8.094   0.836 -0.7812 -0.6550  0.3224
 1599SOL     OW 7688   9.085   3.244   1.647  0.1088  0.1324 -0.0196
 1599SOL    HW1 7689   8.999   3.206   1.626  0.2137  0.3729 -0.9165
 1599SOL    HW2 7690   9.102   3.305   1.576  0.2644  1.3678  1.0465
 1600SOL     OW 7691   0.578   7.819   1.195 -0.6334  0.1815 -0.4328
 1600SOL    HW1 7692   0.573   7.895   1.137  0.6178  0.0049 -0.8082
 1600SOL    HW2 7693   0.491   7.781   1.192 -1.2187  1.4831 -0.3954
 1601SOL     OW 7694   4.686   2.317   6.135  0.0993 -0.1517 -0.4761
 1601SOL    HW1 7695   4.683   2.409   6.109 -1.5167 -0.5852 -2.0375
 1601SOL    HW2 7696   4.612   2.277   6.089  0.2698 -2.0762  0.8124
 1602SOL     OW 7697   6.161   2.908   6.339  0.4230  0.0791  0.0119
 1602SOL    HW1 7698   6.204   2.843   6.282 -0.6599 -0.9906  0.3719
 1602SOL    HW2 7699   6.234   2.953   6.382  1.2477  0.5090 -1.7472
 1603SOL     OW 7700   7.417   0.807   4.885 -0.7974 -0.1878  0.4640
 1603SOL    HW1 7701   7.441   0.892   4.921 -1.0081  0.1853 -0.2491
 1603SOL    HW2 7702   7.381   0.759   4.960  0.9412 -0.3088  1.2660
 1604SOL     OW 7703   4.872   4.366   6.919  0.4216  0.2345 -0.5318
 1604SOL    HW1 7704   4.919   4.447   6.940 -1.2169  1.1993 -0.3865
 1604SOL    HW2 7705   4.853   4.374   6.825  0.0831  0.1201 -0.4741
 1605SOL     OW 7706   0.643   4.222   6.612 -0.5768 -0.5026 -0.1418
 1605SOL    HW1 7707   0.694   4.238   6.692  1.0097  2.0369 -1.5083
 1605SOL    HW2 7708   0.709   4.206   6.545 -1.5451  1.6062 -1.7341
 1606SOL     OW 7709   8.842   3.070   8.647 -0.3630  0.1117  0.2488
 1606SOL    HW1 7710   8.915   3.059   8.587  1.0585  0.5212  1.8199
 1606SOL    HW2 7711   8.819   2.981   8.675 -2.0246 -0.2204 -1.9378
 1607SOL     OW 7712   7.867   2.760   4.514  0.1687 -1.0000 -0.6918
 1607SOL    HW1 7713   7.888   2.673   4.479  1.1441 -1.0690  0.0182
 1607SOL    HW2 7714   7.781   2.749   4.554  0.7541 -1.9409  0.3657
 1608SOL     OW 7715   7.298   9.420   2.277 -0.1985 -0.0136  0.1487
 1608SOL    HW1 7716   7.324   9.509   2.253 -0.4009  0.0506  0.1638
 1608SOL    HW2 7717   7.230   9.397   2.214  0.6070 -0.5733 -0.5478
 1609SOL     OW 7718   2.291   2.389   6.436  0.0859 -0.3817  0.4000
 1609SOL    HW1 7719   2.349   2.356   6.368 -0.9839 -2.7936  0.5455
 1609SOL    HW2 7720   2.342   2.457   6.479  1.4370  0.0342 -1.6924
 1610SOL     OW 7721   6.820   1.918   7.182 -0.2734  0.4730 -0.3795
 1610SOL    HW1 7722   6.867   1.845   7.222 -0.2517  0.5432 -0.2741
 1610SOL    HW2 7723   6.759   1.877   7.121 -0.3710  0.3579 -0.2063
 1611SOL     OW 7724   2.939   4.573   3.498  0.4050 -0.3047  0.4149
 1611SOL    HW1 7725   3.020   4.544   3.541  0.2275  0.3418  1.2152
 1611SOL    HW2 7726   2.895   4.627   3.564 -0.7106 -0.6938  0.0071
 1612SOL     OW 7727   7.147   7.783   4.041  0.0709 -0.1272 -0.6100
 1612SOL    HW1 7728   7.084   7.813   4.106  1.6693  1.8051  0.1121
 1612SOL    HW2 7729   7.092   7.757   3.966 -1.6214  0.7332  0.2689
 1613SOL     OW 7730   4.208   3.901   5.255 -0.1744  0.4494  0.2827
 1613SOL    HW1 7731   4.200   3.810   5.225  0.7136  0.0281  1.2468
 1613SOL    HW2 7732   4.247   3.947   5.181 -1.0488  0.1531 -0.3821
 1614SOL     OW 7733   0.482   4.802   8.951  0.2213 -0.4939 -0.5276
 1614SOL    HW1 7734   0.454   4.876   9.004 -0.3318  0.0985 -1.5967
 1614SOL    HW2 7735   0.567   4.776   8.987  1.2655  1.7727 -1.1706
 1615SOL     OW 7736   1.695   0.280   7.207 -0.5759 -0.0564  0.4443
 1615SOL    HW1 7737   1.637   0.210   7.176 -0.5488  0.5499 -1.0956
 1615SOL    HW2 7738   1.769   0.278   7.147 -0.2760  0.8930  0.7626
 1616SOL     OW 7739   7.168   2.672   2.398 -0.8015 -0.0777 -0.6533
 1616SOL    HW1 7740   7.190   2.610   2.468  0.0169  0.5711 -0.3208
 1616SOL    HW2 7741   7.247   2.724   2.386 -1.5585  1.0962 -0.7246
 1617SOL     OW 7742   5.901   6.065   8.812 -0.0120  0.0914  0.0515
 1617SOL    HW1 7743   5.811   6.037   8.797  0.8450 -1.5611 -2.6338
 1617SOL    HW2 7744   5.931   6.096   8.726  2.2716 -0.3283  0.6381
 1618SOL     OW 7745   7.718   3.835   4.926 -0.5562 -0.2338  0.1442
 1618SOL    HW1 7746   7.636   3.883   4.925  0.3744  1.5539  2.1798
 1618SOL    HW2 7747   7.762   3.862   4.845 -0.7859  1.0157  0.4218
 1619SOL     OW 7748   4.928   3.119   3.153 -0.3295 -0.3383  0.1150
 1619SOL    HW1 7749   5.020   3.095   3.157 -0.0896 -0.4563 -3.3543
 1619SOL    HW2 7750   4.881   3.038   3.174  0.2599 -0.2529  1.9966
 1620SOL     OW 7751   3.890   8.338   3.225 -0.4090  0.2272 -0.0840
 1620SOL    HW1 7752   3.925   8.285   3.297  1.3540  0.2462 -0.8739
 1620SOL    HW2 7753   3.847   8.275   3.167  1.0796 -0.2855 -0.6703
 1621SOL     OW 7754   4.529   4.113   4.031  0.3242 -0.3353  0.2737
 1621SOL    HW1 7755   4.570   4.030   4.007  1.4254  0.4845 -0.8390
 1621SOL    HW2 7756   4.455   4.088   4.086 -1.6453 -2.3165 -2.9319
 1622SOL     OW 7757   5.450   4.039   4.428  0.6403  0.4591 -0.1680
 1622SOL    HW1 7758   5.385   4.109   4.439  2.8758  2.6745  0.0321
 1622SOL    HW2 7759   5.521   4.080   4.378  1.2703 -2.2969 -1.7355
 1623SOL     OW 7760   7.132   8.125   0.089  0.2748  0.1591  0.1281
 1623SOL    HW1 7761   7.101   8.037   0.109 -0.4731 -0.1836 -2.2906
 1623SOL    HW2 7762   7.173   8.154   0.171  1.0217 -2.6035  0.8578
 1624SOL     OW 7763   6.932   8.636   2.700  0.7212 -0.4436  0.7579
 1624SOL    HW1 7764   6.947   8.580   2.623 -0.1470  0.0474  0.2199
 1624SOL    HW2 7765   7.015   8.634   2.747  1.7611  0.3916 -0.9387
 1625SOL     OW 7766   8.507   6.602   7.247  0.0942 -0.2156  0.0733
 1625SOL    HW1 7767   8.448   6.531   7.221  1.1320 -0.7657 -0.8708
 1625SOL    HW2 7768   8.595   6.565   7.239  0.5858  0.3894  2.0483
 1626SOL     OW 7769   9.020   9.374   7.571 -0.1671 -0.4396 -0.1062
 1626SOL    HW1 7770   8.929   9.374   7.542 -0.5063 -2.7335  0.7686
 1626SOL    HW2 7771   9.066   9.324   7.504  0.1509 -0.6736  0.2883
 1627SOL     OW 7772   7.937   2.677   7.212 -0.2092  0.5221 -0.7393
 1627SOL    HW1 7773   7.850   2.717   7.215  0.2355  1.5404 -0.9637
 1627SOL    HW2 7774   7.932   2.614   7.140 -1.2456 -0.6488  0.3108
 1628SOL     OW 7775   0.901   8.392   6.795 -0.0967 -0.2601 -0.2593
 1628SOL    HW1 7776   0.957   8.323   6.760 -0.3561 -0.4554 -0.2936
 1628SOL    HW2 7777   0.959   8.445   6.848  0.4129  0.3243 -1.3677
 1629SOL     OW 7778   8.220   0.147   3.167 -0.0276 -0.2751 -0.3719
 1629SOL    HW1 7779   8.281   0.153   3.241 -2.3451 -0.2997  1.6501
 1629SOL    HW2 7780   8.215   0.053   3.148  0.7396 -0.2505 -0.7149
 1630SOL     OW 7781   0.901   0.740   0.636  0.3753 -0.3454  0.3286
 1630SOL    HW1 7782   0.962   0.708   0.701  2.0484  0.1602 -0.9220
 1630SOL    HW2 7783   0.956   0.782   0.569 -1.4993  3.6846  0.9908
 1631SOL     OW 7784   2.958   0.567   1.621 -0.3593 -0.6261  0.3161
 1631SOL    HW1 7785   2.891   0.498   1.625  0.0850 -1.0408  0.7334
 1631SOL    HW2 7786   2.910   0.648   1.638 -0.8562 -0.8524  0.0152
 1632SOL     OW 7787   1.264   1.056   7.977 -0.0675  0.2354  0.4950
 1632SOL    HW1 7788   1.296   1.096   8.058  2.4541  1.1942 -0.8639
 1632SOL    HW2 7789   1.183   1.103   7.958  0.8615  2.1070  0.9337
 1633SOL     OW 7790   1.808   7.891   7.031 -0.3357  0.1530 -0.0801
 1633SOL    HW1 7791   1.751   7.862   6.961  1.0874 -0.4156 -1.0612
 1633SOL    HW2 7792   1.860   7.962   6.992  1.1100 -0.7720  0.0627
 1634SOL     OW 7793   2.092   3.175   5.014 -0.0601  0.1056  0.5721
 1634SOL    HW1 7794   2.001   3.176   4.984  0.3839  1.8260 -0.9347
 1634SOL    HW2 7795   2.140   3.138   4.940  0.4917 -0.7676  1.3518
 1635SOL     OW 7796   4.137   4.392   7.117 -0.2006 -0.3629  0.3268
 1635SOL    HW1 7797   4.103   4.450   7.049 -0.2370 -1.8847 -1.0202
 1635SOL    HW2 7798   4.229   4.418   7.127 -0.4687  0.5540  0.4604
 1636SOL     OW 7799   4.895   6.001   2.640 -1.0569  0.5211 -0.1898
 1636SOL    HW1 7800   4.949   6.057   2.695  0.4312 -0.6864 -0.3671
 1636SOL    HW2 7801   4.900   6.041   2.553  0.7938 -0.3329 -0.5340
 1637SOL     OW 7802   0.412   8.512   5.199 -0.0777 -0.4826 -0.3354
 1637SOL    HW1 7803   0.330   8.558   5.178  1.3862  1.3546 -2.4772
 1637SOL    HW2 7804   0.391   8.419   5.187 -1.6387  0.0072 -1.7401
 1638SOL     OW 7805   8.760   5.954   4.105 -0.2997  0.5012 -0.1106
 1638SOL    HW1 7806   8.735   6.020   4.169  0.6668  1.3522 -0.5789
 1638SOL    HW2 7807   8.848   5.926   4.133 -0.7546 -0.6993  0.1656
 1639SOL     OW 7808   4.793   0.067   7.502  0.0190  0.0555 -0.1567
 1639SOL    HW1 7809   4.852   0.090   7.574  2.0582  1.7077 -2.2073
 1639SOL    HW2 7810   4.768   0.152   7.464 -1.0869 -0.7668 -1.3523
 1640SOL     OW 7811   4.933   0.175   4.467  0.2750 -0.2629  0.1180
 1640SOL    HW1 7812   4.870   0.230   4.512 -0.1273 -0.4783 -0.1793
 1640SOL    HW2 7813   4.995   0.236   4.427 -0.7803  0.0185 -1.1212
 1641SOL     OW 7814   4.455   5.707   3.004 -0.5040  0.2137 -0.3064
 1641SOL    HW1 7815   4.471   5.798   2.979 -0.0048  0.5629  1.2016
 1641SOL    HW2 7816   4.405   5.713   3.085  0.7507 -0.8273  0.5857
 1642SOL     OW 7817   0.499   2.390   0.593 -0.4497 -0.5346 -0.2626
 1642SOL    HW1 7818   0.440   2.327   0.553  0.5890 -0.6050 -1.7837
 1642SOL    HW2 7819   0.584   2.373   0.552  0.1484  0.9777  0.2583
 1643SOL     OW 7820   1.545   7.694   7.309 -0.3440  0.3468  0.4279
 1643SOL    HW1 7821   1.555   7.780   7.268 -0.8664  1.0833  1.7874
 1643SOL    HW2 7822   1.598   7.699   7.389  0.2669 -0.8867  0.1254
 1644SOL     OW 7823   0.796   8.290   4.639 -0.1043 -0.4940  0.2113
 1644SOL    HW1 7824   0.717   8.344   4.636  0.8228  0.8817 -1.8754
 1644SOL    HW2 7825   0.866   8.353   4.656  0.8293 -1.2926 -0.5951
 1645SOL     OW 7826   4.259   9.449   7.103 -0.0687  0.2853 -0.3991
 1645SOL    HW1 7827   4.187   9.391   7.124 -0.2026  0.8531  0.8132
 1645SOL    HW2 7828   4.231   9.535   7.135  2.2885 -0.0020  2.9434
 1646SOL     OW 7829   2.472   4.671   0.950 -0.4618  0.2803  0.0640
 1646SOL    HW1 7830   2.507   4.637   1.032  2.4357 -0.4668 -1.3327
 1646SOL    HW2 7831   2.473   4.596   0.890 -2.2884  0.8460 -0.7444
 1647SOL     OW 7832   2.856   2.870   4.897  0.3923  0.1486  0.0658
 1647SOL    HW1 7833   2.854   2.964   4.881 -1.5418 -0.0221 -1.0171
 1647SOL    HW2 7834   2.766   2.848   4.920  0.6198 -1.5440 -0.5375
 1648SOL     OW 7835   1.471   9.001   5.288  0.0167  0.1310  0.4283
 1648SOL    HW1 7836   1.535   9.066   5.260 -0.8107  1.3556  1.2842
 1648SOL    HW2 7837   1.387   9.036   5.260 -0.4540 -0.5297  0.9836
 1649SOL     OW 7838   7.244   8.810   0.398  0.4297 -0.1223  0.0615
 1649SOL    HW1 7839   7.251   8.768   0.484  1.4317 -1.9018 -0.8391
 1649SOL    HW2 7840   7.220   8.901   0.418 -0.3335 -0.7196  2.1624
 1650SOL     OW 7841   7.805   1.303   2.677 -0.1921 -0.3808  0.1839
 1650SOL    HW1 7842   7.894   1.275   2.698 -0.6612 -0.2700  2.6457
 1650SOL    HW2 7843   7.767   1.230   2.628  0.6239 -1.2928  0.8714
 1651SOL     OW 7844   1.102   3.420   2.310  0.2863 -0.8878 -0.2294
 1651SOL    HW1 7845   1.083   3.493   2.369 -0.6177 -0.4226 -1.0867
 1651SOL    HW2 7846   1.198   3.422   2.301  0.2368  0.4864 -0.6215
 1652SOL     OW 7847   8.777   4.577   4.402  0.2832 -0.0456 -0.0767
 1652SOL    HW1 7848   8.805   4.659   4.443  0.8997  0.0218 -0.6104
 1652SOL    HW2 7849   8.839   4.564   4.331 -0.4026 -0.4834 -0.6023
 1653SOL     OW 7850   5.363   9.047   9.193 -0.3315 -0.7946  0.0925
 1653SOL    HW1 7851   5.349   8.976   9.131  1.4505 -2.3790  1.3876
 1653SOL    HW2 7852   5.455   9.038   9.219  0.6658  3.2221 -1.1482
 1654SOL     OW 7853   3.328   2.903   0.209 -0.2956  0.1925 -0.1237
 1654SOL    HW1 7854   3.416   2.934   0.186  0.6791 -2.4343 -0.3132
 1654SOL    HW2 7855   3.270   2.954   0.152  1.3371  0.2415 -1.8806
 1655SOL     OW 7856   5.111   5.527   7.966  0.5822 -0.3103  0.0516
 1655SOL    HW1 7857   5.149   5.454   7.917  2.0387 -0.6572  1.5774
 1655SOL    HW2 7858   5.146   5.605   7.924  0.2912 -0.5376 -0.6186
 1656SOL     OW 7859   8.382   1.006   7.608 -0.3464 -0.2762 -0.3557
 1656SOL    HW1 7860   8.462   1.053   7.584  0.4297 -1.9757 -1.2572
 1656SOL    HW2 7861   8.313   1.049   7.557  0.4320 -0.4527 -1.5830
 1657SOL     OW 7862   2.029   8.730   8.848  0.6609 -0.5946  0.4898
 1657SOL    HW1 7863   1.974   8.790   8.898  0.5330  0.0031 -0.3493
 1657SOL    HW2 7864   2.118   8.765   8.858  0.2148  2.4630 -3.4859
 1658SOL     OW 7865   3.275   0.880   2.817  0.9058  0.6812 -0.0586
 1658SOL    HW1 7866   3.340   0.882   2.888  1.0836  0.9279 -0.2267
 1658SOL    HW2 7867   3.198   0.839   2.856  1.5704 -0.7421 -0.2042
 1659SOL     OW 7868   2.643   9.452   2.535 -0.0726 -0.5029 -0.2168
 1659SOL    HW1 7869   2.683   9.379   2.488  0.1614  0.0687 -0.9387
 1659SOL    HW2 7870   2.563   9.416   2.573  0.0599 -1.1406 -0.5245
 1660SOL     OW 7871   3.152   4.807   0.751  0.4188 -0.5483  0.5183
 1660SOL    HW1 7872   3.118   4.831   0.665 -2.0053 -0.0430  1.5230
 1660SOL    HW2 7873   3.168   4.713   0.745 -1.3945 -0.8669 -0.0213
 1661SOL     OW 7874   2.128   0.868   0.545 -0.1639 -0.1979  0.6329
 1661SOL    HW1 7875   2.079   0.787   0.532  0.0357 -0.3397  0.7624
 1661SOL    HW2 7876   2.198   0.865   0.480  0.8554 -0.9244  1.7285
 1662SOL     OW 7877   9.590   2.382   7.517  0.0963  0.6225  0.0152
 1662SOL    HW1 7878   9.680   2.412   7.501 -0.4618  1.3148 -2.2765
 1662SOL    HW2 7879   9.591   2.290   7.490 -0.0840  0.9080 -1.0178
 1663SOL     OW 7880   0.936   5.112   0.203  0.0059 -0.6451  0.3054
 1663SOL    HW1 7881   0.864   5.136   0.262 -0.3882 -0.6966 -0.1503
 1663SOL    HW2 7882   0.951   5.190   0.150 -1.2081 -1.3167 -1.1095
 1664SOL     OW 7883   8.526   7.023   8.000  0.2562  0.3786  0.5140
 1664SOL    HW1 7884   8.541   7.115   8.022  0.1668  0.2252  1.2398
 1664SOL    HW2 7885   8.443   7.022   7.953  0.4247  0.7126  0.2133
 1665SOL     OW 7886   8.363   4.568   6.970  0.2390  0.5503  0.6017
 1665SOL    HW1 7887   8.372   4.558   7.065 -2.3033  0.4706  0.8955
 1665SOL    HW2 7888   8.316   4.651   6.959  0.0466  0.3031 -0.5649
 1666SOL     OW 7889   5.510   3.023   2.562  0.0319 -0.2016  0.1284
 1666SOL    HW1 7890   5.599   2.990   2.555 -0.3721 -1.5671  0.9885
 1666SOL    HW2 7891   5.489   3.056   2.475  0.5220 -2.1671 -0.7893
 1667SOL     OW 7892   0.396   2.320   4.921  0.3526 -0.8028 -0.4833
 1667SOL    HW1 7893   0.402   2.408   4.884 -1.3445 -0.6068 -0.3644
 1667SOL    HW2 7894   0.340   2.272   4.860 -0.8301 -1.0403  0.7333
 1668SOL     OW 7895   4.477   5.552   7.823 -0.3810 -0.5204  0.3356
 1668SOL    HW1 7896   4.489   5.596   7.908 -0.1357  1.1096 -0.5044
 1668SOL    HW2 7897   4.407   5.601   7.780  0.3307 -0.5455 -0.8965
 1669SOL     OW 7898   5.044   9.366   6.158  0.2101 -0.0506  0.7322
 1669SOL    HW1 7899   5.030   9.458   6.137  0.2741 -0.3855 -0.9038
 1669SOL    HW2 7900   5.138   9.354   6.154  0.1160 -0.5818 -1.0845
 1670SOL     OW 7901   3.915   8.570   5.563  0.4721  0.3455 -0.1138
 1670SOL    HW1 7902   3.950   8.488   5.597 -2.5905 -0.5897  1.1434
 1670SOL    HW2 7903   3.900   8.624   5.640  0.2423  1.1364 -0.6964
 1671SOL     OW 7904   8.747   7.790   6.016  0.2325  0.2829 -0.1048
 1671SOL    HW1 7905   8.694   7.869   6.021  0.5075  0.4177  0.9465
 1671SOL    HW2 7906   8.834   7.818   6.044 -0.1098 -0.7674  2.2233
 1672SOL     OW 7907   5.476   6.624   9.534  0.3184  0.0990 -0.6092
 1672SOL    HW1 7908   5.559   6.604   9.492 -0.1818 -0.7936 -1.2121
 1672SOL    HW2 7909   5.482   6.583   9.620  0.7808  0.6865 -0.3511
 1673SOL     OW 7910   0.511   6.235   3.101 -0.1762 -0.9230 -0.0841
 1673SOL    HW1 7911   0.496   6.143   3.079  0.2810 -0.4540 -2.7530
 1673SOL    HW2 7912   0.526   6.278   3.016 -0.0707  1.5669  1.0911
 1674SOL     OW 7913   7.444   1.015   9.039 -0.0454 -0.0967  0.4160
 1674SOL    HW1 7914   7.390   1.040   8.964  0.6664 -0.8591 -0.3937
 1674SOL    HW2 7915   7.467   1.097   9.081  0.9384  0.5188 -1.2197
 1675SOL     OW 7916   6.462   8.657   5.085  0.5823 -1.0892 -0.2447
 1675SOL    HW1 7917   6.474   8.623   4.996 -0.4369  0.5676 -1.0648
 1675SOL    HW2 7918   6.487   8.584   5.142 -0.2523 -2.7488 -1.8789
 1676SOL     OW 7919   2.532   6.595   4.213  0.1704 -0.4143 -0.5081
 1676SOL    HW1 7920   2.537   6.531   4.284  0.5635  0.0867 -0.0735
 1676SOL    HW2 7921   2.453   6.571   4.165 -0.8905  0.0635  0.9128
 1677SOL     OW 7922   2.240   0.499   7.198  0.5678 -0.4456  0.5712
 1677SOL    HW1 7923   2.301   0.537   7.135 -1.1915  1.0949 -0.2858
 1677SOL    HW2 7924   2.205   0.422   7.155  1.5624 -1.1009  0.9021
 1678SOL     OW 7925   8.043   2.756   2.043  0.3099 -0.0405  0.2882
 1678SOL    HW1 7926   8.101   2.830   2.059 -0.5720  1.0623 -1.2780
 1678SOL    HW2 7927   8.070   2.722   1.958  1.2286 -2.0842  1.3458
 1679SOL     OW 7928   8.811   8.055   6.262  0.2033 -0.5665  0.4006
 1679SOL    HW1 7929   8.731   8.106   6.277  1.1803  0.9159  0.7885
 1679SOL    HW2 7930   8.850   8.095   6.184  0.3419 -1.5809 -0.0622
 1680SOL     OW 7931   8.594   0.789   0.938  0.0047  0.3694 -0.3982
 1680SOL    HW1 7932   8.559   0.700   0.948 -0.1009  0.3911 -0.5814
 1680SOL    HW2 7933   8.572   0.814   0.849 -0.8632  0.9682 -0.0256
 1681SOL     OW 7934   8.802   7.183   1.769  0.0800 -0.1736  0.2214
 1681SOL    HW1 7935   8.785   7.179   1.863  1.8505 -0.3810  0.5627
 1681SOL    HW2 7936   8.782   7.094   1.738  0.3513 -0.3526  0.5560
 1682SOL     OW 7937   6.213   1.634   9.643  0.0045 -0.0913  0.1941
 1682SOL    HW1 7938   6.273   1.563   9.669  2.3406  1.9100  0.6656
 1682SOL    HW2 7939   6.211   1.629   9.547  0.9935 -0.1779  0.1672
 1683SOL     OW 7940   2.450   4.193   2.609  0.7249  0.0935  0.1983
 1683SOL    HW1 7941   2.418   4.123   2.665  1.3973 -0.2314  0.1854
 1683SOL    HW2 7942   2.545   4.181   2.607  0.6557 -0.4313 -1.6812
 1684SOL     OW 7943   7.765   8.917   1.509 -0.0153  0.1627  0.0492
 1684SOL    HW1 7944   7.777   8.966   1.427 -2.1200  1.3971  0.3999
 1684SOL    HW2 7945   7.702   8.849   1.487 -0.6303  0.5300  0.6179
 1685SOL     OW 7946   3.014   2.217   8.892 -0.2842 -0.0578 -0.2760
 1685SOL    HW1 7947   3.100   2.185   8.864  0.7187  1.9733  0.3326
 1685SOL    HW2 7948   2.961   2.216   8.813  0.9511  0.6671 -1.1384
 1686SOL     OW 7949   9.382   6.914   4.023  0.0173 -0.6371 -1.0567
 1686SOL    HW1 7950   9.426   6.847   3.972  0.5080  0.0517 -1.5648
 1686SOL    HW2 7951   9.290   6.908   3.999 -0.0729 -1.6367 -0.5027
 1687SOL     OW 7952   3.954   5.767   3.201  0.2619 -0.1816 -0.5157
 1687SOL    HW1 7953   3.969   5.712   3.125  0.8113  1.1524 -1.4055
 1687SOL    HW2 7954   4.029   5.827   3.203  0.3231 -0.2699  1.1441
 1688SOL     OW 7955   6.747   6.335   4.053 -0.2888 -0.4247  0.5458
 1688SOL    HW1 7956   6.754   6.424   4.017 -1.4989  0.5130  2.4491
 1688SOL    HW2 7957   6.762   6.277   3.978 -0.1371  1.3857 -0.8842
 1689SOL     OW 7958   6.019   3.587   9.577 -0.6002  0.3988 -0.3590
 1689SOL    HW1 7959   6.026   3.498   9.541  0.1960  0.0063  0.7276
 1689SOL    HW2 7960   6.106   3.606   9.611 -0.9799  1.2866  0.1350
 1690SOL     OW 7961   5.871   0.550   8.313  0.3713  0.4601 -0.1208
 1690SOL    HW1 7962   5.957   0.592   8.305  0.8270  0.5693  3.4838
 1690SOL    HW2 7963   5.891   0.457   8.323 -0.0229  0.3524 -0.3156
 1691SOL     OW 7964   4.880   2.492   1.755 -0.4588  0.2309 -0.0977
 1691SOL    HW1 7965   4.932   2.572   1.753  1.1410 -0.7098  1.1869
 1691SOL    HW2 7966   4.926   2.434   1.816 -1.7672 -1.5338 -0.6739
 1692SOL     OW 7967   2.237   2.962   7.189  0.2410  0.3500 -0.1021
 1692SOL    HW1 7968   2.302   2.895   7.166 -0.0498  0.1933 -0.4785
 1692SOL    HW2 7969   2.163   2.912   7.225  0.4613  0.5504  0.6580
 1693SOL     OW 7970   3.528   9.209   5.330  0.0822  0.5710  0.1657
 1693SOL    HW1 7971   3.461   9.262   5.373 -0.2730 -0.2617  0.6504
 1693SOL    HW2 7972   3.548   9.257   5.250 -1.7489  0.3945 -0.4421
 1694SOL     OW 7973   2.572   1.251   7.715 -0.4994  0.5450 -0.2179
 1694SOL    HW1 7974   2.559   1.309   7.639  0.2958  1.9328  0.6622
 1694SOL    HW2 7975   2.619   1.305   7.778  2.5563 -1.7711 -0.2823
 1695SOL     OW 7976   6.688   5.746   6.974 -0.4477  0.4360  0.2891
 1695SOL    HW1 7977   6.649   5.808   6.912 -0.5802 -0.7408 -0.8422
 1695SOL    HW2 7978   6.735   5.802   7.036 -1.0824  1.7045 -0.3241
 1696SOL     OW 7979   7.858   0.450   6.084 -0.6279 -0.2415  0.1593
 1696SOL    HW1 7980   7.771   0.413   6.099 -0.5361 -1.0250 -1.0427
 1696SOL    HW2 7981   7.845   0.515   6.015 -0.2822 -0.3115  0.0254
 1697SOL     OW 7982   8.333   4.265   5.966 -0.3946 -0.3414 -0.2405
 1697SOL    HW1 7983   8.360   4.329   5.900 -0.6338 -0.7130 -0.7070
 1697SOL    HW2 7984   8.237   4.272   5.967 -0.3590  2.6896  3.0981
 1698SOL     OW 7985   4.906   4.630   8.480 -0.4054 -0.3656  0.2976
 1698SOL    HW1 7986   4.821   4.593   8.455 -0.3969 -0.2862  0.1514
 1698SOL    HW2 7987   4.959   4.623   8.400 -0.0311 -1.1227  0.6057
 1699SOL     OW 7988   5.596   5.970   5.606 -0.3362 -0.2684 -0.3617
 1699SOL    HW1 7989   5.577   5.939   5.518 -0.3132  0.5541 -0.6674
 1699SOL    HW2 7990   5.634   5.894   5.651  0.2965 -0.5031 -1.2717
 1700SOL     OW 7991   1.500   5.797   1.306 -0.1311  0.1357 -0.2960
 1700SOL    HW1 7992   1.487   5.835   1.219  2.8343  1.4373 -0.2961
 1700SOL    HW2 7993   1.510   5.873   1.363  1.0645 -0.6498  0.5891
 1701SOL     OW 7994   3.055   3.891   1.607 -0.0608 -0.1005  0.0019
 1701SOL    HW1 7995   2.995   3.893   1.682 -1.1369 -1.0713 -0.8009
 1701SOL    HW2 7996   3.003   3.923   1.534  0.6665 -0.1722 -0.5569
 1702SOL     OW 7997   1.390   0.711   9.055  0.0147  0.4021 -0.2870
 1702SOL    HW1 7998   1.409   0.774   9.125 -0.2277 -0.7630  0.8639
 1702SOL    HW2 7999   1.299   0.728   9.031 -0.0311  0.5244 -0.0244
 1703SOL     OW 8000   6.150   6.769   4.723  0.0821  0.1636  0.3659
 1703SOL    HW1 8001   6.114   6.841   4.671 -0.9483  0.1435  1.0353
 1703SOL    HW2 8002   6.237   6.800   4.750  0.8153  0.0253 -1.6593
 1704SOL     OW 8003   1.909   5.146   4.415  0.1109  0.0740 -0.8014
 1704SOL    HW1 8004   1.832   5.106   4.376  0.1583 -0.8160 -0.0141
 1704SOL    HW2 8005   1.946   5.078   4.471 -0.2351  1.4634  1.1965
 1705SOL     OW 8006   5.634   3.245   1.668 -0.3940 -0.2782  0.2809
 1705SOL    HW1 8007   5.630   3.336   1.640 -0.8280 -0.5352 -0.5519
 1705SOL    HW2 8008   5.604   3.195   1.591  2.0130 -1.2781 -0.1120
 1706SOL     OW 8009   5.583   9.435   7.890  0.3708  0.1261 -0.3063
 1706SOL    HW1 8010   5.633   9.486   7.826  1.8061  0.8686  1.3487
 1706SOL    HW2 8011   5.491   9.458   7.871  0.8376  1.3437 -1.2506
 1707SOL     OW 8012   5.080   4.082   8.800  0.2796 -0.2564  0.2738
 1707SOL    HW1 8013   4.997   4.039   8.775  0.0744 -0.0523  0.6008
 1707SOL    HW2 8014   5.114   4.028   8.870 -0.0090  0.1435  0.7266
 1708SOL     OW 8015   3.708   7.356   3.948  0.0551  0.2331  0.2227
 1708SOL    HW1 8016   3.731   7.425   4.010  2.0214  1.1690 -1.4246
 1708SOL    HW2 8017   3.658   7.400   3.880  1.4665  0.1175 -0.9285
 1709SOL     OW 8018   3.378   8.621   4.325 -0.1854  0.1349 -0.1727
 1709SOL    HW1 8019   3.298   8.592   4.369  0.6105 -1.4610  0.2743
 1709SOL    HW2 8020   3.358   8.710   4.296 -2.3495 -0.4633 -0.6601
 1710SOL     OW 8021   4.546   7.135   5.850  0.0405 -0.1019 -0.0265
 1710SOL    HW1 8022   4.576   7.102   5.935  1.2594  1.5715  0.2452
 1710SOL    HW2 8023   4.497   7.062   5.812  0.9807 -1.5226  1.3457
 1711SOL     OW 8024   6.889   3.285   1.809 -0.2720  0.3682 -0.8226
 1711SOL    HW1 8025   6.829   3.210   1.808 -2.2504  1.8598 -0.9888
 1711SOL    HW2 8026   6.948   3.268   1.882 -1.3447 -0.8585 -0.1994
 1712SOL     OW 8027   1.229   7.346   6.142  0.1293 -0.0247  0.3863
 1712SOL    HW1 8028   1.179   7.415   6.097  0.8462  0.9789  1.0730
 1712SOL    HW2 8029   1.233   7.274   6.079 -2.4250 -0.2742  0.4214
 1713SOL     OW 8030   2.686   1.786   0.240  0.3747  0.1783  0.2255
 1713SOL    HW1 8031   2.609   1.762   0.188 -0.0557  1.5010  0.1945
 1713SOL    HW2 8032   2.672   1.879   0.261  2.1440  0.5504 -0.0860
 1714SOL     OW 8033   1.529   1.046   2.347  0.3600 -0.6832  0.0240
 1714SOL    HW1 8034   1.595   1.013   2.286  0.4470 -0.4074 -0.0342
 1714SOL    HW2 8035   1.556   1.013   2.432  1.4876  0.7343  0.2603
 1715SOL     OW 8036   7.816   5.038   6.771 -0.5385  0.4064 -0.2166
 1715SOL    HW1 8037   7.730   5.066   6.803 -0.3760  1.5024 -0.6941
 1715SOL    HW2 8038   7.801   5.008   6.682 -0.4422  0.4858 -0.2597
 1716SOL     OW 8039   4.277   0.442   3.335  0.2889 -0.1291  0.1883
 1716SOL    HW1 8040   4.274   0.350   3.311  1.4248  0.3994 -2.3444
 1716SOL    HW2 8041   4.191   0.476   3.311  0.6108 -0.1175 -1.0413
 1717SOL     OW 8042   1.661   1.420   1.689  0.0028 -0.3419 -0.2958
 1717SOL    HW1 8043   1.598   1.353   1.661 -0.6224 -0.1300  0.5605
 1717SOL    HW2 8044   1.715   1.377   1.756 -0.6983  0.1184  0.5932
 1718SOL     OW 8045   5.410   2.648   7.821 -0.1032  0.0438 -0.5646
 1718SOL    HW1 8046   5.469   2.640   7.746  0.6028 -0.3965  0.0228
 1718SOL    HW2 8047   5.338   2.703   7.790 -0.1475 -0.6617 -1.7625
 1719SOL     OW 8048   0.849   1.700   4.356 -0.1152 -0.1431 -0.5198
 1719SOL    HW1 8049   0.841   1.615   4.315 -0.7881 -0.6035  0.5206
 1719SOL    HW2 8050   0.941   1.706   4.382  0.3509  0.2104 -2.1459
 1720SOL     OW 8051   4.847   3.523   7.059  0.0707  0.6065  0.0462
 1720SOL    HW1 8052   4.851   3.591   6.992  3.0872  0.3347 -0.1783
 1720SOL    HW2 8053   4.783   3.556   7.122 -2.3592  1.1880 -2.5210
 1721SOL     OW 8054   8.086   3.435   2.133  0.5003  0.0354  0.2262
 1721SOL    HW1 8055   8.061   3.348   2.101 -1.3598 -0.0498  1.6779
 1721SOL    HW2 8056   8.141   3.418   2.209 -0.9236  0.0483  1.3002
 1722SOL     OW 8057   8.676   1.009   8.670 -0.3255 -0.1827  0.2344
 1722SOL    HW1 8058   8.645   0.959   8.595  0.5446  1.0928 -1.0280
 1722SOL    HW2 8059   8.684   0.945   8.741 -1.2970 -1.3826 -0.7059
 1723SOL     OW 8060   4.600   9.376   5.657 -0.2100  0.7746 -0.3903
 1723SOL    HW1 8061   4.561   9.311   5.598  0.7854  0.6726 -0.9530
 1723SOL    HW2 8062   4.532   9.443   5.666 -0.3800  0.8100 -1.6875
 1724SOL     OW 8063   2.592   3.093   9.314 -0.7496 -0.3664 -0.0298
 1724SOL    HW1 8064   2.676   3.135   9.298  0.3291 -1.2429  2.7836
 1724SOL    HW2 8065   2.527   3.157   9.285  0.8800  1.1068 -0.5496
 1725SOL     OW 8066   2.892   3.863   1.116  0.1768  0.0879  0.2120
 1725SOL    HW1 8067   2.863   3.904   1.034 -1.1049 -1.0330  0.0614
 1725SOL    HW2 8068   2.893   3.770   1.097 -0.2231 -0.1965  1.4907
 1726SOL     OW 8069   4.002   5.069   4.179 -0.4782 -0.1257 -0.3607
 1726SOL    HW1 8070   4.093   5.063   4.209 -0.5476 -2.3684 -0.4166
 1726SOL    HW2 8071   3.974   5.156   4.206  1.3281  0.1906  0.6987
 1727SOL     OW 8072   7.462   6.350   9.360  0.0606  0.3289  0.6214
 1727SOL    HW1 8073   7.379   6.302   9.358 -2.3729  4.0966 -1.3148
 1727SOL    HW2 8074   7.486   6.358   9.268  2.1803  0.0522  1.1149
 1728SOL     OW 8075   7.388   1.884   3.035 -0.0033  0.5591  0.5423
 1728SOL    HW1 8076   7.475   1.912   3.006 -0.3052  1.1785  0.2287
 1728SOL    HW2 8077   7.385   1.909   3.127  0.8574 -1.1754  1.0941
 1729SOL     OW 8078   4.284   6.422   0.150 -0.0827  0.5864 -0.5059
 1729SOL    HW1 8079   4.341   6.498   0.164 -1.3507  1.9007 -2.1264
 1729SOL    HW2 8080   4.306   6.391   0.062 -1.6194  0.9431 -1.0453
 1730SOL     OW 8081   7.496   6.334   6.130 -0.6907  0.7003 -0.3190
 1730SOL    HW1 8082   7.402   6.344   6.146 -0.3410  1.6058  1.3799
 1730SOL    HW2 8083   7.526   6.274   6.198  0.5230  3.1615  1.5024
 1731SOL     OW 8084   5.688   2.061   2.050  0.0521  0.0749  0.5370
 1731SOL    HW1 8085   5.646   2.101   2.126 -0.4781 -1.5269  1.1359
 1731SOL    HW2 8086   5.744   1.992   2.087 -0.3576 -0.8634 -0.5202
 1732SOL     OW 8087   4.137   6.720   9.435  0.1787  0.2157 -0.0537
 1732SOL    HW1 8088   4.137   6.732   9.340  0.6416 -0.4418 -0.1410
 1732SOL    HW2 8089   4.165   6.630   9.448  2.3822  0.9578  0.7933
 1733SOL     OW 8090   9.117   4.643   2.162 -0.4162 -0.1647 -0.1379
 1733SOL    HW1 8091   9.210   4.626   2.145 -0.3137  0.0389  0.2208
 1733SOL    HW2 8092   9.108   4.738   2.154 -0.3901 -0.0762  0.8059
 1734SOL     OW 8093   1.881   4.817   7.900  0.5173  0.6536  0.3171
 1734SOL    HW1 8094   1.820   4.797   7.828 -0.2758  2.6713  0.3744
 1734SOL    HW2 8095   1.967   4.813   7.859  0.2027  0.0592 -0.3249
 1735SOL     OW 8096   5.906   4.627   5.074  0.1013 -0.4202 -0.1502
 1735SOL    HW1 8097   5.941   4.552   5.025  0.0760  0.7375 -2.0273
 1735SOL    HW2 8098   5.815   4.634   5.045 -0.3206 -0.4968  1.0951
 1736SOL     OW 8099   4.151   2.938   2.806 -0.2787 -0.1194  0.9999
 1736SOL    HW1 8100   4.212   3.008   2.783 -0.1373 -0.1625  1.2376
 1736SOL    HW2 8101   4.201   2.858   2.792  0.2747 -0.1167  2.7384
 1737SOL     OW 8102   4.641   5.562   6.201 -0.1022  0.0275  0.0126
 1737SOL    HW1 8103   4.680   5.510   6.271 -1.3967  1.8024  2.2070
 1737SOL    HW2 8104   4.620   5.499   6.132  2.1754 -1.6511  0.7388
 1738SOL     OW 8105   5.880   9.473   4.152  0.3404  0.1061 -0.3419
 1738SOL    HW1 8106   5.823   9.497   4.225  1.1879 -1.5257  0.9019
 1738SOL    HW2 8107   5.960   9.439   4.193  1.2695  0.1189 -2.0356
 1739SOL     OW 8108   1.239   0.042   0.672  0.4532  0.1795 -0.5758
 1739SOL    HW1 8109   1.270  -0.021   0.737 -2.1267 -0.8800 -0.2298
 1739SOL    HW2 8110   1.313   0.054   0.613  2.0766 -0.7026  1.1596
 1740SOL     OW 8111   6.125   1.576   8.530  1.2213 -0.0077 -0.2841
 1740SOL    HW1 8112   6.107   1.525   8.452  0.7966  1.7023 -1.3620
 1740SOL    HW2 8113   6.066   1.542   8.597 -0.1405  0.0905 -1.4145
 1741SOL     OW 8114   9.269   6.788   5.829 -0.7580 -0.1249  0.4204
 1741SOL    HW1 8115   9.295   6.733   5.755 -0.2108  0.6547  0.0201
 1741SOL    HW2 8116   9.339   6.775   5.893 -0.2635  0.6306  0.0444
 1742SOL     OW 8117   6.271   7.864   7.592 -0.3689 -0.5032 -0.4128
 1742SOL    HW1 8118   6.184   7.904   7.581 -0.1636 -0.4141 -1.9339
 1742SOL    HW2 8119   6.253   7.780   7.635 -1.2067 -0.4700 -0.6712
 1743SOL     OW 8120   9.513   4.550   1.090 -0.0991  0.2612  0.4844
 1743SOL    HW1 8121   9.599   4.556   1.049 -0.1422 -0.3624  0.2843
 1743SOL    HW2 8122   9.526   4.494   1.167 -0.7214 -1.6836 -0.7519
 1744SOL     OW 8123   6.027   5.236   8.888 -0.2114 -0.1326 -0.3310
 1744SOL    HW1 8124   6.045   5.144   8.870  0.4635 -0.5239  1.9681
 1744SOL    HW2 8125   6.113   5.275   8.905 -0.4990  0.9006 -1.1190
 1745SOL     OW 8126   8.016   1.443   6.412  0.3476  0.0911 -0.6774
 1745SOL    HW1 8127   8.054   1.358   6.391  1.8378  0.8287 -1.1596
 1745SOL    HW2 8128   8.055   1.503   6.348 -0.0160  1.2771  0.1745
 1746SOL     OW 8129   6.531   5.779   8.316  0.7460 -0.0564  0.2297
 1746SOL    HW1 8130   6.480   5.837   8.259 -0.2614 -0.2011  0.9518
 1746SOL    HW2 8131   6.499   5.797   8.404  2.4953  0.3655  0.8030
 1747SOL     OW 8132   8.322   1.970   5.647  0.6195  0.3352  0.0464
 1747SOL    HW1 8133   8.266   1.898   5.677  1.6559 -0.6308 -0.2436
 1747SOL    HW2 8134   8.405   1.927   5.625  1.0859  1.5579 -0.6419
 1748SOL     OW 8135   4.048   7.183   6.752 -0.2979  0.0651  0.2874
 1748SOL    HW1 8136   4.042   7.165   6.846 -1.1671 -0.4022  0.1601
 1748SOL    HW2 8137   3.962   7.218   6.729  0.5447  2.1227  0.0320
 1749SOL     OW 8138   9.562   4.034   8.966 -0.1911 -0.1476 -0.4787
 1749SOL    HW1 8139   9.469   4.013   8.975 -0.0281 -0.4260  0.6666
 1749SOL    HW2 8140   9.605   3.949   8.961 -0.0781 -0.0303 -2.2568
 1750SOL     OW 8141   8.229   1.744   8.790  0.4487  0.4443 -0.3709
 1750SOL    HW1 8142   8.198   1.822   8.744 -2.7225 -0.2165  0.3440
 1750SOL    HW2 8143   8.186   1.671   8.744  0.8383 -0.5995  0.8611
 1751SOL     OW 8144   1.695   5.914   8.208  0.4847 -0.4022 -0.1499
 1751SOL    HW1 8145   1.634   5.882   8.275 -0.6639 -1.8524 -1.7949
 1751SOL    HW2 8146   1.733   5.834   8.170  2.2501  0.4327 -0.2536
 1752SOL     OW 8147   1.215   8.208   6.091 -0.3659 -0.8857  0.0256
 1752SOL    HW1 8148   1.224   8.288   6.041  0.7783  0.0326  1.6148
 1752SOL    HW2 8149   1.260   8.225   6.174 -2.0232 -2.3623  1.3355
 1753SOL     OW 8150   0.759   1.630   3.096  0.3918 -0.2237  0.0191
 1753SOL    HW1 8151   0.855   1.631   3.092  0.4451  0.0543  1.2501
 1753SOL    HW2 8152   0.732   1.651   3.006  1.4825  1.0078 -0.0501
 1754SOL     OW 8153   3.058   7.555   6.127 -0.2227 -0.4858  0.1023
 1754SOL    HW1 8154   3.072   7.622   6.194 -0.4405  0.8019 -1.0982
 1754SOL    HW2 8155   3.128   7.570   6.063 -1.4604 -0.0313 -1.2101
 1755SOL     OW 8156   1.595   7.604   3.353 -0.0342 -0.2100  0.0618
 1755SOL    HW1 8157   1.634   7.543   3.291 -0.3679 -1.7668  1.3370
 1755SOL    HW2 8158   1.640   7.687   3.336  0.6811 -0.8672 -1.4501
 1756SOL     OW 8159   1.589   6.065   2.644  0.0771  0.2121  0.2483
 1756SOL    HW1 8160   1.569   6.003   2.574  0.0608 -0.1094  0.5402
 1756SOL    HW2 8161   1.684   6.077   2.639  0.0189  0.5638 -0.1400
 1757SOL     OW 8162   6.590   5.884   6.121 -0.1171  0.1403 -0.1596
 1757SOL    HW1 8163   6.659   5.824   6.151 -1.3915 -1.9415 -1.1374
 1757SOL    HW2 8164   6.631   5.934   6.050  1.9383  2.8446  2.6443
 1758SOL     OW 8165   9.188   4.944   8.120  0.2508 -0.2529 -0.8203
 1758SOL    HW1 8166   9.254   4.955   8.052  0.4702  3.3870 -0.2201
 1758SOL    HW2 8167   9.217   5.001   8.191 -1.2212 -2.0777  1.3826
 1759SOL     OW 8168   7.034   3.306   4.826 -0.3142 -0.0816  0.4363
 1759SOL    HW1 8169   7.001   3.395   4.836 -0.2687 -0.0842  0.6020
 1759SOL    HW2 8170   6.956   3.252   4.819 -0.3422 -0.0300  0.3383
 1760SOL     OW 8171   5.611   6.724   8.321 -0.1332  0.1601  0.5214
 1760SOL    HW1 8172   5.698   6.728   8.360  0.6749  1.7769 -1.2999
 1760SOL    HW2 8173   5.569   6.650   8.365  1.8360 -0.1475  2.0441
 1761SOL     OW 8174   6.948   0.722   2.606 -0.2093  0.2912 -0.6517
 1761SOL    HW1 8175   6.969   0.786   2.674 -3.0173 -1.7232  2.4519
 1761SOL    HW2 8176   7.021   0.660   2.608 -0.9589 -0.6844  2.0326
 1762SOL     OW 8177   8.244   9.324   6.246  0.0051 -0.0507 -0.1857
 1762SOL    HW1 8178   8.304   9.252   6.228 -3.4578 -3.2589 -0.1670
 1762SOL    HW2 8179   8.213   9.352   6.160  0.5176  0.6897 -0.1374
 1763SOL     OW 8180   0.689   8.406   8.755  0.2533  0.3050 -0.0450
 1763SOL    HW1 8181   0.655   8.345   8.689  0.6840 -1.5147  1.3209
 1763SOL    HW2 8182   0.623   8.475   8.760 -0.5725 -0.3477 -1.2406
 1764SOL     OW 8183   3.578   5.280   6.248  0.2142 -0.6188 -0.1033
 1764SOL    HW1 8184   3.625   5.202   6.219  1.1349 -0.3646  0.6568
 1764SOL    HW2 8185   3.531   5.253   6.327  0.6842 -0.3622  0.2678
 1765SOL     OW 8186   3.330   7.446   9.370  0.1790  0.0757 -0.0575
 1765SOL    HW1 8187   3.313   7.453   9.277  2.3933 -0.9962 -0.6235
 1765SOL    HW2 8188   3.403   7.506   9.386  0.3342 -0.3151  0.7966
 1766SOL     OW 8189   2.824   0.592   6.120  0.4545  0.3931 -0.9043
 1766SOL    HW1 8190   2.839   0.651   6.045  0.5700 -0.7606 -1.8116
 1766SOL    HW2 8191   2.909   0.586   6.163 -0.2078  3.4075  1.1678
 1767SOL     OW 8192   6.558   5.075   6.992  0.3572 -0.2410  0.2691
 1767SOL    HW1 8193   6.562   4.981   7.008  2.3037 -0.1750  0.3769
 1767SOL    HW2 8194   6.466   5.098   7.006  0.0078 -1.9737  1.0244
 1768SOL     OW 8195   0.087   6.408   6.370  0.4385  0.1281 -0.0050
 1768SOL    HW1 8196   0.017   6.472   6.378 -0.7724 -1.2483  0.8641
 1768SOL    HW2 8197   0.096   6.371   6.458  0.8083 -1.1837 -0.5668
 1769SOL     OW 8198   0.340   5.244   6.988  0.0074 -0.0057  0.1990
 1769SOL    HW1 8199   0.322   5.248   6.894  0.4833 -1.9973 -0.0204
 1769SOL    HW2 8200   0.255   5.221   7.027  0.0147 -0.1287  0.1451
 1770SOL     OW 8201   8.840   1.062   8.163 -0.0339  0.6332 -0.3671
 1770SOL    HW1 8202   8.856   1.154   8.138 -0.5013  0.4928 -1.2287
 1770SOL    HW2 8203   8.925   1.020   8.149  0.4827  1.1437  1.0904
 1771SOL     OW 8204   7.942   8.186   3.939 -0.8009 -0.6884  0.2663
 1771SOL    HW1 8205   7.999   8.128   3.989 -0.1271 -2.4451 -2.3498
 1771SOL    HW2 8206   7.991   8.268   3.931  0.1133 -1.2062  0.4461
 1772SOL     OW 8207   9.420   6.335   7.601 -0.1096 -0.0820 -0.6524
 1772SOL    HW1 8208   9.470   6.324   7.681  0.2169  0.4389 -0.7768
 1772SOL    HW2 8209   9.348   6.393   7.626  0.4218  0.6972 -0.9038
 1773SOL     OW 8210   1.284   0.730   2.408  0.4604  0.5917  0.6800
 1773SOL    HW1 8211   1.345   0.730   2.334  0.2155 -0.0818  0.4680
 1773SOL    HW2 8212   1.310   0.654   2.460 -0.5290 -0.0126  0.3100
 1774SOL     OW 8213   6.744   8.521   1.199  0.2172 -0.2697 -0.0213
 1774SOL    HW1 8214   6.679   8.482   1.257  1.0942  1.8404  2.5576
 1774SOL    HW2 8215   6.713   8.610   1.183  0.7909 -0.3160 -1.5616
 1775SOL     OW 8216   8.967   7.729   0.689 -0.7393  0.0825  0.0851
 1775SOL    HW1 8217   8.975   7.712   0.595 -1.0432 -2.2291  0.4212
 1775SOL    HW2 8218   8.874   7.744   0.703 -0.9412 -1.2424  0.2383
 1776SOL     OW 8219   5.386   4.416   6.654 -0.0025  0.6633  0.1008
 1776SOL    HW1 8220   5.406   4.412   6.560  0.7088 -1.2030  0.2802
 1776SOL    HW2 8221   5.469   4.393   6.697 -0.5389  0.6251  1.1558
 1777SOL     OW 8222   7.017   2.899   2.435 -0.2102 -0.3892 -0.1029
 1777SOL    HW1 8223   7.082   2.830   2.440  0.3347  0.1838  0.9321
 1777SOL    HW2 8224   6.947   2.871   2.495 -0.6017 -0.6537 -0.6672
 1778SOL     OW 8225   0.311   3.946   8.059 -0.0362 -0.0921 -0.4070
 1778SOL    HW1 8226   0.391   3.932   8.109  0.1550 -1.4861 -1.0346
 1778SOL    HW2 8227   0.340   3.943   7.968 -0.9200 -1.8588 -0.6800
 1779SOL     OW 8228   0.234   8.326   1.875  0.1937  0.0887 -0.8775
 1779SOL    HW1 8229   0.329   8.321   1.870  0.1686 -0.0507 -1.2280
 1779SOL    HW2 8230   0.205   8.335   1.784 -0.0696  1.3085 -0.6869
 1780SOL     OW 8231   4.224   0.080   0.082  0.5954  0.0306 -0.2241
 1780SOL    HW1 8232   4.171   0.155   0.109 -0.8850 -1.4502  1.2544
 1780SOL    HW2 8233   4.198   0.065  -0.009 -0.7277  0.0213  0.1349
 1781SOL     OW 8234   7.966   0.178   5.792 -0.5316  0.0846  0.5037
 1781SOL    HW1 8235   8.019   0.215   5.862 -0.2008 -0.8328  0.7555
 1781SOL    HW2 8236   7.933   0.254   5.743 -1.3228  0.7673  2.0464
 1782SOL     OW 8237   5.486   3.453   8.334  0.5293  0.0815  0.1528
 1782SOL    HW1 8238   5.475   3.547   8.351  2.0264  0.6548 -1.7007
 1782SOL    HW2 8239   5.435   3.437   8.255 -0.4385 -0.9057  0.9473
 1783SOL     OW 8240   1.455   3.667   1.183  0.0512 -0.0096 -0.5057
 1783SOL    HW1 8241   1.374   3.712   1.163  0.6460  1.1016 -0.4974
 1783SOL    HW2 8242   1.444   3.579   1.147 -1.3638 -0.0572  0.0129
 1784SOL     OW 8243   2.917   9.409   4.391 -0.4359 -0.1558 -0.2884
 1784SOL    HW1 8244   2.921   9.494   4.348 -0.9767  0.4680  0.8421
 1784SOL    HW2 8245   2.951   9.348   4.326  0.8342  1.0377 -0.8002
 1785SOL     OW 8246   6.585   8.301   4.535 -0.0357  0.6514 -0.3856
 1785SOL    HW1 8247   6.528   8.289   4.610 -0.1706  1.2169 -0.3894
 1785SOL    HW2 8248   6.527   8.297   4.459 -0.1062  1.3899 -0.3808
 1786SOL     OW 8249   4.691   5.281   9.588 -0.4251  0.3014  0.1255
 1786SOL    HW1 8250   4.688   5.338   9.511 -0.5373  0.3731  0.1819
 1786SOL    HW2 8251   4.605   5.290   9.628 -1.1126 -1.3551 -0.8947
 1787SOL     OW 8252   3.993   3.795   1.588 -0.1311 -0.0775 -0.2263
 1787SOL    HW1 8253   3.940   3.839   1.655 -1.0550 -2.1494  0.4986
 1787SOL    HW2 8254   3.939   3.797   1.509  0.5870  1.5906 -0.7136
 1788SOL     OW 8255   6.453   2.502   5.673  0.1544  0.0634  0.2260
 1788SOL    HW1 8256   6.487   2.553   5.746  0.8443  0.2758 -0.2338
 1788SOL    HW2 8257   6.372   2.547   5.648  0.0688  0.1559  0.6755
 1789SOL     OW 8258   0.115   5.413   1.203 -0.4599 -0.1168  0.1395
 1789SOL    HW1 8259   0.071   5.335   1.170 -1.7160  1.0349 -1.0065
 1789SOL    HW2 8260   0.098   5.480   1.137  0.1572  1.2694  1.3356
 1790SOL     OW 8261   6.280   6.123   4.126  0.5813 -0.3237  0.5727
 1790SOL    HW1 8262   6.367   6.153   4.102  0.2493  0.2269  0.0390
 1790SOL    HW2 8263   6.280   6.029   4.107  1.2547 -0.4494  1.1729
 1791SOL     OW 8264   1.895   3.552   0.662  0.3249 -0.1455 -0.5587
 1791SOL    HW1 8265   1.898   3.635   0.708 -0.3472 -1.6543  2.4741
 1791SOL    HW2 8266   1.987   3.531   0.645  0.5013  1.1287 -1.2993
 1792SOL     OW 8267   9.095   7.584   5.984  0.7180  0.0804 -0.4312
 1792SOL    HW1 8268   9.084   7.669   5.942  3.7704  0.1941 -1.2407
 1792SOL    HW2 8269   9.186   7.583   6.013  0.9168 -3.0728 -0.8241
 1793SOL     OW 8270   3.067   9.572   6.011 -0.4832 -0.1335  0.7602
 1793SOL    HW1 8271   2.984   9.528   6.032 -0.5824  0.3366  1.3882
 1793SOL    HW2 8272   3.090   9.618   6.092  0.1667  0.0949  0.4462
 1794SOL     OW 8273   6.761   6.142   3.873  0.4121 -0.4164  0.2850
 1794SOL    HW1 8274   6.793   6.165   3.786  1.0059 -0.1525  0.5659
 1794SOL    HW2 8275   6.787   6.050   3.884  0.4748 -0.4038  0.2437
 1795SOL     OW 8276   6.750   0.771   5.645  0.0724  0.6243 -0.7427
 1795SOL    HW1 8277   6.666   0.801   5.680  0.3979  1.0973 -0.3568
 1795SOL    HW2 8278   6.730   0.742   5.556 -0.7153 -0.3271 -0.2779
 1796SOL     OW 8279   7.864   8.130   5.230  0.2076 -0.3621  0.0520
 1796SOL    HW1 8280   7.806   8.086   5.168  1.6914 -0.6768 -1.1623
 1796SOL    HW2 8281   7.944   8.147   5.181  2.3352 -2.5606  2.4273
 1797SOL     OW 8282   9.324   5.758   2.290 -0.2063 -0.7642  0.0975
 1797SOL    HW1 8283   9.256   5.815   2.255  1.8911  0.7951 -1.7259
 1797SOL    HW2 8284   9.375   5.813   2.349  0.9132 -1.1480 -0.4647
 1798SOL     OW 8285   3.059   3.297   9.103  0.8907  0.0195  0.7389
 1798SOL    HW1 8286   3.047   3.323   9.011  0.8049 -0.0253  0.7368
 1798SOL    HW2 8287   3.143   3.335   9.128  0.8211  0.2011  0.7015
 1799SOL     OW 8288   2.560   1.777   3.839  0.0010 -0.0987 -0.3640
 1799SOL    HW1 8289   2.589   1.816   3.757 -1.8338  0.0219 -1.0061
 1799SOL    HW2 8290   2.614   1.699   3.850  1.1038  0.5515 -1.0328
 1800SOL     OW 8291   2.948   6.818   2.161 -0.6525 -0.2145 -0.0155
 1800SOL    HW1 8292   3.030   6.815   2.210 -0.9987 -1.2439  0.5168
 1800SOL    HW2 8293   2.966   6.880   2.090  0.0185  0.9202  1.0897
 1801SOL     OW 8294   8.819   2.041   3.176  0.3285 -0.3361 -0.4852
 1801SOL    HW1 8295   8.862   1.962   3.209 -0.2420 -0.5147 -0.1542
 1801SOL    HW2 8296   8.804   2.094   3.254 -2.5274 -1.4854 -0.1264
 1802SOL     OW 8297   1.090   4.027   2.481 -0.0691 -0.0489 -0.0801
 1802SOL    HW1 8298   1.102   3.937   2.451  1.0336  0.5459 -1.5386
 1802SOL    HW2 8299   1.179   4.061   2.490 -0.4749  0.9895  0.1334
 1803SOL     OW 8300   4.941   7.442   1.762  0.9581 -0.2810  0.1923
 1803SOL    HW1 8301   4.891   7.365   1.789  0.8711 -0.0857  0.5963
 1803SOL    HW2 8302   4.910   7.512   1.819 -0.6670  0.6311 -1.6850
 1804SOL     OW 8303   5.858   1.878   6.188  0.5569  0.0924 -0.3145
 1804SOL    HW1 8304   5.863   1.962   6.235  0.9001 -0.5919  0.9202
 1804SOL    HW2 8305   5.918   1.889   6.114  2.4373  0.1838  1.1213
 1805SOL     OW 8306   0.115   4.783   2.928 -0.5648 -0.2049  0.0153
 1805SOL    HW1 8307   0.162   4.853   2.883  2.7132 -2.3259 -0.2653
 1805SOL    HW2 8308   0.167   4.766   3.006 -1.2754 -2.1884  0.1254
 1806SOL     OW 8309   5.036   5.492   4.479  0.0973  0.1659  0.0778
 1806SOL    HW1 8310   4.976   5.430   4.438  1.4440 -0.4140 -1.0831
 1806SOL    HW2 8311   5.032   5.472   4.572 -1.4143  0.0686  0.0124
 1807SOL     OW 8312   3.069   0.261   2.960 -0.4934 -0.7229 -0.9174
 1807SOL    HW1 8313   2.985   0.221   2.936 -0.8721 -0.4810 -0.0449
 1807SOL    HW2 8314   3.079   0.242   3.053 -0.2413  0.4159 -0.6975
 1808SOL     OW 8315   0.648   2.116   5.374 -0.5779  0.2181 -0.2310
 1808SOL    HW1 8316   0.690   2.119   5.460  2.3013 -0.4732 -1.4983
 1808SOL    HW2 8317   0.589   2.040   5.379 -0.4386  0.1733  1.1003
 1809SOL     OW 8318   5.708   8.845   6.043 -0.2690 -0.0622 -0.2131
 1809SOL    HW1 8319   5.686   8.824   6.134 -1.0289  0.9815 -0.1270
 1809SOL    HW2 8320   5.661   8.927   6.026  0.4913  0.1666 -1.3044
 1810SOL     OW 8321   1.624   4.065   3.553  0.1096 -0.3190 -0.2856
 1810SOL    HW1 8322   1.684   3.991   3.563 -0.6892 -0.8904  0.4064
 1810SOL    HW2 8323   1.664   4.136   3.603 -0.4049 -1.0814  1.2772
 1811SOL     OW 8324   0.675   5.130   4.607  0.4150  0.5138  0.2131
 1811SOL    HW1 8325   0.698   5.223   4.608  0.5264  0.4831  1.2366
 1811SOL    HW2 8326   0.580   5.130   4.597  0.0793  0.8403  2.7729
 1812SOL     OW 8327   5.184   1.715   0.841 -0.6626 -0.1428  0.1276
 1812SOL    HW1 8328   5.138   1.776   0.898 -0.1801  0.1187  0.2468
 1812SOL    HW2 8329   5.151   1.629   0.866  0.9581 -0.2531  2.2242
 1813SOL     OW 8330   4.746   3.725   2.331  0.1124 -0.1751  0.3281
 1813SOL    HW1 8331   4.769   3.686   2.415  1.2955 -0.0402  0.0894
 1813SOL    HW2 8332   4.790   3.669   2.266 -0.0209  0.2587 -0.1434
 1814SOL     OW 8333   4.064   1.666   0.332 -0.1323  0.1189 -0.3703
 1814SOL    HW1 8334   4.078   1.638   0.422  2.2508 -0.1519 -0.7720
 1814SOL    HW2 8335   4.072   1.761   0.335 -0.0802  0.1118 -0.2931
 1815SOL     OW 8336   0.105   3.939   6.727  0.1640  0.3398  0.3553
 1815SOL    HW1 8337   0.122   3.937   6.821 -1.3588 -1.3241  0.6481
 1815SOL    HW2 8338   0.013   3.967   6.720  0.0244 -0.3051 -0.5776
 1816SOL     OW 8339   7.718   8.338   2.253 -0.0793 -0.0139  0.0994
 1816SOL    HW1 8340   7.672   8.382   2.181 -1.0404  1.3776  1.5107
 1816SOL    HW2 8341   7.810   8.340   2.227 -0.2061  1.9310 -0.3801
 1817SOL     OW 8342   6.179   6.162   2.966  0.1183 -0.2130  0.8921
 1817SOL    HW1 8343   6.271   6.146   2.943  0.5547  3.5119 -0.5908
 1817SOL    HW2 8344   6.175   6.147   3.060  1.9247 -1.5402  0.8212
 1818SOL     OW 8345   4.420   9.460   1.511  0.0824 -0.0265  0.8508
 1818SOL    HW1 8346   4.356   9.512   1.463  0.6668 -1.1968 -1.3620
 1818SOL    HW2 8347   4.407   9.484   1.603 -1.1637  2.2904  0.1564
 1819SOL     OW 8348   5.027   6.557   9.625 -0.0285  0.5937  0.2770
 1819SOL    HW1 8349   5.099   6.612   9.657 -0.3502  0.5460  1.1149
 1819SOL    HW2 8350   5.049   6.469   9.654  0.3570  0.3071 -0.8451
 1820SOL     OW 8351   7.263   9.628   3.969 -0.1570 -0.3102 -0.0263
 1820SOL    HW1 8352   7.304   9.678   3.898 -0.4876  0.7410  0.4909
 1820SOL    HW2 8353   7.174   9.612   3.939 -0.1201 -0.3733 -0.0993
 1821SOL     OW 8354   1.398   3.407   6.383  0.0541  0.0485 -0.1524
 1821SOL    HW1 8355   1.320   3.448   6.345  0.9991  0.6889 -1.4618
 1821SOL    HW2 8356   1.460   3.401   6.311  1.4539  0.1128  0.9988
 1822SOL     OW 8357   2.995   7.103   0.195  0.3506  0.0889 -0.3739
 1822SOL    HW1 8358   3.052   7.152   0.136 -0.5069  0.7497 -0.6752
 1822SOL    HW2 8359   2.921   7.162   0.212  0.2019 -0.3923  0.7450
 1823SOL     OW 8360   0.485   6.800   2.592 -0.6806 -0.0040  0.0947
 1823SOL    HW1 8361   0.517   6.737   2.528 -0.0160 -0.6244  1.0133
 1823SOL    HW2 8362   0.390   6.795   2.585 -0.6189 -0.4246 -0.4864
 1824SOL     OW 8363   2.849   9.304   8.193  0.0049 -0.8929  0.1138
 1824SOL    HW1 8364   2.890   9.364   8.131 -2.5604  0.7730 -0.1299
 1824SOL    HW2 8365   2.774   9.268   8.146 -1.7822  0.1050  1.9826
 1825SOL     OW 8366   9.074   0.931   8.555  0.3629  0.2739 -0.0593
 1825SOL    HW1 8367   9.049   0.871   8.484  0.9283 -0.9193  0.7142
 1825SOL    HW2 8368   9.076   0.876   8.633  2.0727  1.0299  0.4818
 1826SOL     OW 8369   8.311   1.092   1.378 -0.2261  0.2128 -0.2889
 1826SOL    HW1 8370   8.277   1.043   1.303  1.1894 -0.2916 -0.6230
 1826SOL    HW2 8371   8.331   1.025   1.444  0.3509  0.4652 -0.1971
 1827SOL     OW 8372   5.969   1.750   6.430  0.2029 -0.2265 -0.3686
 1827SOL    HW1 8373   5.896   1.802   6.397 -0.4483 -0.0356  1.2795
 1827SOL    HW2 8374   6.016   1.808   6.489 -0.9149 -1.5763  2.0327
 1828SOL     OW 8375   2.779   8.110   2.653 -0.0852  0.0015 -0.4623
 1828SOL    HW1 8376   2.743   8.198   2.645  0.5064  0.4289  1.1842
 1828SOL    HW2 8377   2.702   8.053   2.656 -0.5724  0.6816  0.6262
 1829SOL     OW 8378   1.919   2.426   8.837 -0.6696  0.1543 -0.1431
 1829SOL    HW1 8379   1.942   2.502   8.784  1.2644 -0.8273 -0.7842
 1829SOL    HW2 8380   1.823   2.420   8.830 -1.0996  3.3229  1.1245
 1830SOL     OW 8381   1.661   8.921   0.885 -0.0591  0.4637 -0.2757
 1830SOL    HW1 8382   1.651   9.008   0.923  1.4619  0.1970  0.8512
 1830SOL    HW2 8383   1.738   8.929   0.828  0.4749 -0.2644  0.3207
 1831SOL     OW 8384   9.115   2.054   6.769  0.0739  0.5204  0.0280
 1831SOL    HW1 8385   9.100   2.036   6.676 -0.3398 -2.2472  0.5241
 1831SOL    HW2 8386   9.178   2.126   6.769 -0.1900  0.8623 -2.3699
 1832SOL     OW 8387   7.676   7.870   6.413 -0.4030  0.2301 -0.1137
 1832SOL    HW1 8388   7.687   7.817   6.492  0.8476  0.2712 -0.2416
 1832SOL    HW2 8389   7.759   7.917   6.404 -1.5162  2.3616  0.0871
 1833SOL     OW 8390   4.966   8.080   1.179 -0.1394  0.2927  0.4475
 1833SOL    HW1 8391   4.982   8.154   1.237 -0.9847 -0.1397  1.2547
 1833SOL    HW2 8392   4.877   8.052   1.199 -0.7816  0.6674 -1.6763
 1834SOL     OW 8393   9.607   3.173   2.818  0.9024 -0.3214 -0.4755
 1834SOL    HW1 8394   9.549   3.153   2.745  1.2874 -2.1745 -0.3146
 1834SOL    HW2 8395   9.597   3.268   2.830 -2.0344 -0.5340 -0.4650
 1835SOL     OW 8396   6.059   4.722   4.760  0.4220  0.4826 -0.1415
 1835SOL    HW1 8397   6.086   4.764   4.842 -2.0743  1.0295  0.4603
 1835SOL    HW2 8398   6.115   4.645   4.754  2.2305  1.6184  0.8794
 1836SOL     OW 8399   6.082   9.097   7.122  0.0908 -0.3558  0.2552
 1836SOL    HW1 8400   6.014   9.041   7.085  0.3973 -0.0549 -0.7992
 1836SOL    HW2 8401   6.094   9.063   7.211 -0.2621 -1.4796 -0.0961
 1837SOL     OW 8402   4.640   5.272   2.107  0.1480 -0.1102 -0.1585
 1837SOL    HW1 8403   4.592   5.251   2.026 -1.1162  2.9145 -0.3267
 1837SOL    HW2 8404   4.682   5.355   2.088 -0.1251  0.6421  2.2822
 1838SOL     OW 8405   4.147   5.252   2.644 -0.8495  0.1698  0.4100
 1838SOL    HW1 8406   4.078   5.312   2.672 -0.9253  1.4786 -2.2954
 1838SOL    HW2 8407   4.212   5.308   2.602 -0.1054 -1.4576 -0.7161
 1839SOL     OW 8408   3.147   8.013   7.703  0.0847 -0.2764  0.1346
 1839SOL    HW1 8409   3.215   8.080   7.697 -1.1313  0.9663 -0.3293
 1839SOL    HW2 8410   3.180   7.951   7.768  0.8377  1.2941  1.3199
 1840SOL     OW 8411   0.595   6.720   6.093  0.2789  0.2890  0.3816
 1840SOL    HW1 8412   0.569   6.665   6.019  0.2067  1.2930 -0.3700
 1840SOL    HW2 8413   0.676   6.680   6.125 -0.5496 -1.1116  0.8273
 1841SOL     OW 8414   0.544   1.298   5.180  0.4163  0.1869 -0.0674
 1841SOL    HW1 8415   0.635   1.307   5.153  0.8455 -3.0635 -0.0912
 1841SOL    HW2 8416   0.546   1.231   5.249 -1.7216  1.6648  1.5631
 1842SOL     OW 8417   0.176   8.637   1.785  0.1785  0.4447 -0.0057
 1842SOL    HW1 8418   0.090   8.604   1.810  0.4736 -0.4725 -0.1713
 1842SOL    HW2 8419   0.200   8.586   1.708  1.5488 -0.4261  0.9440
 1843SOL     OW 8420   1.357   2.269   4.789 -0.2041  0.7569 -0.0929
 1843SOL    HW1 8421   1.329   2.328   4.719 -0.2926 -2.0341 -2.6064
 1843SOL    HW2 8422   1.282   2.211   4.803  0.4680  0.1261  1.0735
 1844SOL     OW 8423   9.126   5.521   5.270 -0.5165  0.2192 -0.4530
 1844SOL    HW1 8424   9.215   5.487   5.258 -0.3920  0.0331  0.8685
 1844SOL    HW2 8425   9.079   5.451   5.316 -1.4137  0.2350 -1.3094
 1845SOL     OW 8426   1.878   3.398   2.637  0.2081  0.2346 -0.2518
 1845SOL    HW1 8427   1.801   3.448   2.610 -1.2801 -1.7380  0.1234
 1845SOL    HW2 8428   1.849   3.348   2.713  1.6635 -1.0356 -0.4801
 1846SOL     OW 8429   8.279   1.331   0.492  0.3789 -0.2895 -0.1393
 1846SOL    HW1 8430   8.272   1.347   0.586  0.2480  0.4466 -0.2679
 1846SOL    HW2 8431   8.265   1.237   0.482  1.1259 -0.5002  0.6504
 1847SOL     OW 8432   7.282   2.127   7.239 -0.0290 -0.0389 -0.6179
 1847SOL    HW1 8433   7.202   2.177   7.226  0.0674  0.0852 -0.7312
 1847SOL    HW2 8434   7.303   2.137   7.332 -0.4127 -0.4704 -0.4803
 1848SOL     OW 8435   5.105   2.346   4.802 -0.1318  0.4998  0.0336
 1848SOL    HW1 8436   5.038   2.327   4.736  0.1949  0.3968 -0.2769
 1848SOL    HW2 8437   5.146   2.261   4.819  0.3854  0.6732 -0.3053
 1849SOL     OW 8438   1.726   9.534   9.319  0.4425  0.0781  0.1733
 1849SOL    HW1 8439   1.636   9.503   9.303  1.0147 -1.2883 -0.6150
 1849SOL    HW2 8440   1.781   9.470   9.274  1.8436  0.5797  1.1244
 1850SOL     OW 8441   4.038   8.462   2.887 -0.5168  0.3187  0.5970
 1850SOL    HW1 8442   4.107   8.397   2.897 -0.6406  0.0812 -0.0601
 1850SOL    HW2 8443   4.072   8.540   2.933 -0.1933 -0.0671  1.0215
 1851SOL     OW 8444   0.907   4.374   1.198 -0.2395 -0.6294  1.1442
 1851SOL    HW1 8445   0.929   4.409   1.284  0.2941  0.2044  0.6875
 1851SOL    HW2 8446   0.902   4.452   1.142  0.9250 -1.2768  0.1086
 1852SOL     OW 8447   4.910   4.112   9.625  0.5295 -0.4326  0.0927
 1852SOL    HW1 8448   4.924   4.019   9.644 -0.5940 -0.5834  0.2611
 1852SOL    HW2 8449   4.886   4.114   9.533  1.1810 -0.2299 -0.0786
 1853SOL     OW 8450   0.610   5.722   3.013 -0.1881 -0.3150  0.2682
 1853SOL    HW1 8451   0.679   5.659   3.034 -0.0462 -0.4408 -0.5307
 1853SOL    HW2 8452   0.529   5.671   3.018 -0.1441 -0.3783  0.3466
 1854SOL     OW 8453   1.188   4.977   5.055  0.1646 -0.2751  0.2133
 1854SOL    HW1 8454   1.261   4.917   5.070  2.1702  2.1494  0.9148
 1854SOL    HW2 8455   1.182   4.984   4.960  0.0024 -1.4308  0.1260
 1855SOL     OW 8456   6.703   5.697   4.710 -0.3988  0.1694 -0.0488
 1855SOL    HW1 8457   6.654   5.690   4.627 -0.1634  0.7644 -0.2460
 1855SOL    HW2 8458   6.775   5.635   4.700  0.1081  0.8286 -0.6430
 1856SOL     OW 8459   9.150   1.880   9.627 -0.2361  0.3414  1.0681
 1856SOL    HW1 8460   9.103   1.830   9.693  0.4970  0.7053  1.8811
 1856SOL    HW2 8461   9.081   1.916   9.571 -0.7830 -2.1861 -0.0424
 1857SOL     OW 8462   6.557   6.826   2.067  0.0997  0.1870  0.0074
 1857SOL    HW1 8463   6.475   6.838   2.116 -0.4195 -0.7412 -0.5945
 1857SOL    HW2 8464   6.626   6.834   2.133 -0.5147  0.2708  0.6530
 1858SOL     OW 8465   3.489   2.135   2.449 -0.1248  0.3799  0.2190
 1858SOL    HW1 8466   3.401   2.168   2.471  0.6939  2.6381  0.4107
 1858SOL    HW2 8467   3.539   2.147   2.529  0.8709  1.1460 -0.4905
 1859SOL     OW 8468   5.185   0.349   8.376  0.1470 -0.8026 -0.2818
 1859SOL    HW1 8469   5.134   0.340   8.456 -0.6664  1.9929 -0.3688
 1859SOL    HW2 8470   5.270   0.384   8.405  1.1838 -3.0216 -0.3942
 1860SOL     OW 8471   1.005   8.226   5.133 -0.1746 -0.4663  0.7249
 1860SOL    HW1 8472   0.961   8.165   5.194 -0.0961  0.0444  1.3022
 1860SOL    HW2 8473   0.937   8.250   5.070 -0.2007 -1.1664  0.4796
 1861SOL     OW 8474   3.307   0.881   4.740  0.8564 -0.2308 -0.6110
 1861SOL    HW1 8475   3.289   0.833   4.660 -0.4402  1.6801 -1.5382
 1861SOL    HW2 8476   3.376   0.831   4.783  0.4421 -2.1868 -2.1041
 1862SOL     OW 8477   1.680   3.628   0.158 -0.4802 -0.2379 -0.1934
 1862SOL    HW1 8478   1.753   3.675   0.117  1.1887 -0.3202  2.4573
 1862SOL    HW2 8479   1.609   3.693   0.161  0.7097  1.0894  0.4294
 1863SOL     OW 8480   2.799   7.330   5.173 -0.6269  0.2830  0.1618
 1863SOL    HW1 8481   2.867   7.397   5.166 -0.3003  0.1498  1.7500
 1863SOL    HW2 8482   2.784   7.302   5.083  2.1113 -0.3983 -0.1578
 1864SOL     OW 8483   0.449   5.721   3.657  0.1661 -0.2099  0.9147
 1864SOL    HW1 8484   0.397   5.794   3.623  1.7362  0.5188 -0.0080
 1864SOL    HW2 8485   0.404   5.643   3.624  0.6204  0.4405 -1.4095
 1865SOL     OW 8486   7.810   8.536   3.093 -0.7040 -0.1321 -0.3055
 1865SOL    HW1 8487   7.904   8.554   3.096 -0.4795 -1.2879  1.7078
 1865SOL    HW2 8488   7.801   8.465   3.030 -0.1220 -0.4231 -0.0715
 1866SOL     OW 8489   5.434   6.202   7.651 -0.2754 -0.2347  0.3937
 1866SOL    HW1 8490   5.418   6.271   7.716 -1.9614  0.6250 -0.8685
 1866SOL    HW2 8491   5.507   6.235   7.599 -1.0778  0.6383 -0.2103
 1867SOL     OW 8492   1.848   9.564   2.051 -0.7884 -0.5301 -0.5045
 1867SOL    HW1 8493   1.780   9.598   1.993 -0.4352  0.6663 -0.2475
 1867SOL    HW2 8494   1.920   9.626   2.042  0.3818 -1.9169 -0.9578
 1868SOL     OW 8495   0.075   9.105   8.890 -0.7230 -0.3634  0.1545
 1868SOL    HW1 8496   0.051   9.197   8.881 -0.4392 -0.3934 -0.9638
 1868SOL    HW2 8497  -0.006   9.057   8.872 -0.2146 -0.4161 -2.3676
 1869SOL     OW 8498   3.298   4.113   5.245 -0.1467  0.1187 -0.3129
 1869SOL    HW1 8499   3.387   4.113   5.210 -0.3227 -1.1454 -0.8202
 1869SOL    HW2 8500   3.308   4.080   5.334 -0.0784  0.1812 -0.2973
 1870SOL     OW 8501   1.158   0.009   0.022  0.2017 -0.1799  0.3875
 1870SOL    HW1 8502   1.236   0.051   0.059  0.5958 -0.0719 -0.5242
 1870SOL    HW2 8503   1.084   0.058   0.058  0.5387 -0.3689  1.3756
 1871SOL     OW 8504   3.734   9.545   3.014  0.5415 -0.5329 -0.0733
 1871SOL    HW1 8505   3.748   9.483   3.086  0.5463 -0.0439  0.3592
 1871SOL    HW2 8506   3.665   9.604   3.046  1.7637  0.7687  0.2570
 1872SOL     OW 8507   5.610   1.792   3.802  0.0167  0.3216  0.0022
 1872SOL    HW1 8508   5.548   1.782   3.874  0.9603 -3.0259  0.5150
 1872SOL    HW2 8509   5.554   1.804   3.725 -1.3992 -2.3593  0.4815
 1873SOL     OW 8510   9.416   2.020   5.814 -0.2566  0.1333 -0.2555
 1873SOL    HW1 8511   9.359   2.097   5.823 -0.3408  0.0846 -0.3572
 1873SOL    HW2 8512   9.500   2.047   5.850 -0.7206 -0.2276  1.1611
 1874SOL     OW 8513   4.341   9.063   9.228 -0.3763 -0.1633  0.0444
 1874SOL    HW1 8514   4.323   9.008   9.151 -1.5643 -1.8350  1.4149
 1874SOL    HW2 8515   4.349   9.000   9.300  2.6481  1.1797  1.0312
 1875SOL     OW 8516   2.072   3.489   3.281 -0.2809 -0.7065  0.4831
 1875SOL    HW1 8517   2.157   3.452   3.257  0.5393  1.7691 -0.7599
 1875SOL    HW2 8518   2.089   3.536   3.362 -0.2288  0.3985 -0.1439
 1876SOL     OW 8519   0.716   0.177   1.380  0.0952 -0.7525 -0.4935
 1876SOL    HW1 8520   0.748   0.100   1.427 -1.0269 -0.8423  0.1651
 1876SOL    HW2 8521   0.624   0.185   1.407  0.4256  1.3729  0.1797
 1877SOL     OW 8522   7.102   2.449   9.192  0.6330 -0.2698  0.0375
 1877SOL    HW1 8523   7.098   2.367   9.240 -0.7683 -0.5508 -0.5112
 1877SOL    HW2 8524   7.121   2.515   9.259 -1.3504 -0.6356  1.0532
 1878SOL     OW 8525   2.593   9.421   5.567 -0.4490 -0.4157 -0.0819
 1878SOL    HW1 8526   2.560   9.334   5.545 -1.1569  0.2305 -1.7246
 1878SOL    HW2 8527   2.687   9.408   5.582 -0.2949 -1.2735 -1.5816
 1879SOL     OW 8528   5.701   0.225   5.124  0.1823  0.2289  0.8847
 1879SOL    HW1 8529   5.674   0.133   5.134  1.3013 -0.3150 -0.5644
 1879SOL    HW2 8530   5.718   0.255   5.213  0.7775 -1.3136  1.3296
 1880SOL     OW 8531   4.941   7.072   7.138 -0.1279 -0.1139 -0.2186
 1880SOL    HW1 8532   4.856   7.097   7.175  1.0204  2.2767  1.0240
 1880SOL    HW2 8533   4.936   7.101   7.047 -0.4694  0.5633  0.0043
 1881SOL     OW 8534   4.621   7.441   2.329 -1.0330 -0.2805  0.0576
 1881SOL    HW1 8535   4.681   7.480   2.265 -0.0011 -0.8557  0.6449
 1881SOL    HW2 8536   4.536   7.482   2.311 -0.6447 -0.0462 -1.3214
 1882SOL     OW 8537   8.240   1.558   4.601  0.5100 -0.1349 -0.1936
 1882SOL    HW1 8538   8.214   1.642   4.639 -1.4001 -0.1404 -1.3249
 1882SOL    HW2 8539   8.161   1.503   4.608  1.6229 -1.7358  0.2428
 1883SOL     OW 8540   9.460   1.412   6.857 -0.8253 -0.0208 -0.2914
 1883SOL    HW1 8541   9.387   1.473   6.860 -1.2429 -0.5295  0.0641
 1883SOL    HW2 8542   9.420   1.327   6.841 -0.2874 -0.2630 -0.3785
 1884SOL     OW 8543   0.902   8.670   4.788  0.5051  0.2092  0.0346
 1884SOL    HW1 8544   0.833   8.661   4.723  0.9061  0.5324 -0.4444
 1884SOL    HW2 8545   0.924   8.580   4.813  1.1794  0.0126 -1.1700
 1885SOL     OW 8546   9.501   1.108   4.638  0.2917 -0.1278 -0.4001
 1885SOL    HW1 8547   9.548   1.187   4.615  0.0067  0.2272  0.2137
 1885SOL    HW2 8548   9.554   1.067   4.707 -0.8902  0.9198  1.1960
 1886SOL     OW 8549   8.401   7.001   4.637 -0.3398  0.4980 -0.2149
 1886SOL    HW1 8550   8.430   6.983   4.548 -1.5651 -0.4502 -0.4490
 1886SOL    HW2 8551   8.480   6.993   4.690  0.5690  1.9231 -1.3064
 1887SOL     OW 8552   3.753   1.536   5.009  0.0887 -0.0538 -0.2019
 1887SOL    HW1 8553   3.813   1.598   5.050 -0.0352  0.1500 -0.3234
 1887SOL    HW2 8554   3.782   1.532   4.918 -0.1788  0.1726 -0.3014
 1888SOL     OW 8555   5.753   2.142   4.597 -0.0286 -0.2213 -0.6458
 1888SOL    HW1 8556   5.804   2.132   4.517  0.0668 -0.8400 -0.5110
 1888SOL    HW2 8557   5.680   2.081   4.588  1.2227 -2.0496  0.7033
 1889SOL     OW 8558   6.665   8.984   2.234  0.4656  0.4440 -0.3500
 1889SOL    HW1 8559   6.736   8.947   2.286 -1.4838  0.7703  2.8158
 1889SOL    HW2 8560   6.615   8.907   2.205  0.0554  0.2940  0.6832
 1890SOL     OW 8561   7.427   9.304   0.469 -0.0313 -0.3738  0.1974
 1890SOL    HW1 8562   7.497   9.368   0.476 -0.0214 -0.3618 -0.0117
 1890SOL    HW2 8563   7.353   9.345   0.513 -0.3156  0.1940 -0.7783
 1891SOL     OW 8564   7.066   9.627   6.520  0.5037 -0.0115  1.2266
 1891SOL    HW1 8565   7.092   9.664   6.436 -2.3829  0.2226  0.3564
 1891SOL    HW2 8566   7.143   9.578   6.549  2.1952  1.3773 -0.6494
 1892SOL     OW 8567   3.165   7.825   3.617  0.5138  0.5458  0.1046
 1892SOL    HW1 8568   3.101   7.885   3.657 -2.2942 -0.7827 -2.0142
 1892SOL    HW2 8569   3.151   7.742   3.662 -0.7149 -0.2425 -1.6110
 1893SOL     OW 8570   3.184   5.144   1.886 -0.2076 -0.1102 -0.7633
 1893SOL    HW1 8571   3.155   5.059   1.852 -1.8611 -0.2793  0.8798
 1893SOL    HW2 8572   3.253   5.121   1.949  2.7635  0.1938 -3.6318
 1894SOL     OW 8573   7.963   5.738   2.344  0.4039  0.6911  0.0875
 1894SOL    HW1 8574   8.053   5.758   2.367  1.4558 -1.7967 -1.3702
 1894SOL    HW2 8575   7.924   5.703   2.424  0.7813  1.5755  0.6664
 1895SOL     OW 8576   7.856   0.143   5.091 -0.0067  0.1217 -0.1759
 1895SOL    HW1 8577   7.815   0.151   5.178 -1.1960  1.8554 -0.8423
 1895SOL    HW2 8578   7.891   0.054   5.090 -0.9782 -0.3470  1.6512
 1896SOL     OW 8579   2.736   1.757   5.076  0.1333  0.5054  0.0575
 1896SOL    HW1 8580   2.752   1.800   5.160  0.9773 -0.3962  0.3725
 1896SOL    HW2 8581   2.797   1.799   5.016 -0.8454  1.5310 -0.2586
 1897SOL     OW 8582   4.075   5.478   9.013  0.6329  0.0286 -0.0138
 1897SOL    HW1 8583   4.079   5.482   9.108  0.7303 -0.4761  0.0011
 1897SOL    HW2 8584   3.984   5.453   8.994  1.1473 -1.9530  0.0081
 1898SOL     OW 8585   7.790   3.262   7.553 -0.5529 -0.4806 -0.4745
 1898SOL    HW1 8586   7.770   3.210   7.630  0.1707  0.5141  0.4150
 1898SOL    HW2 8587   7.717   3.246   7.493 -2.6830  0.9622  1.5621
 1899SOL     OW 8588   0.602   8.023   2.438 -0.3902 -0.5871 -0.2160
 1899SOL    HW1 8589   0.669   8.027   2.370 -0.0711 -2.4721 -0.0597
 1899SOL    HW2 8590   0.651   8.030   2.520 -0.4650 -1.1297 -0.1224
 1900SOL     OW 8591   4.454   4.419   5.979  0.4691  0.7910 -0.0514
 1900SOL    HW1 8592   4.396   4.343   5.974  1.1955  0.1960  0.2435
 1900SOL    HW2 8593   4.479   4.436   5.888  1.4479 -0.2560 -0.0024
 1901SOL     OW 8594   6.703   2.440   6.586 -0.3626  0.1652 -0.2017
 1901SOL    HW1 8595   6.719   2.415   6.677 -0.1656  0.0625 -0.2648
 1901SOL    HW2 8596   6.618   2.483   6.588 -0.9610 -0.9670 -0.1655
 1902SOL     OW 8597   4.898   8.069   6.901  0.1285  0.1897  0.3526
 1902SOL    HW1 8598   4.810   8.034   6.909  0.2673 -0.2343  0.0403
 1902SOL    HW2 8599   4.887   8.163   6.917 -0.5989  0.3681 -0.9977
 1903SOL     OW 8600   1.712   5.884   6.934 -0.6614  0.1514 -0.9258
 1903SOL    HW1 8601   1.670   5.957   6.978 -1.0572  0.0760 -1.1649
 1903SOL    HW2 8602   1.758   5.836   7.003  0.1109  0.9636 -0.8644
 1904SOL     OW 8603   2.346   6.167   3.202 -0.9694 -0.0520  0.1534
 1904SOL    HW1 8604   2.284   6.194   3.270  1.0424 -0.8301  2.4350
 1904SOL    HW2 8605   2.346   6.071   3.207 -0.4407 -0.1027 -0.6354
 1905SOL     OW 8606   5.979   4.147   6.830  0.3264 -0.1422  0.2785
 1905SOL    HW1 8607   6.054   4.148   6.770 -1.0096  0.3739 -1.4801
 1905SOL    HW2 8608   5.925   4.073   6.800  0.1154 -0.5177  1.5209
 1906SOL     OW 8609   6.696   1.703   6.351  0.1241 -0.3406  0.1148
 1906SOL    HW1 8610   6.624   1.738   6.404  0.9526  1.6788  0.0118
 1906SOL    HW2 8611   6.655   1.679   6.268 -0.6087 -0.1635  0.4141
 1907SOL     OW 8612   7.432   2.916   0.800  0.5493  0.1844  0.0531
 1907SOL    HW1 8613   7.520   2.952   0.791  0.0947  1.0231 -1.2881
 1907SOL    HW2 8614   7.443   2.823   0.778  1.0385  0.3553 -0.4545
 1908SOL     OW 8615   7.239   0.970   3.160  0.2927  0.2038 -0.7066
 1908SOL    HW1 8616   7.285   1.048   3.191 -1.2578  0.3772  1.3657
 1908SOL    HW2 8617   7.171   1.004   3.101  1.6694  0.0765 -2.4576
 1909SOL     OW 8618   6.817   0.103   0.725 -0.5792  0.1830  0.2734
 1909SOL    HW1 8619   6.865   0.127   0.804 -1.6586  1.3581  0.5913
 1909SOL    HW2 8620   6.875   0.041   0.680  1.2743  1.5646  0.6226
 1910SOL     OW 8621   5.656   8.427   2.876 -0.1905  0.5589 -0.2044
 1910SOL    HW1 8622   5.701   8.447   2.794  0.8685  1.8733  0.6618
 1910SOL    HW2 8623   5.725   8.396   2.935 -0.8135  0.3579  0.4352
 1911SOL     OW 8624   0.953   8.523   0.334 -0.5934  0.3624  0.5918
 1911SOL    HW1 8625   1.007   8.593   0.296 -0.2461 -0.3212 -0.2061
 1911SOL    HW2 8626   0.872   8.567   0.358 -0.0749  1.2089  0.8741
 1912SOL     OW 8627   6.731   0.864   2.881 -0.1402 -0.7589 -0.0756
 1912SOL    HW1 8628   6.749   0.777   2.917 -0.8614 -0.6569  0.5356
 1912SOL    HW2 8629   6.704   0.846   2.791 -0.0197 -1.1420 -0.0408
 1913SOL     OW 8630   2.255   9.096   7.046  0.0355 -0.6411  0.0651
 1913SOL    HW1 8631   2.322   9.069   6.984  0.2815 -2.7019  1.1434
 1913SOL    HW2 8632   2.245   9.190   7.032  0.8268 -0.8660 -2.3118
 1914SOL     OW 8633   4.257   8.240   1.808  0.2529 -0.3246  0.0170
 1914SOL    HW1 8634   4.281   8.152   1.836  1.2837  0.0421  0.3251
 1914SOL    HW2 8635   4.331   8.270   1.755  1.4746  1.5942  2.6120
 1915SOL     OW 8636   8.939   7.105   8.848  0.0033 -1.0004 -0.0157
 1915SOL    HW1 8637   8.948   7.139   8.758  2.7977 -0.2062  0.4459
 1915SOL    HW2 8638   8.979   7.018   8.845  0.5620 -0.7710  0.5295
 1916SOL     OW 8639   2.182   0.841   8.180 -0.0348 -0.9148  0.2023
 1916SOL    HW1 8640   2.241   0.819   8.252  2.9997  0.2463 -1.7461
 1916SOL    HW2 8641   2.145   0.927   8.204 -0.0474 -1.1184  0.9197
 1917SOL     OW 8642   8.381   3.426   9.382  0.4367  0.1736  0.0091
 1917SOL    HW1 8643   8.321   3.403   9.311  0.2858  0.9815 -0.1333
 1917SOL    HW2 8644   8.367   3.520   9.396  0.5540  0.0540  1.0191
 1918SOL     OW 8645   7.561   2.027   5.559  0.3433  0.7729 -0.1739
 1918SOL    HW1 8646   7.645   1.981   5.550  0.6927  1.5767 -1.2755
 1918SOL    HW2 8647   7.586   2.119   5.571 -0.3877  0.9631 -0.0722
 1919SOL     OW 8648   4.798   4.072   9.348  0.2694 -0.2541  0.6850
 1919SOL    HW1 8649   4.885   4.091   9.313 -0.1806  1.3616  0.3703
 1919SOL    HW2 8650   4.738   4.103   9.281 -0.5594 -0.1496  1.4627
 1920SOL     OW 8651   5.212   9.000   2.226  0.4400  0.2694 -0.4195
 1920SOL    HW1 8652   5.145   9.055   2.266  0.1377 -0.2732 -0.1701
 1920SOL    HW2 8653   5.295   9.040   2.253  0.2830 -0.6038  1.5605
 1921SOL     OW 8654   8.560   9.121   4.892 -0.3361  0.2694  0.0116
 1921SOL    HW1 8655   8.594   9.032   4.892 -0.9388  0.0108  1.6104
 1921SOL    HW2 8656   8.465   9.111   4.881 -0.5981  0.5793  1.6769
 1922SOL     OW 8657   3.104   4.078   0.221 -0.6126  0.1391  0.2393
 1922SOL    HW1 8658   3.050   4.146   0.261 -1.1221 -0.7102  1.0173
 1922SOL    HW2 8659   3.164   4.127   0.164 -2.0319  1.1139 -0.4941
 1923SOL     OW 8660   5.125   4.287   8.250  0.4149  0.0804  0.0796
 1923SOL    HW1 8661   5.130   4.359   8.313 -0.6137 -0.5416  0.9200
 1923SOL    HW2 8662   5.048   4.307   8.197  0.7013  0.0983 -0.3302
 1924SOL     OW 8663   8.275   0.972   9.244  0.1410  0.7549  0.5787
 1924SOL    HW1 8664   8.223   0.904   9.286  1.0572  0.8605  1.9462
 1924SOL    HW2 8665   8.362   0.934   9.236  0.5040  1.5190  0.7580
 1925SOL     OW 8666   4.787   6.730   3.579 -0.3151  0.1197 -0.1697
 1925SOL    HW1 8667   4.743   6.815   3.581 -0.4698  0.0679 -1.1074
 1925SOL    HW2 8668   4.881   6.752   3.581 -0.2996  0.2132  2.6104
 1926SOL     OW 8669   9.461   1.736   7.856  0.2965 -0.0221  0.1979
 1926SOL    HW1 8670   9.436   1.796   7.785 -0.0329 -1.9180 -1.3913
 1926SOL    HW2 8671   9.522   1.675   7.815 -1.4426 -2.4161  0.9568
 1927SOL     OW 8672   6.284   3.737   7.862 -0.1814  0.3777  0.4424
 1927SOL    HW1 8673   6.227   3.754   7.787 -0.6467 -1.9435  0.1996
 1927SOL    HW2 8674   6.367   3.709   7.823 -0.4803 -1.0034  0.7456
 1928SOL     OW 8675   6.661   4.878   5.562  0.2599 -0.0382  0.2389
 1928SOL    HW1 8676   6.725   4.940   5.528 -0.7191  0.4302 -0.8151
 1928SOL    HW2 8677   6.678   4.875   5.656  0.4265  1.7019  0.2965
 1929SOL     OW 8678   1.352   0.224   7.007 -0.6348  0.1176 -0.1169
 1929SOL    HW1 8679   1.287   0.182   6.950  0.6770 -0.4937 -1.2177
 1929SOL    HW2 8680   1.430   0.171   6.997 -0.3356  0.0223  2.2787
 1930SOL     OW 8681   0.937   0.728   5.940 -0.6851 -0.1388  0.3151
 1930SOL    HW1 8682   0.915   0.819   5.960 -0.2979  0.1250 -0.3925
 1930SOL    HW2 8683   1.015   0.710   5.991 -1.9982 -0.8159  2.2012
 1931SOL     OW 8684   4.455   2.427   6.744  0.5148  0.4183 -0.3241
 1931SOL    HW1 8685   4.406   2.352   6.713  0.1787  0.3106  0.4619
 1931SOL    HW2 8686   4.499   2.396   6.823 -0.4559  1.3300  0.5997
 1932SOL     OW 8687   8.531   3.906   6.217 -0.3164 -0.3935 -0.4719
 1932SOL    HW1 8688   8.498   3.818   6.236 -1.0500 -0.1267 -0.4571
 1932SOL    HW2 8689   8.489   3.929   6.134 -2.8447  1.2359  1.1289
 1933SOL     OW 8690   2.703   9.367   4.534  0.0690 -0.2549 -0.0207
 1933SOL    HW1 8691   2.657   9.424   4.472  0.3896  0.3180  0.2493
 1933SOL    HW2 8692   2.792   9.362   4.500  0.0297 -0.6405 -0.0687
 1934SOL     OW 8693   5.776   8.111   0.785 -0.1317  0.1305 -0.0112
 1934SOL    HW1 8694   5.694   8.066   0.808  0.9226 -2.2391 -0.5004
 1934SOL    HW2 8695   5.776   8.113   0.689  1.2017 -1.7334 -0.1156
 1935SOL     OW 8696   9.052   1.105   9.131 -0.2521 -0.1953 -0.9399
 1935SOL    HW1 8697   9.091   1.192   9.132 -1.3707  0.3247 -1.2066
 1935SOL    HW2 8698   9.108   1.054   9.190  1.3535  0.2571 -2.0080
 1936SOL     OW 8699   1.587   5.399   3.766  0.2201  0.0231  0.3617
 1936SOL    HW1 8700   1.538   5.362   3.839 -0.0745  1.6698  1.0381
 1936SOL    HW2 8701   1.619   5.483   3.798  1.8847 -0.1491 -0.7129
 1937SOL     OW 8702   1.301   2.707   8.122 -0.3888  0.0656  0.2796
 1937SOL    HW1 8703   1.338   2.654   8.051  0.1280 -2.9039  2.5623
 1937SOL    HW2 8704   1.240   2.767   8.078 -1.7811 -3.0661 -2.5070
 1938SOL     OW 8705   6.454   5.534   8.910  0.4399  0.3339  0.0632
 1938SOL    HW1 8706   6.509   5.612   8.921  0.3834  0.5635 -1.0921
 1938SOL    HW2 8707   6.438   5.503   8.999  1.6984  0.7758  0.4693
 1939SOL     OW 8708   6.330   4.971   0.308  0.2716 -0.0539 -0.6450
 1939SOL    HW1 8709   6.262   4.965   0.241  0.5707 -0.8658 -0.8896
 1939SOL    HW2 8710   6.388   4.896   0.290  0.7507  0.1339  0.0797
 1940SOL     OW 8711   3.853   6.573   8.372 -0.2778 -0.6499 -0.1755
 1940SOL    HW1 8712   3.918   6.532   8.314  1.4009 -0.2663  1.3422
 1940SOL    HW2 8713   3.849   6.664   8.343 -0.4448 -0.7602 -0.5101
 1941SOL     OW 8714   7.390   6.337   6.853  0.3764 -0.1246  0.2445
 1941SOL    HW1 8715   7.463   6.374   6.803 -1.0286  3.5157  0.5620
 1941SOL    HW2 8716   7.317   6.337   6.792 -0.4003  0.5645  1.1433
 1942SOL     OW 8717   3.577   3.824   0.013 -0.5532 -0.0118 -0.5182
 1942SOL    HW1 8718   3.541   3.842   0.100  1.1008 -0.7874  0.3728
 1942SOL    HW2 8719   3.640   3.895  -0.002 -0.0249 -0.4886 -0.5881
 1943SOL     OW 8720   3.831   8.416   1.421 -0.2429 -0.0362  0.3060
 1943SOL    HW1 8721   3.737   8.404   1.430 -0.4761  1.0761 -0.4428
 1943SOL    HW2 8722   3.855   8.365   1.344 -0.5406  0.9715 -0.4834
 1944SOL     OW 8723   3.087   0.444   0.178 -0.2357  0.6135  0.0705
 1944SOL    HW1 8724   3.028   0.410   0.110  0.5775 -1.2329  0.2376
 1944SOL    HW2 8725   3.040   0.428   0.259 -0.1092  0.4488  0.1110
 1945SOL     OW 8726   6.530   6.874   7.813 -0.1489  0.2093 -0.5006
 1945SOL    HW1 8727   6.463   6.939   7.792  0.6553  0.6658 -1.8286
 1945SOL    HW2 8728   6.591   6.879   7.739  0.3301 -1.5329 -0.2531
 1946SOL     OW 8729   8.853   4.337   6.626  0.1620  0.9802 -0.0100
 1946SOL    HW1 8730   8.926   4.290   6.667  0.3197 -1.3481 -2.6282
 1946SOL    HW2 8731   8.895   4.400   6.567  0.1466 -0.2972 -1.4486
 1947SOL     OW 8732   5.273   7.865   7.221 -0.0141  0.0128  0.0240
 1947SOL    HW1 8733   5.314   7.939   7.268  0.7096  0.1653 -0.8191
 1947SOL    HW2 8734   5.183   7.893   7.205 -0.7115 -0.5818  2.4796
 1948SOL     OW 8735   3.461   8.651   0.712 -0.9168 -0.4171  0.1317
 1948SOL    HW1 8736   3.365   8.647   0.703 -0.9888 -1.7168  1.1177
 1948SOL    HW2 8737   3.480   8.598   0.789  0.5279  0.7551  0.6375
 1949SOL     OW 8738   9.005   8.865   7.979  0.5047 -0.1522  0.2939
 1949SOL    HW1 8739   9.060   8.833   7.907 -0.9489 -0.1950 -0.8565
 1949SOL    HW2 8740   9.061   8.924   8.028  1.6607 -0.4259 -0.6621
 1950SOL     OW 8741   7.495   1.825   9.165  0.7058 -0.3643 -0.6972
 1950SOL    HW1 8742   7.487   1.797   9.074 -2.0819  1.0095 -0.9620
 1950SOL    HW2 8743   7.421   1.883   9.179  2.9505  2.2587  1.4609
 1951SOL     OW 8744   3.375   0.368   0.176  0.7893  0.1014  0.3844
 1951SOL    HW1 8745   3.286   0.393   0.150  0.2625 -3.5699 -2.1882
 1951SOL    HW2 8746   3.363   0.318   0.257  0.2312 -1.5090 -0.6470
 1952SOL     OW 8747   7.890   5.195   5.431  0.0143  0.2134 -0.6664
 1952SOL    HW1 8748   7.983   5.215   5.420  0.1765 -0.7099 -1.0539
 1952SOL    HW2 8749   7.882   5.168   5.522  0.0683  0.5967 -0.5480
 1953SOL     OW 8750   3.547   2.517   6.862  0.0263  0.1629  0.4939
 1953SOL    HW1 8751   3.583   2.574   6.795 -0.3199 -0.0665  0.1122
 1953SOL    HW2 8752   3.548   2.570   6.942 -1.3315  1.1050 -0.0811
 1954SOL     OW 8753   6.465   4.361   4.959 -0.6890  0.1107 -0.3580
 1954SOL    HW1 8754   6.545   4.372   5.011  0.1717  1.1179 -1.8078
 1954SOL    HW2 8755   6.444   4.268   4.967  0.4375 -0.1072  0.3107
 1955SOL     OW 8756   5.251   0.657   3.520 -0.1069 -0.7127  0.6792
 1955SOL    HW1 8757   5.216   0.569   3.535 -0.8645 -0.6523 -0.5445
 1955SOL    HW2 8758   5.179   0.715   3.542 -0.0306 -0.4636  0.2794
 1956SOL     OW 8759   6.177   5.811   4.865 -0.0345 -0.1663 -0.6243
 1956SOL    HW1 8760   6.173   5.907   4.861  0.4083 -0.1604 -0.9387
 1956SOL    HW2 8761   6.216   5.792   4.951 -0.6119 -0.0847 -0.3339
 1957SOL     OW 8762   4.281   7.839   2.184  0.2840  0.5025 -0.2496
 1957SOL    HW1 8763   4.342   7.859   2.255  0.8844 -0.8496 -0.3608
 1957SOL    HW2 8764   4.196   7.833   2.226  0.4913  0.6658  0.1973
 1958SOL     OW 8765   5.145   0.655   0.760 -0.0582  0.2941 -0.1520
 1958SOL    HW1 8766   5.216   0.621   0.815  0.2128  1.4737  0.2494
 1958SOL    HW2 8767   5.187   0.724   0.708 -1.0815  1.5973  0.7012
 1959SOL     OW 8768   4.964   2.522   7.795 -0.0902 -0.3437 -0.3097
 1959SOL    HW1 8769   4.933   2.510   7.705 -0.6031 -1.9897  0.0499
 1959SOL    HW2 8770   4.941   2.613   7.816  1.6255  0.6918 -2.4008
 1960SOL     OW 8771   2.806   8.112   0.801  0.3097  0.0838  0.0958
 1960SOL    HW1 8772   2.870   8.139   0.867 -1.1917  2.8244  0.6059
 1960SOL    HW2 8773   2.844   8.140   0.717  0.2730  0.7735  0.2988
 1961SOL     OW 8774   1.199   2.559   5.719 -0.3502  0.4707 -0.0075
 1961SOL    HW1 8775   1.196   2.631   5.656 -0.0698  0.2980 -0.2210
 1961SOL    HW2 8776   1.238   2.597   5.798 -0.1099  0.5281 -0.1529
 1962SOL     OW 8777   3.934   1.408   1.946  0.3588  0.0259 -0.3827
 1962SOL    HW1 8778   4.028   1.395   1.931  0.5791  0.8412  0.2680
 1962SOL    HW2 8779   3.929   1.478   2.011 -0.7135  0.3015 -0.7474
 1963SOL     OW 8780   7.292   5.538   7.207  0.5908  0.1281 -0.1892
 1963SOL    HW1 8781   7.337   5.550   7.291  0.9190  0.1752 -0.3672
 1963SOL    HW2 8782   7.244   5.456   7.217 -1.0788  1.1768  0.7731
 1964SOL     OW 8783   8.176   3.866   1.416  0.2274  0.6520 -0.4317
 1964SOL    HW1 8784   8.237   3.892   1.485  0.0125  1.2799 -0.4722
 1964SOL    HW2 8785   8.094   3.848   1.461 -0.4584  2.8717 -0.6857
 1965SOL     OW 8786   6.293   4.918   7.205  0.1762  0.7274 -0.2255
 1965SOL    HW1 8787   6.269   4.881   7.121  0.0754  0.9250 -0.2839
 1965SOL    HW2 8788   6.210   4.942   7.247  0.0821 -1.1463  0.7633
 1966SOL     OW 8789   2.910   6.823   3.985 -0.0433 -0.3618  0.1053
 1966SOL    HW1 8790   2.854   6.861   3.917  0.7068 -1.5436 -1.2384
 1966SOL    HW2 8791   2.849   6.792   4.052 -0.7027  2.7276  1.0934
 1967SOL     OW 8792   8.589   8.454   2.742  0.5001 -0.2048 -0.1314
 1967SOL    HW1 8793   8.575   8.388   2.674  1.2660 -1.8638  1.2398
 1967SOL    HW2 8794   8.677   8.436   2.775  0.3042  0.8152  1.0098
 1968SOL     OW 8795   9.582   4.357   1.266 -0.5417  0.0503 -0.2937
 1968SOL    HW1 8796   9.576   4.263   1.282  2.3495 -0.1282  0.3026
 1968SOL    HW2 8797   9.585   4.396   1.353 -0.5926  0.6115 -0.5369
 1969SOL     OW 8798   9.478   4.332   9.624 -0.3677  0.6737 -0.3189
 1969SOL    HW1 8799   9.471   4.284   9.541 -0.8379 -0.0909  0.1525
 1969SOL    HW2 8800   9.407   4.297   9.678 -0.2237  1.3452  0.3170
 1970SOL     OW 8801   0.071   1.795   8.778  0.1978  0.0234  0.5212
 1970SOL    HW1 8802   0.037   1.879   8.745  1.3973 -0.3476 -1.9076
 1970SOL    HW2 8803   0.140   1.820   8.839  0.9054  0.8491 -0.5778
 1971SOL     OW 8804   0.344   0.907   9.426  0.4348 -0.2245  0.3844
 1971SOL    HW1 8805   0.394   0.977   9.384  1.0726  0.6991  2.5642
 1971SOL    HW2 8806   0.362   0.829   9.372 -0.0076  1.1442 -1.8815
 1972SOL     OW 8807   5.051   7.400   4.235 -0.1946  0.5637  0.0575
 1972SOL    HW1 8808   5.001   7.379   4.156  0.8162  0.2293 -0.5071
 1972SOL    HW2 8809   5.142   7.407   4.205  0.4012 -0.8898  1.4026
 1973SOL     OW 8810   6.501   6.362   3.396  0.3534 -0.0972 -0.3571
 1973SOL    HW1 8811   6.572   6.363   3.331 -1.0866  2.1623 -2.0644
 1973SOL    HW2 8812   6.428   6.319   3.352 -0.2812  0.4020  0.1818
 1974SOL     OW 8813   0.733   4.338   4.345 -0.1194  0.8164 -0.4870
 1974SOL    HW1 8814   0.745   4.287   4.265 -0.0989  0.5287 -0.2988
 1974SOL    HW2 8815   0.644   4.316   4.374  0.1396  0.3669 -0.0339
 1975SOL     OW 8816   5.085   4.775   2.052 -0.1167  0.0577  0.3568
 1975SOL    HW1 8817   5.027   4.705   2.021 -2.0866  1.1560  1.3444
 1975SOL    HW2 8818   5.031   4.825   2.113  0.5132  3.5608 -1.6728
 1976SOL     OW 8819   6.281   8.516   6.016  0.1619 -0.6901 -0.5627
 1976SOL    HW1 8820   6.233   8.465   5.951  2.2974  0.5919 -3.3035
 1976SOL    HW2 8821   6.338   8.574   5.966 -1.4490  3.9504  2.2836
 1977SOL     OW 8822   8.292   5.911   3.610  0.0172  0.5367 -0.6343
 1977SOL    HW1 8823   8.362   5.973   3.589  0.0459  0.6482 -0.2159
 1977SOL    HW2 8824   8.257   5.942   3.694 -0.6163  0.5582 -0.8962
 1978SOL     OW 8825   6.548   4.652   0.594 -0.0675  0.2259 -0.2179
 1978SOL    HW1 8826   6.572   4.573   0.643  0.5579  0.7150  0.2771
 1978SOL    HW2 8827   6.518   4.619   0.509 -2.8943 -0.7773  1.0329
 1979SOL     OW 8828   6.856   3.759   5.159  0.4717  0.1248 -0.2858
 1979SOL    HW1 8829   6.934   3.800   5.121 -0.7043  2.4310 -0.4151
 1979SOL    HW2 8830   6.860   3.781   5.252 -0.8855  1.9506 -0.5850
 1980SOL     OW 8831   3.231   5.424   5.869  0.3943  0.2184 -0.3402
 1980SOL    HW1 8832   3.199   5.448   5.782 -0.3912  1.7524  0.3441
 1980SOL    HW2 8833   3.267   5.336   5.857  0.1887  0.3379 -2.1814
 1981SOL     OW 8834   7.458   0.617   4.366 -0.0460 -0.3495  0.2470
 1981SOL    HW1 8835   7.484   0.531   4.400  0.1490 -0.4974 -0.2755
 1981SOL    HW2 8836   7.383   0.599   4.310  0.8259 -0.3630 -0.9489
 1982SOL     OW 8837   2.685   3.004   1.320 -0.0999  0.0945 -0.1691
 1982SOL    HW1 8838   2.726   3.015   1.406  0.9359 -0.5956 -0.5678
 1982SOL    HW2 8839   2.746   2.951   1.270 -1.9346 -1.9555 -0.4306
 1983SOL     OW 8840   6.409   1.108   2.317  0.6491  0.0048 -0.1618
 1983SOL    HW1 8841   6.428   1.155   2.235 -3.0814 -0.8425 -1.6883
 1983SOL    HW2 8842   6.407   1.016   2.291 -1.7706 -0.1939  0.5372
 1984SOL     OW 8843   7.811   4.854   7.335  0.2424  0.2515  0.0274
 1984SOL    HW1 8844   7.829   4.867   7.242  2.9979 -1.5981  0.1975
 1984SOL    HW2 8845   7.850   4.769   7.356  0.0313  0.7729  2.9755
 1985SOL     OW 8846   2.246   5.593   0.995 -0.2901 -0.0556  0.0504
 1985SOL    HW1 8847   2.170   5.585   0.937 -1.2300  0.8381  1.1255
 1985SOL    HW2 8848   2.248   5.510   1.044  1.2796 -1.3866 -2.0674
 1986SOL     OW 8849   6.061   2.710   3.276  0.2755  0.2299  0.6258
 1986SOL    HW1 8850   6.153   2.703   3.249  0.4345  2.0599  0.6028
 1986SOL    HW2 8851   6.020   2.764   3.209 -0.5384  0.4243  1.2607
 1987SOL     OW 8852   7.478   7.471   0.408 -0.2988  0.1557 -0.2874
 1987SOL    HW1 8853   7.424   7.442   0.481 -1.2046  1.2687 -0.5025
 1987SOL    HW2 8854   7.421   7.464   0.331 -0.0500  1.0615 -0.5629
 1988SOL     OW 8855   5.343   9.133   4.935 -0.2297 -0.1351 -0.0474
 1988SOL    HW1 8856   5.386   9.066   4.883 -0.1449  0.5131 -0.8249
 1988SOL    HW2 8857   5.267   9.088   4.972 -1.2267 -0.2230 -2.0450
 1989SOL     OW 8858   5.312   4.451   9.110 -0.1289  0.4279 -0.0143
 1989SOL    HW1 8859   5.379   4.398   9.067 -1.7425  0.4197 -2.7416
 1989SOL    HW2 8860   5.348   4.539   9.114  0.9296 -0.0174  0.7541
 1990SOL     OW 8861   4.216   2.580   2.918  0.2706  0.0714  0.3185
 1990SOL    HW1 8862   4.263   2.646   2.969  0.3713  0.6506 -0.5013
 1990SOL    HW2 8863   4.140   2.626   2.882 -0.0998 -0.4662  0.3932
 1991SOL     OW 8864   6.438   7.024   6.293 -0.4799 -0.2977 -0.2365
 1991SOL    HW1 8865   6.385   6.990   6.365  1.4188 -0.7515  1.0248
 1991SOL    HW2 8866   6.399   7.109   6.273 -1.1109 -0.1969  1.2831
 1992SOL     OW 8867   7.977   3.716   6.305  0.6123  0.4193 -0.0869
 1992SOL    HW1 8868   7.982   3.664   6.225  2.9821  2.2847 -1.2586
 1992SOL    HW2 8869   7.886   3.747   6.308  0.4248  0.1355 -1.9250
 1993SOL     OW 8870   8.971   7.116   4.116 -0.0235 -0.5732 -0.2955
 1993SOL    HW1 8871   8.996   7.032   4.154  0.1133 -0.3996  0.0020
 1993SOL    HW2 8872   9.001   7.111   4.025 -0.8338 -1.1956 -0.5319
 1994SOL     OW 8873   9.214   5.035   4.080 -0.4317 -0.0123 -0.2435
 1994SOL    HW1 8874   9.160   4.959   4.101 -1.3214  0.5211 -0.5482
 1994SOL    HW2 8875   9.152   5.100   4.046  0.1813  1.1592  0.7980
 1995SOL     OW 8876   9.595   3.892   4.220  0.2340  0.7501 -0.1438
 1995SOL    HW1 8877   9.546   3.973   4.225 -2.4310 -0.8013  0.8539
 1995SOL    HW2 8878   9.540   3.827   4.265  3.3088 -1.1281  1.2463
 1996SOL     OW 8879   8.705   8.894   1.619 -0.0023 -0.2685 -0.1803
 1996SOL    HW1 8880   8.618   8.865   1.594 -0.0709  0.7386 -1.2140
 1996SOL    HW2 8881   8.727   8.963   1.555  0.0847  2.0263  2.1612
 1997SOL     OW 8882   1.128   4.332   6.732 -0.0532  0.0847 -0.5555
 1997SOL    HW1 8883   1.196   4.386   6.772 -1.3253  1.0264  0.3870
 1997SOL    HW2 8884   1.098   4.382   6.656 -1.7383  1.1262  0.7277
 1998SOL     OW 8885   3.986   5.295   6.138  0.4755 -0.4091 -0.3999
 1998SOL    HW1 8886   4.012   5.386   6.128 -0.5125  0.0235  0.6679
 1998SOL    HW2 8887   4.037   5.247   6.073  0.2139  1.0485 -1.7221
 1999SOL     OW 8888   5.546   0.301   5.998 -0.1690 -0.1653  0.0519
 1999SOL    HW1 8889   5.474   0.329   5.942 -0.5398 -0.4687  0.3673
 1999SOL    HW2 8890   5.625   0.320   5.947 -0.5471 -3.2931 -1.9635
 2000SOL     OW 8891   4.709   0.828   5.852  0.2456 -0.5596 -0.0349
 2000SOL    HW1 8892   4.683   0.880   5.929  0.3169 -2.4652  1.3524
 2000SOL    HW2 8893   4.666   0.871   5.779  1.0392  1.9698  0.8823
 2001SOL     OW 8894   9.130   6.913   5.183  0.0233 -0.2117  0.1103
 2001SOL    HW1 8895   9.173   6.828   5.193 -0.1886 -0.0780  3.0217
 2001SOL    HW2 8896   9.159   6.963   5.259 -0.5532  2.0583 -1.0632
 2002SOL     OW 8897   6.737   4.557   3.270  0.6814  0.0205 -0.1820
 2002SOL    HW1 8898   6.704   4.478   3.226  1.0178 -0.5499  0.5804
 2002SOL    HW2 8899   6.658   4.606   3.293  0.4903  1.1232 -2.7668
 2003SOL     OW 8900   8.547   7.104   3.706 -0.0658  0.2813  0.3964
 2003SOL    HW1 8901   8.635   7.067   3.700 -0.4926 -0.8219  0.6975
 2003SOL    HW2 8902   8.538   7.131   3.797  0.2571  1.2040  0.1696
 2004SOL     OW 8903   4.633   5.321   6.820  0.0239  0.0557 -0.1556
 2004SOL    HW1 8904   4.650   5.402   6.774  0.5502 -1.1856 -2.2750
 2004SOL    HW2 8905   4.677   5.331   6.905 -0.8814  2.3615  0.0999
 2005SOL     OW 8906   7.844   6.372   7.458 -0.2605  0.0106  0.1746
 2005SOL    HW1 8907   7.874   6.462   7.444 -0.7404  0.1536  0.0458
 2005SOL    HW2 8908   7.759   6.368   7.414  0.2911 -0.8546 -0.8750
 2006SOL     OW 8909   6.791   7.940   0.842  0.2832 -0.0623 -0.0886
 2006SOL    HW1 8910   6.736   7.924   0.766  1.0340  2.3810 -1.2287
 2006SOL    HW2 8911   6.744   8.006   0.893  0.5228 -0.5392  0.7714
 2007SOL     OW 8912   0.447   8.281   2.325  0.5151 -0.0954 -0.1198
 2007SOL    HW1 8913   0.511   8.235   2.379 -0.6212 -1.8606 -0.1953
 2007SOL    HW2 8914   0.446   8.232   2.242  0.6715  1.2555 -0.9403
 2008SOL     OW 8915   1.103   6.778   3.616 -0.5288 -0.4192  0.3956
 2008SOL    HW1 8916   1.195   6.752   3.617 -0.9226 -1.9334  0.3334
 2008SOL    HW2 8917   1.077   6.774   3.524 -0.5840  0.3502  0.3680
 2009SOL     OW 8918   1.010   5.544   8.424 -0.3844  0.3160 -0.2742
 2009SOL    HW1 8919   0.939   5.602   8.400 -0.2625  0.1327 -1.1027
 2009SOL    HW2 8920   1.018   5.483   8.350 -0.4521 -0.7003  0.5275
 2010SOL     OW 8921   7.025   3.039   8.115 -0.6385  0.3007 -0.1744
 2010SOL    HW1 8922   6.938   3.000   8.105  0.4087 -1.8065 -1.9411
 2010SOL    HW2 8923   7.050   3.019   8.205 -1.2578 -0.7123 -0.2139
 2011SOL     OW 8924   7.188   1.300   4.975  0.2704  0.3844 -0.2627
 2011SOL    HW1 8925   7.145   1.386   4.981  0.1352  0.2384  1.1872
 2011SOL    HW2 8926   7.122   1.244   4.933  0.2233  0.8863 -0.8861
 2012SOL     OW 8927   6.119   9.229   0.337  0.3747 -0.9428  0.5794
 2012SOL    HW1 8928   6.049   9.240   0.273 -0.2336 -0.7958  1.2605
 2012SOL    HW2 8929   6.083   9.169   0.403  1.2393 -1.6469  0.4356
 2013SOL     OW 8930   8.918   6.655   8.449  0.6356  0.4188 -0.3567
 2013SOL    HW1 8931   8.843   6.596   8.451  1.7277 -0.9847  0.2085
 2013SOL    HW2 8932   8.959   6.638   8.364  0.5177  0.9724 -0.5355
 2014SOL     OW 8933   5.745   4.258   8.811 -0.3526 -0.0961  0.0055
 2014SOL    HW1 8934   5.701   4.251   8.895  0.5183 -1.3960  0.3761
 2014SOL    HW2 8935   5.677   4.240   8.746 -0.7035 -0.5443  0.4957
 2015SOL     OW 8936   3.865   2.593   2.019  0.0205  1.0046 -0.6063
 2015SOL    HW1 8937   3.849   2.626   2.108  0.6535  0.9623 -0.4702
 2015SOL    HW2 8938   3.887   2.671   1.968  0.1649  0.9645 -0.6058
 2016SOL     OW 8939   6.139   6.251   1.931  0.4990  0.1396  0.2588
 2016SOL    HW1 8940   6.059   6.218   1.972  1.7194 -1.7560  1.2581
 2016SOL    HW2 8941   6.161   6.329   1.982 -0.8074  0.8558 -0.2050
 2017SOL     OW 8942   0.836   3.770   4.600 -0.7293 -0.0509 -0.0468
 2017SOL    HW1 8943   0.837   3.842   4.538 -2.3300 -1.1819 -1.4652
 2017SOL    HW2 8944   0.924   3.769   4.638 -0.2464  1.7060 -1.0563
 2018SOL     OW 8945   7.736   1.909   8.017 -0.1040 -0.4492 -0.1429
 2018SOL    HW1 8946   7.712   1.925   8.109 -0.1692  0.4991 -0.3090
 2018SOL    HW2 8947   7.736   1.996   7.977  1.2693 -0.6906 -0.7231
 2019SOL     OW 8948   0.399   8.267   1.397  0.0728 -0.0093 -0.4598
 2019SOL    HW1 8949   0.389   8.172   1.389 -0.7784 -0.2103  2.0465
 2019SOL    HW2 8950   0.322   8.303   1.353 -0.5199 -0.5778  0.0948
 2020SOL     OW 8951   3.042   0.851   3.949 -0.2384 -0.4620  0.2979
 2020SOL    HW1 8952   3.130   0.815   3.964 -0.0311 -1.6250 -2.9320
 2020SOL    HW2 8953   3.056   0.945   3.941  0.5268 -0.5128  0.8256
 2021SOL     OW 8954   5.906   1.095   9.092 -0.6085 -0.0381 -0.2702
 2021SOL    HW1 8955   5.940   1.173   9.136 -1.8337 -0.8033  2.2510
 2021SOL    HW2 8956   5.981   1.035   9.086 -0.4967 -0.0935  1.3173
 2022SOL     OW 8957   2.498   9.221   3.501 -0.6344 -0.0027  0.1449
 2022SOL    HW1 8958   2.591   9.247   3.501 -0.6557  0.1422  1.7023
 2022SOL    HW2 8959   2.497   9.135   3.459 -0.1130  0.9339 -1.9590
 2023SOL     OW 8960   6.321   3.873   4.607  0.0358  0.2268 -0.5891
 2023SOL    HW1 8961   6.298   3.782   4.628 -1.1505  0.5055 -0.5657
 2023SOL    HW2 8962   6.415   3.879   4.622  0.0764 -0.9266 -0.3187
 2024SOL     OW 8963   0.264   5.960   8.300 -0.0871  0.3576  0.3260
 2024SOL    HW1 8964   0.359   5.950   8.310  0.3364  1.8367 -1.5812
 2024SOL    HW2 8965   0.252   6.054   8.284 -1.7274  0.0217 -0.6432
 2025SOL     OW 8966   8.515   1.573   9.464 -0.1259 -0.2926 -0.3572
 2025SOL    HW1 8967   8.432   1.583   9.416 -0.2107  0.7704 -0.0196
 2025SOL    HW2 8968   8.582   1.601   9.401 -0.0287 -1.0338 -0.5893
 2026SOL     OW 8969   3.990   8.521   5.896 -0.0598  0.0690  0.2790
 2026SOL    HW1 8970   3.895   8.517   5.888 -0.0358 -0.1004  0.0732
 2026SOL    HW2 8971   4.020   8.433   5.873  0.1007 -0.0836  1.0391
 2027SOL     OW 8972   6.760   3.831   0.971  0.2678  0.3462 -0.3440
 2027SOL    HW1 8973   6.680   3.806   0.925 -0.4343  0.1709  0.9120
 2027SOL    HW2 8974   6.803   3.747   0.991  1.5448  0.4733 -2.2491
 2028SOL     OW 8975   0.654   5.971   1.797 -0.2387  0.3439 -0.0194
 2028SOL    HW1 8976   0.683   5.973   1.705 -0.2122  0.1159 -0.0151
 2028SOL    HW2 8977   0.588   5.902   1.800  0.4269 -0.2957  0.3310
 2029SOL     OW 8978   6.868   5.062   4.197  0.1172 -0.3613  0.1643
 2029SOL    HW1 8979   6.772   5.054   4.193  0.0138 -0.7878  2.2652
 2029SOL    HW2 8980   6.884   5.105   4.281  1.6935  2.1525 -1.2777
 2030SOL     OW 8981   4.549   3.646   3.663 -0.0987 -0.4960 -0.7345
 2030SOL    HW1 8982   4.465   3.604   3.644 -0.0919 -0.4053 -0.9726
 2030SOL    HW2 8983   4.539   3.735   3.629 -0.1419 -0.2808 -0.1640
 2031SOL     OW 8984   1.969   1.667   0.487  0.2776  0.0904 -0.1944
 2031SOL    HW1 8985   1.925   1.583   0.474 -0.7156  0.5256  0.2678
 2031SOL    HW2 8986   1.898   1.729   0.506  0.9260  1.1822 -1.2136
 2032SOL     OW 8987   4.835   0.412   0.218  0.2681 -0.0275  0.4315
 2032SOL    HW1 8988   4.924   0.409   0.183 -0.4754  0.8438 -1.6767
 2032SOL    HW2 8989   4.826   0.502   0.251 -0.5981  0.7211 -1.6849
 2033SOL     OW 8990   6.450   5.618   6.217 -0.0206 -0.4211 -0.2657
 2033SOL    HW1 8991   6.518   5.587   6.277 -0.5620 -1.7850 -0.3347
 2033SOL    HW2 8992   6.469   5.712   6.207  2.1761 -0.8427 -0.6939
 2034SOL     OW 8993   0.930   7.662   2.528 -0.0884  0.1700 -0.1955
 2034SOL    HW1 8994   0.858   7.673   2.466  0.1000  0.2069 -0.4125
 2034SOL    HW2 8995   0.888   7.638   2.610 -0.2307 -2.3609 -0.9034
 2035SOL     OW 8996   4.747   7.644   8.430  0.2010  0.0416 -0.4745
 2035SOL    HW1 8997   4.837   7.625   8.459 -0.2265  0.1965  1.0446
 2035SOL    HW2 8998   4.692   7.587   8.482 -0.7706  2.0346  0.8280
 2036SOL     OW 8999   1.342   3.819   0.227  0.1921 -0.0987  0.4225
 2036SOL    HW1 9000   1.310   3.872   0.301 -0.0190  0.1318  0.1702
 2036SOL    HW2 9001   1.404   3.876   0.182 -0.3928  0.1155 -0.1253
 2037SOL     OW 9002   9.070   7.524   8.320  0.0470  0.0140 -0.3838
 2037SOL    HW1 9003   9.028   7.520   8.406 -2.5190 -0.0408 -1.5439
 2037SOL    HW2 9004   9.077   7.433   8.293 -2.4818  0.0987 -1.6362
 2038SOL     OW 9005   9.421   5.004   6.866 -0.2688  0.5240 -0.0430
 2038SOL    HW1 9006   9.484   4.997   6.794  0.9116 -1.7306  1.0913
 2038SOL    HW2 9007   9.369   4.925   6.860 -0.4230  0.5013  1.3327
 2039SOL     OW 9008   2.667   1.376   5.269  0.3992  0.2477  0.8179
 2039SOL    HW1 9009   2.734   1.422   5.319 -0.6493 -0.5222  3.0357
 2039SOL    HW2 9010   2.670   1.286   5.302 -0.8723 -0.1058  0.0502
 2040SOL     OW 9011   5.986   4.989   4.625  0.1018  0.7408  0.6879
 2040SOL    HW1 9012   5.966   4.900   4.654  0.6611 -0.2444 -1.7297
 2040SOL    HW2 9013   5.954   5.045   4.696 -1.8608 -1.2599  1.5036
 2041SOL     OW 9014   6.211   7.848   0.099  0.3417  0.5322  0.4920
 2041SOL    HW1 9015   6.287   7.791   0.088 -0.9359 -1.5536  1.8664
 2041SOL    HW2 9016   6.237   7.907   0.170  0.6263 -0.3061  1.1014
 2042SOL     OW 9017   2.076   8.991   3.397 -0.4518 -0.0241 -0.0220
 2042SOL    HW1 9018   2.126   8.989   3.316 -1.6556 -3.9407 -0.8874
 2042SOL    HW2 9019   1.987   9.014   3.371 -0.2454  1.6983  0.7019
 2043SOL     OW 9020   7.127   8.310   7.597 -0.3318  1.0707 -0.0996
 2043SOL    HW1 9021   7.181   8.367   7.652  0.2598 -0.2848  0.7793
 2043SOL    HW2 9022   7.188   8.274   7.533 -0.3420  0.1868  0.3708
 2044SOL     OW 9023   0.538   5.974   5.869 -0.2533  0.4305 -0.2014
 2044SOL    HW1 9024   0.575   6.051   5.825 -1.4785  1.8056  1.0583
 2044SOL    HW2 9025   0.600   5.904   5.851  1.3855  1.9218 -0.6581
 2045SOL     OW 9026   3.221   2.852   3.190 -0.0470 -0.3558 -0.1879
 2045SOL    HW1 9027   3.219   2.824   3.281 -1.8711  4.1676  1.4878
 2045SOL    HW2 9028   3.308   2.890   3.178 -0.4174  0.7276  0.3846
 2046SOL     OW 9029   4.922   7.103   0.521 -0.2677 -0.0681 -0.1277
 2046SOL    HW1 9030   4.916   7.070   0.611  0.8265  1.1868  0.4368
 2046SOL    HW2 9031   5.016   7.104   0.502 -0.4915 -0.3279 -1.3039
 2047SOL     OW 9032   8.074   5.013   7.960 -0.3008  0.5610  0.2254
 2047SOL    HW1 9033   8.142   5.068   7.999 -0.1875  0.8539 -0.3726
 2047SOL    HW2 9034   8.025   5.073   7.902 -0.9573  0.3146  0.5189
 2048SOL     OW 9035   6.038   3.579   1.948 -0.2026 -0.5216 -0.0846
 2048SOL    HW1 9036   6.040   3.590   1.853  0.1990 -1.0368 -0.1364
 2048SOL    HW2 9037   5.977   3.507   1.963 -1.5871  0.6430  0.1649
 2049SOL     OW 9038   7.763   0.612   1.346  0.0037 -0.5603  0.3545
 2049SOL    HW1 9039   7.776   0.519   1.366  0.1095 -1.0460 -1.6832
 2049SOL    HW2 9040   7.701   0.612   1.273 -2.5584  1.1803  2.3932
 2050SOL     OW 9041   2.886   2.170   4.074 -0.5394 -0.0189  0.0954
 2050SOL    HW1 9042   2.838   2.250   4.053 -0.0139 -0.2960 -2.5460
 2050SOL    HW2 9043   2.968   2.178   4.026 -0.1711 -1.8212  0.3397
 2051SOL     OW 9044   2.242   1.512   9.539 -0.3519 -0.1956  0.0978
 2051SOL    HW1 9045   2.169   1.474   9.491 -0.3071 -0.7010  0.4251
 2051SOL    HW2 9046   2.286   1.437   9.580  0.6649  0.0317 -0.5279
 2052SOL     OW 9047   0.022   1.395   9.251  0.4978 -0.0960 -0.0157
 2052SOL    HW1 9048   0.108   1.366   9.222 -0.0132 -1.2493 -0.4584
 2052SOL    HW2 9049  -0.038   1.326   9.221 -0.4612  0.2378  1.0554
 2053SOL     OW 9050   0.621   3.721   3.766  0.5404 -0.1165 -0.0656
 2053SOL    HW1 9051   0.661   3.755   3.846  0.3512 -0.9157  0.3854
 2053SOL    HW2 9052   0.694   3.685   3.716  0.6794  0.5230 -0.3296
 2054SOL     OW 9053   8.845   0.290   6.044  0.0796 -0.8033  0.0658
 2054SOL    HW1 9054   8.896   0.257   5.969 -0.8109 -0.6667 -0.6231
 2054SOL    HW2 9055   8.906   0.346   6.091  1.0743 -1.9568  0.2259
 2055SOL     OW 9056   6.931   1.715   3.812  0.0423 -0.0939  0.4483
 2055SOL    HW1 9057   6.998   1.701   3.745  0.4136  0.4311  0.7045
 2055SOL    HW2 9058   6.896   1.628   3.829 -2.4554  0.0799 -2.8755
 2056SOL     OW 9059   8.239   0.508   2.212 -0.3852 -0.0129  0.2385
 2056SOL    HW1 9060   8.266   0.441   2.149  1.8155 -0.1219  1.2153
 2056SOL    HW2 9061   8.148   0.486   2.233 -0.5692 -1.0656 -1.4680
 2057SOL     OW 9062   6.048   8.837   3.765 -0.1012 -0.0587  0.2204
 2057SOL    HW1 9063   6.028   8.833   3.858  0.6300  0.5023  0.4099
 2057SOL    HW2 9064   6.021   8.925   3.738  2.2080  0.8260  0.5354
 2058SOL     OW 9065   6.772   8.449   1.984  0.0739 -0.0708 -0.3604
 2058SOL    HW1 9066   6.695   8.435   2.038  0.1081 -1.7827 -0.6959
 2058SOL    HW2 9067   6.738   8.453   1.894  0.3492 -0.7138 -0.4990
 2059SOL     OW 9068   2.115   7.065   2.489 -0.3548 -0.0043 -0.4088
 2059SOL    HW1 9069   2.124   7.135   2.554  0.0027 -0.0472 -0.4117
 2059SOL    HW2 9070   2.042   7.013   2.520  0.3662 -0.5314  0.4287
 2060SOL     OW 9071   3.917   7.980   5.206 -0.7749 -0.0435  0.0175
 2060SOL    HW1 9072   3.866   7.918   5.258  2.3778 -2.2926  0.6965
 2060SOL    HW2 9073   3.879   7.974   5.118 -2.9994  0.0802  0.8903
 2061SOL     OW 9074   2.474   0.556   5.116 -0.1958  0.0039 -0.0610
 2061SOL    HW1 9075   2.566   0.537   5.133 -0.2344 -0.8980 -0.8401
 2061SOL    HW2 9076   2.429   0.525   5.195  0.1955  0.9076  0.5448
 2062SOL     OW 9077   4.639   3.535   7.681 -0.0527 -0.3575  0.3746
 2062SOL    HW1 9078   4.561   3.564   7.633  1.7458 -0.2646 -2.7970
 2062SOL    HW2 9079   4.627   3.441   7.691 -0.1654 -0.5263 -1.0798
 2063SOL     OW 9080   4.457   8.236   7.590 -0.1884 -0.4219  0.4548
 2063SOL    HW1 9081   4.423   8.219   7.502  1.5544 -0.3154 -0.2853
 2063SOL    HW2 9082   4.418   8.169   7.645 -1.0464 -0.7002 -0.4741
 2064SOL     OW 9083   8.840   4.286   1.141  0.2020  0.2428 -0.4332
 2064SOL    HW1 9084   8.862   4.256   1.229 -0.4893 -2.0658 -0.9828
 2064SOL    HW2 9085   8.834   4.381   1.149  2.8559  0.3843  1.3808
 2065SOL     OW 9086   0.739   3.362   1.525 -0.2598 -0.0829  0.3340
 2065SOL    HW1 9087   0.767   3.317   1.445 -1.8300 -2.0273  0.7806
 2065SOL    HW2 9088   0.681   3.431   1.494 -1.5787 -1.3862 -0.2354
 2066SOL     OW 9089   8.760   6.896   1.769 -0.4143  0.0835  0.3261
 2066SOL    HW1 9090   8.743   6.834   1.697 -0.6381  1.1667 -0.5875
 2066SOL    HW2 9091   8.825   6.852   1.823 -0.5270 -0.9347 -0.3222
 2067SOL     OW 9092   1.833   2.828   6.180 -0.5439  0.4314  0.1737
 2067SOL    HW1 9093   1.796   2.916   6.176 -0.8182  0.3933  1.4452
 2067SOL    HW2 9094   1.758   2.770   6.169 -1.0408  0.3486  3.1571
 2068SOL     OW 9095   7.612   4.781   2.003  0.4787  0.8382  0.8195
 2068SOL    HW1 9096   7.638   4.755   2.091 -1.0768 -3.1029  0.3058
 2068SOL    HW2 9097   7.671   4.734   1.945 -2.1067 -1.4244 -0.1941
 2069SOL     OW 9098   6.237   9.296   1.809 -0.4240 -0.1070  0.2156
 2069SOL    HW1 9099   6.186   9.351   1.751 -0.4838  0.0516  0.4168
 2069SOL    HW2 9100   6.303   9.355   1.846  0.2721 -0.4367 -0.4853
 2070SOL     OW 9101   0.271   3.068   8.080  0.4516 -0.2141  0.1413
 2070SOL    HW1 9102   0.349   3.115   8.050  0.1566 -1.5091 -3.0574
 2070SOL    HW2 9103   0.225   3.044   7.999 -2.1631 -1.3503  1.8454
 2071SOL     OW 9104   5.083   1.492   1.574  0.1430  0.1099  0.3065
 2071SOL    HW1 9105   5.080   1.562   1.640  0.5771 -0.7198  1.2350
 2071SOL    HW2 9106   5.122   1.534   1.497  0.8997  0.7655  1.0227
 2072SOL     OW 9107   5.552   3.643   2.429  0.5968 -0.1744 -0.3045
 2072SOL    HW1 9108   5.612   3.593   2.374  1.4868 -0.1909  0.6546
 2072SOL    HW2 9109   5.601   3.661   2.509 -0.4622  0.3613  0.2555
 2073SOL     OW 9110   5.027   7.862   6.288 -0.3779 -0.7510 -0.2201
 2073SOL    HW1 9111   4.942   7.843   6.247 -0.9046  0.3634  0.3014
 2073SOL    HW2 9112   5.020   7.823   6.375 -0.8249  0.3525  0.2519
 2074SOL     OW 9113   0.416   7.955   3.286  0.2488 -0.0527  0.2320
 2074SOL    HW1 9114   0.336   8.000   3.260  0.3745 -0.5896 -1.2085
 2074SOL    HW2 9115   0.473   7.962   3.209  1.8660  0.8983  1.4617
 2075SOL     OW 9116   5.666   0.666   1.000 -0.1008  0.7997  0.3078
 2075SOL    HW1 9117   5.653   0.750   0.957 -0.2931  0.3834 -0.4699
 2075SOL    HW2 9118   5.723   0.686   1.074  1.1635  1.3791 -0.7585
 2076SOL     OW 9119   5.861   2.809   0.604 -0.1613  0.0593  0.3650
 2076SOL    HW1 9120   5.793   2.813   0.536 -0.1150  1.9591  0.3715
 2076SOL    HW2 9121   5.903   2.724   0.591 -1.6237 -0.5713 -0.5263
 2077SOL     OW 9122   6.191   9.551   9.373  0.5241 -0.0228  0.0208
 2077SOL    HW1 9123   6.139   9.536   9.294  2.2827 -1.5639 -0.9367
 2077SOL    HW2 9124   6.236   9.634   9.357 -1.1151  1.0169  0.6026
 2078SOL     OW 9125   1.261   0.334   6.171  0.2965  0.2311  0.1916
 2078SOL    HW1 9126   1.217   0.333   6.256  0.3950 -0.6460  0.2421
 2078SOL    HW2 9127   1.196   0.301   6.110  0.2465  0.8046 -0.0674
 2079SOL     OW 9128   1.563   7.949   7.221  0.0654  0.3101  0.2818
 2079SOL    HW1 9129   1.468   7.940   7.219 -0.0261  1.3488 -0.9748
 2079SOL    HW2 9130   1.578   8.036   7.259  0.4199  1.0509 -1.4927
 2080SOL     OW 9131   7.129   5.735   1.706 -0.0288  0.2929 -0.0520
 2080SOL    HW1 9132   7.108   5.787   1.783  1.5963 -0.3009  0.8342
 2080SOL    HW2 9133   7.159   5.651   1.740  0.5987 -0.0331 -1.3233
 2081SOL     OW 9134   0.483   4.546   2.993  0.0614 -0.0690 -0.3382
 2081SOL    HW1 9135   0.561   4.599   2.978 -0.9715  1.6106  0.0449
 2081SOL    HW2 9136   0.473   4.545   3.089  0.3926 -1.4938 -0.2875
 2082SOL     OW 9137   1.702   4.978   4.681 -0.2900 -0.0665 -0.0065
 2082SOL    HW1 9138   1.743   4.957   4.597 -1.5591 -1.1325 -0.3926
 2082SOL    HW2 9139   1.673   4.894   4.715 -2.0579  0.6362  0.2976
 2083SOL     OW 9140   8.481   1.142   7.918  0.2112 -0.0414  0.1420
 2083SOL    HW1 9141   8.466   1.207   7.848 -0.6260 -0.6665 -0.2813
 2083SOL    HW2 9142   8.522   1.192   7.988  0.7925  0.6717 -0.6779
 2084SOL     OW 9143   3.155   7.506   3.822  0.8410  0.5932 -0.1772
 2084SOL    HW1 9144   3.162   7.595   3.855  2.4012  0.7267 -0.8204
 2084SOL    HW2 9145   3.237   7.464   3.847  0.2053 -0.6193 -0.0403
 2085SOL     OW 9146   2.037   5.407   3.502  0.2128 -0.4220  0.0882
 2085SOL    HW1 9147   1.968   5.378   3.561  1.4325 -1.2949  1.1308
 2085SOL    HW2 9148   2.033   5.503   3.505 -1.6205 -0.4348 -0.7152
 2086SOL     OW 9149   5.089   2.144   1.295 -0.4192  0.0593  0.5609
 2086SOL    HW1 9150   5.139   2.063   1.302 -0.3531 -0.1555 -1.7581
 2086SOL    HW2 9151   5.153   2.208   1.263 -1.0557  0.3758 -0.1038
 2087SOL     OW 9152   9.495   9.072   5.883 -0.4951 -0.1664 -0.0380
 2087SOL    HW1 9153   9.481   9.019   5.805  0.4103  0.9696 -1.0090
 2087SOL    HW2 9154   9.466   9.160   5.859  1.5337  0.6409  0.2259
 2088SOL     OW 9155   4.275   7.753   9.281 -0.2428  0.6170 -0.9089
 2088SOL    HW1 9156   4.225   7.753   9.200  1.6022 -0.8293 -2.1415
 2088SOL    HW2 9157   4.361   7.719   9.256 -0.6195 -3.5002  2.2316
 2089SOL     OW 9158   0.849   9.471   4.768 -0.1433 -0.4370  0.5989
 2089SOL    HW1 9159   0.879   9.389   4.806 -0.3676 -0.2872  1.1100
 2089SOL    HW2 9160   0.757   9.477   4.792 -0.3148 -0.3783 -0.0440
 2090SOL     OW 9161   3.256   7.788   1.370  0.5665  0.4261  0.0443
 2090SOL    HW1 9162   3.280   7.796   1.462  2.5174 -0.3816 -0.3381
 2090SOL    HW2 9163   3.318   7.724   1.334  0.2489  1.1403 -1.9504
 2091SOL     OW 9164   6.594   0.069   8.054 -0.2234  0.5271  0.4128
 2091SOL    HW1 9165   6.550   0.016   8.121 -2.3734  0.7354 -0.7438
 2091SOL    HW2 9166   6.673   0.019   8.032  0.8927  0.7467  3.4490
 2092SOL     OW 9167   6.317   0.621   2.391  0.1555 -0.5519  0.1066
 2092SOL    HW1 9168   6.322   0.610   2.486 -1.0337 -0.4251  0.1981
 2092SOL    HW2 9169   6.333   0.534   2.355  3.4341 -0.1386  0.2581
 2093SOL     OW 9170   5.493   7.456   8.758  0.5224 -0.3372  0.2930
 2093SOL    HW1 9171   5.525   7.484   8.844 -2.8457  2.6633  0.8301
 2093SOL    HW2 9172   5.537   7.515   8.696  0.4206 -0.1970  0.3542
 2094SOL     OW 9173   2.110   2.349   0.590 -0.4880 -0.0052  0.3720
 2094SOL    HW1 9174   2.178   2.359   0.656  0.8438  2.0496 -1.1731
 2094SOL    HW2 9175   2.143   2.283   0.529 -0.0463  0.6410 -0.1105
 2095SOL     OW 9176   8.027   8.863   7.718  0.0188 -0.6529 -0.3026
 2095SOL    HW1 9177   8.038   8.817   7.634 -2.5804 -0.1664 -1.0175
 2095SOL    HW2 9178   8.035   8.956   7.696 -1.9005 -0.4475 -0.3415
 2096SOL     OW 9179   1.041   4.684   3.564 -0.1320 -0.2504 -0.4087
 2096SOL    HW1 9180   0.970   4.672   3.627 -0.0112  0.2764 -0.1651
 2096SOL    HW2 9181   1.095   4.605   3.574 -0.6533 -0.6313 -0.5675
 2097SOL     OW 9182   3.593   6.110   4.667 -0.4791  0.3615  0.5324
 2097SOL    HW1 9183   3.553   6.171   4.729  0.1664  1.9765 -0.5870
 2097SOL    HW2 9184   3.566   6.142   4.581  0.5302 -0.4642 -0.1184
 2098SOL     OW 9185   3.717   7.139   5.378  0.4302  0.1832  0.0465
 2098SOL    HW1 9186   3.622   7.130   5.378  0.1220  0.6764 -4.9024
 2098SOL    HW2 9187   3.750   7.051   5.395 -0.9337 -0.3330  0.1681
 2099SOL     OW 9188   2.845   4.632   3.764  0.4403 -0.3946 -0.0460
 2099SOL    HW1 9189   2.903   4.683   3.820 -0.1830 -0.0709  0.3043
 2099SOL    HW2 9190   2.760   4.676   3.769  0.3301 -0.4634 -1.1038
 2100SOL     OW 9191   5.706   5.813   0.112  0.0830  0.3015 -0.0413
 2100SOL    HW1 9192   5.672   5.900   0.136 -0.8721 -0.2742  0.8017
 2100SOL    HW2 9193   5.740   5.777   0.194 -0.2533 -0.4286 -0.2096
 2101SOL     OW 9194   6.716   4.839   0.425  0.8644  0.4947 -0.0270
 2101SOL    HW1 9195   6.784   4.859   0.489  0.4197  0.1158  0.5682
 2101SOL    HW2 9196   6.690   4.750   0.445 -0.1118  0.7867  0.0234
 2102SOL     OW 9197   5.400   8.622   5.891  0.0945 -0.3058 -0.1367
 2102SOL    HW1 9198   5.452   8.572   5.829  1.3910 -1.6590  1.9321
 2102SOL    HW2 9199   5.419   8.583   5.976 -3.3556 -0.0313  0.9218
 2103SOL     OW 9200   8.855   9.585   4.656 -0.8750  0.3084 -0.8237
 2103SOL    HW1 9201   8.868   9.523   4.728  3.5411  1.2208 -0.5516
 2103SOL    HW2 9202   8.796   9.651   4.692 -0.7658 -0.5376  1.0625
 2104SOL     OW 9203   0.492   9.088   8.094  0.2876  0.3894 -0.1803
 2104SOL    HW1 9204   0.527   9.176   8.083  0.9509  0.1764  0.2054
 2104SOL    HW2 9205   0.470   9.082   8.187  2.5196 -0.6578  0.3499
 2105SOL     OW 9206   3.595   9.382   1.866 -0.6360  0.1369  0.6135
 2105SOL    HW1 9207   3.517   9.406   1.816  0.1274  1.7135  0.0895
 2105SOL    HW2 9208   3.663   9.368   1.799 -0.2774 -0.4666  1.0935
 2106SOL     OW 9209   1.886   4.292   4.830  0.2156 -0.0784 -0.3933
 2106SOL    HW1 9210   1.846   4.288   4.743 -0.7347 -0.0433  0.0343
 2106SOL    HW2 9211   1.958   4.354   4.820 -1.4220  1.8967 -0.5661
 2107SOL     OW 9212   0.856   5.969   0.108 -0.2927  0.1153 -0.8426
 2107SOL    HW1 9213   0.899   5.903   0.054  0.8499 -1.0428  1.3678
 2107SOL    HW2 9214   0.780   5.997   0.056  0.3982 -1.3588 -2.7405
 2108SOL     OW 9215   8.142   8.594   2.193  0.7133 -0.2985 -0.1816
 2108SOL    HW1 9216   8.068   8.653   2.177 -0.1026 -1.3116 -0.2005
 2108SOL    HW2 9217   8.160   8.604   2.286 -0.2370 -0.9346  0.0834
 2109SOL     OW 9218   8.606   3.174   6.611  0.0223 -0.7220 -0.1497
 2109SOL    HW1 9219   8.688   3.218   6.632  1.5698 -2.8789 -1.2939
 2109SOL    HW2 9220   8.614   3.152   6.518 -3.2739  1.7687 -1.2227
 2110SOL     OW 9221   4.904   7.908   9.489  0.6346  0.5045  1.2583
 2110SOL    HW1 9222   4.930   7.990   9.532  0.8887  0.4556  1.2031
 2110SOL    HW2 9223   4.921   7.840   9.555 -0.4334  0.5878  1.6291
 2111SOL     OW 9224   1.908   7.259   1.735  0.8800 -0.1475 -0.0949
 2111SOL    HW1 9225   1.872   7.170   1.730  2.6410 -0.8795 -0.4079
 2111SOL    HW2 9226   1.846   7.313   1.686  0.3748 -1.4017 -0.8868
 2112SOL     OW 9227   9.464   7.494   1.475 -0.6144 -0.3967 -0.2995
 2112SOL    HW1 9228   9.484   7.402   1.496 -0.4828 -0.5136 -0.9082
 2112SOL    HW2 9229   9.383   7.490   1.425 -0.3577 -0.2203 -0.7293
 2113SOL     OW 9230   2.206   2.062   1.659  0.1633 -0.2720 -0.4815
 2113SOL    HW1 9231   2.165   2.072   1.573  0.4443  0.4436 -0.5371
 2113SOL    HW2 9232   2.138   2.024   1.714 -0.1455 -0.3568 -0.9186
 2114SOL     OW 9233   2.824   3.589   3.800  0.0684 -0.4057 -0.1616
 2114SOL    HW1 9234   2.852   3.500   3.779 -1.0437 -0.9996  0.7275
 2114SOL    HW2 9235   2.830   3.595   3.896  1.3369  0.9224 -0.2850
 2115SOL     OW 9236   2.493   4.422   8.034 -0.1744 -0.1287 -0.3040
 2115SOL    HW1 9237   2.498   4.347   8.094 -2.7629 -0.6243 -0.5790
 2115SOL    HW2 9238   2.533   4.392   7.953  1.7765 -0.0434  0.5790
 2116SOL     OW 9239   1.875   7.155   7.809 -0.1315 -0.4868 -0.1030
 2116SOL    HW1 9240   1.813   7.205   7.862 -0.9714 -2.2514  0.6519
 2116SOL    HW2 9241   1.953   7.211   7.804 -0.7666  0.5784  1.2914
 2117SOL     OW 9242   0.806   7.797   5.812 -0.4121 -0.2089 -0.5224
 2117SOL    HW1 9243   0.722   7.764   5.779 -0.5975 -0.7892  0.4889
 2117SOL    HW2 9244   0.797   7.892   5.810 -3.0526 -0.0865  4.1505
 2118SOL     OW 9245   2.223   9.057   2.720  0.5713 -0.5881 -0.0709
 2118SOL    HW1 9246   2.255   9.042   2.808  0.6433  0.1963  0.0465
 2118SOL    HW2 9247   2.226   8.971   2.677  1.5847 -0.7623  0.3402
 2119SOL     OW 9248   5.300   4.945   2.009  0.0502  0.7041  0.0398
 2119SOL    HW1 9249   5.218   4.895   2.017 -0.6517  1.7550 -0.4324
 2119SOL    HW2 9250   5.353   4.894   1.947 -1.1467  1.1432 -1.3888
 2120SOL     OW 9251   4.780   6.667   0.129 -0.2089  0.7643  0.0661
 2120SOL    HW1 9252   4.756   6.738   0.069 -0.9309 -0.2889 -0.9182
 2120SOL    HW2 9253   4.856   6.626   0.087 -0.1848  0.5592  0.3131
 2121SOL     OW 9254   6.418   2.644   1.775  0.1083 -0.4924 -0.4497
 2121SOL    HW1 9255   6.385   2.557   1.797 -2.6983  0.4417 -0.4578
 2121SOL    HW2 9256   6.415   2.692   1.858  1.2402 -0.2947 -0.5187
 2122SOL     OW 9257   3.466   9.500   9.610 -0.3541 -0.0971 -0.7860
 2122SOL    HW1 9258   3.459   9.551   9.529  0.6312  3.2669  1.0145
 2122SOL    HW2 9259   3.375   9.488   9.639 -0.6281  1.6053 -0.8178
 2123SOL     OW 9260   3.344   1.942   5.751 -0.1774  0.5495 -0.4769
 2123SOL    HW1 9261   3.367   2.020   5.801  0.2718  0.3945 -0.4338
 2123SOL    HW2 9262   3.250   1.949   5.737 -0.7640 -0.4558  2.2607
 2124SOL     OW 9263   1.790   3.431   7.030 -0.6932 -0.4531 -0.6526
 2124SOL    HW1 9264   1.787   3.439   6.935 -2.5280  1.8027 -0.4962
 2124SOL    HW2 9265   1.722   3.491   7.062  1.4230  0.7009  2.1687
 2125SOL     OW 9266   4.746   6.636   1.257 -0.3524 -0.8375  0.6993
 2125SOL    HW1 9267   4.789   6.696   1.318 -0.5988 -0.9602  0.9959
 2125SOL    HW2 9268   4.802   6.637   1.179 -1.8721  2.1795 -0.5494
 2126SOL     OW 9269   3.390   7.146   3.586  0.5353  0.0358  0.0646
 2126SOL    HW1 9270   3.472   7.189   3.560  0.5614 -0.2622 -0.3696
 2126SOL    HW2 9271   3.417   7.059   3.615  0.1292 -1.3204 -3.1592
 2127SOL     OW 9272   7.279   3.813   9.578 -0.8949  0.5779 -0.2962
 2127SOL    HW1 9273   7.244   3.734   9.538 -0.3180  1.3176 -2.4343
 2127SOL    HW2 9274   7.215   3.881   9.556 -0.0241  1.2098 -0.9385
 2128SOL     OW 9275   9.273   6.637   4.298  0.2998  0.3703  0.4943
 2128SOL    HW1 9276   9.280   6.732   4.297 -2.7771  0.6903 -0.9311
 2128SOL    HW2 9277   9.234   6.615   4.214 -1.6283 -1.8571  1.8394
 2129SOL     OW 9278   1.155   4.991   2.476 -0.3551 -0.4637  0.6000
 2129SOL    HW1 9279   1.076   5.027   2.517  0.8977  0.8016  2.0093
 2129SOL    HW2 9280   1.227   5.033   2.522  1.1843  0.3329 -2.3146
 2130SOL     OW 9281   4.083   2.278   6.025  0.8199  0.1083 -0.4408
 2130SOL    HW1 9282   4.105   2.365   5.994  0.2996  0.6962  0.7837
 2130SOL    HW2 9283   4.119   2.274   6.114  1.6225 -1.2546 -0.7908
 2131SOL     OW 9284   5.567   5.272   7.948 -0.3503 -0.6778  0.2977
 2131SOL    HW1 9285   5.487   5.283   8.001  0.5549  2.2332  1.2295
 2131SOL    HW2 9286   5.543   5.306   7.862 -0.4707 -1.0109  0.1980
 2132SOL     OW 9287   3.394   8.788   1.982 -0.2079  0.6938  0.4798
 2132SOL    HW1 9288   3.360   8.770   1.894  2.2019  0.1597 -0.4322
 2132SOL    HW2 9289   3.323   8.834   2.027 -1.3172  1.4666 -1.9183
 2133SOL     OW 9290   1.183   0.736   6.054 -0.4836 -0.9288  0.1487
 2133SOL    HW1 9291   1.259   0.679   6.066 -0.7939 -1.9853 -2.3411
 2133SOL    HW2 9292   1.219   0.816   6.016 -0.5640 -1.2685 -0.6467
 2134SOL     OW 9293   2.791   5.835   5.333  0.1360  0.0466  0.5960
 2134SOL    HW1 9294   2.705   5.841   5.373  0.1699 -2.1948  1.1170
 2134SOL    HW2 9295   2.850   5.816   5.406  0.9869  0.8641  0.1463
 2135SOL     OW 9296   4.580   6.207   9.496  0.0444 -1.1303  0.0903
 2135SOL    HW1 9297   4.597   6.301   9.494 -1.4831 -0.7974  0.9881
 2135SOL    HW2 9298   4.571   6.181   9.404 -0.0281 -0.2916 -0.1425
 2136SOL     OW 9299   3.101   3.569   4.584 -0.1021  0.0613  0.8049
 2136SOL    HW1 9300   3.149   3.583   4.666  0.4466  0.8689  0.3572
 2136SOL    HW2 9301   3.070   3.479   4.589 -2.0383  0.7435  2.9490
 2137SOL     OW 9302   8.586   5.853   1.222 -0.1208  0.2809 -0.6140
 2137SOL    HW1 9303   8.504   5.865   1.270  0.0901  1.0950 -0.4449
 2137SOL    HW2 9304   8.654   5.873   1.286  0.1932  0.2576 -0.9417
 2138SOL     OW 9305   4.002   4.014   0.813  0.4361 -0.0669 -0.1224
 2138SOL    HW1 9306   4.070   4.081   0.818  0.8731 -0.6202  2.1592
 2138SOL    HW2 9307   4.045   3.937   0.776  1.2004 -0.5325  1.6578
 2139SOL     OW 9308   6.012   4.141   0.319  0.3175  0.0587 -0.0610
 2139SOL    HW1 9309   5.966   4.184   0.390 -1.1591 -0.1235 -0.8545
 2139SOL    HW2 9310   5.942   4.102   0.266  1.2701  1.1170 -2.2114
 2140SOL     OW 9311   5.503   1.445   7.647  0.0253  0.3722  0.2829
 2140SOL    HW1 9312   5.521   1.406   7.732 -1.8122 -2.3393 -0.4323
 2140SOL    HW2 9313   5.445   1.519   7.665 -0.3652 -0.1877  1.4140
 2141SOL     OW 9314   4.694   5.543   5.616 -1.6480 -0.2354 -0.6740
 2141SOL    HW1 9315   4.625   5.565   5.679 -0.9034  1.1967 -0.3356
 2141SOL    HW2 9316   4.691   5.614   5.551 -1.5930 -1.0530 -1.6037
 2142SOL     OW 9317   0.571   0.514   1.544  0.0051  0.1937 -0.1746
 2142SOL    HW1 9318   0.615   0.476   1.467  1.5861 -0.5912  1.0589
 2142SOL    HW2 9319   0.538   0.438   1.592  0.5501  0.5511  0.7854
 2143SOL     OW 9320   9.342   2.085   0.347  0.2101  0.0834 -0.6693
 2143SOL    HW1 9321   9.405   2.153   0.368 -0.3323  0.6054 -0.6981
 2143SOL    HW2 9322   9.317   2.103   0.256 -2.4798  1.9769  0.3087
 2144SOL     OW 9323   2.068   8.387   3.670  0.5570 -0.2159 -0.0723
 2144SOL    HW1 9324   2.041   8.476   3.648 -0.6587 -0.5610 -0.0344
 2144SOL    HW2 9325   1.995   8.352   3.722 -0.1460 -2.0960 -2.1925
 2145SOL     OW 9326   1.878   4.953   7.601 -0.3062  0.2550 -0.5476
 2145SOL    HW1 9327   1.792   4.995   7.606  0.0983  1.1411 -0.9459
 2145SOL    HW2 9328   1.861   4.862   7.624 -1.4411  0.3122 -1.0864
 2146SOL     OW 9329   0.066   7.967   6.581  0.0222 -0.0858  0.1081
 2146SOL    HW1 9330   0.154   8.001   6.600  0.8541 -1.6305 -0.7902
 2146SOL    HW2 9331   0.075   7.925   6.495 -1.2583 -1.4349  0.6051
 2147SOL     OW 9332   7.497   8.868   0.715  0.0645 -0.2068  0.8349
 2147SOL    HW1 9333   7.419   8.815   0.698 -0.3038  0.4640  0.3761
 2147SOL    HW2 9334   7.562   8.835   0.653  0.3463 -1.1541  1.6072
 2148SOL     OW 9335   9.559   6.941   7.072  0.1117 -0.2752  0.1047
 2148SOL    HW1 9336   9.610   6.862   7.056 -1.1035 -1.0101 -0.2603
 2148SOL    HW2 9337   9.479   6.928   7.022  1.2932  2.7334 -2.9891
 2149SOL     OW 9338   1.538   2.259   0.998  0.0621  0.0190  0.2785
 2149SOL    HW1 9339   1.488   2.245   0.918 -0.8386 -0.7440  0.9379
 2149SOL    HW2 9340   1.514   2.347   1.026 -2.5147 -0.9612  1.5731
 2150SOL     OW 9341   6.496   6.845   8.830 -0.0181 -0.4193  0.0349
 2150SOL    HW1 9342   6.553   6.874   8.901 -0.1958 -0.9552  0.4037
 2150SOL    HW2 9343   6.551   6.850   8.752  0.4262 -0.5801  0.3303
 2151SOL     OW 9344   5.007   8.346   3.547 -0.1334 -0.6172  0.6928
 2151SOL    HW1 9345   5.016   8.361   3.642  0.2554 -1.0673  0.7282
 2151SOL    HW2 9346   5.088   8.303   3.522 -1.0199 -2.2817  0.5171
 2152SOL     OW 9347   5.774   6.656   3.135  0.4796 -0.1404  0.0969
 2152SOL    HW1 9348   5.792   6.746   3.160  0.1087 -0.4245  1.4780
 2152SOL    HW2 9349   5.776   6.656   3.039 -1.0063  1.6319  0.0283
 2153SOL     OW 9350   3.902   5.932   7.601 -0.2647  0.3054  0.5252
 2153SOL    HW1 9351   3.944   5.873   7.664 -0.5882  1.4922  1.9122
 2153SOL    HW2 9352   3.940   6.018   7.620  0.4346  0.5437 -1.6653
 2154SOL     OW 9353   0.012   3.446   2.132  0.4399 -0.0551 -0.2398
 2154SOL    HW1 9354   0.080   3.393   2.090  1.4852  0.6065  0.5725
 2154SOL    HW2 9355   0.052   3.533   2.143  0.0188 -0.0583  1.6216
 2155SOL     OW 9356   8.905   8.635   4.446  0.0205  0.0026 -0.0408
 2155SOL    HW1 9357   8.813   8.608   4.454  0.1667 -0.4132  0.3457
 2155SOL    HW2 9358   8.902   8.730   4.438 -0.4010  0.0976  0.9969
 2156SOL     OW 9359   2.560   0.815   4.565  0.0007  0.1520 -0.3569
 2156SOL    HW1 9360   2.563   0.771   4.480 -0.3353  0.8073 -0.7082
 2156SOL    HW2 9361   2.567   0.908   4.545  1.7261  0.2384  0.4491
 2157SOL     OW 9362   3.238   1.524   3.742 -0.3083  0.0535 -0.2651
 2157SOL    HW1 9363   3.201   1.503   3.827 -1.8042  2.1779 -0.3009
 2157SOL    HW2 9364   3.263   1.440   3.704 -0.1680 -0.9863  1.9902
 2158SOL     OW 9365   2.569   3.007   5.398 -0.2457  0.0501 -0.9408
 2158SOL    HW1 9366   2.521   2.987   5.317  0.0529 -0.6669 -0.9521
 2158SOL    HW2 9367   2.570   3.103   5.403 -1.5487  0.0775 -1.0059
 2159SOL     OW 9368   5.556   2.211   1.622 -0.5328  0.1350  0.0856
 2159SOL    HW1 9369   5.595   2.216   1.709 -2.8900 -1.7322  1.3606
 2159SOL    HW2 9370   5.531   2.302   1.603  2.9821  1.2018 -0.2676
 2160SOL     OW 9371   4.945   4.337   2.296 -0.4146  0.2428  0.4091
 2160SOL    HW1 9372   4.931   4.243   2.286  1.1276 -0.1020  1.1914
 2160SOL    HW2 9373   5.021   4.344   2.354 -1.2230  1.9836  1.3337
 2161SOL     OW 9374   0.751   5.585   4.525  0.0329  0.2650 -0.7528
 2161SOL    HW1 9375   0.657   5.594   4.544 -0.2655  0.4884 -2.1879
 2161SOL    HW2 9376   0.761   5.494   4.497  1.0030 -0.9592  3.0534
 2162SOL     OW 9377   0.585   4.981   6.051  0.0848  0.4256  0.3367
 2162SOL    HW1 9378   0.544   4.911   6.000  1.7523 -0.2861 -0.1010
 2162SOL    HW2 9379   0.523   5.000   6.122 -0.8563 -0.7578 -0.1469
 2163SOL     OW 9380   2.231   9.494   2.216  0.1725 -0.3767 -0.0103
 2163SOL    HW1 9381   2.281   9.417   2.243  0.5685 -0.1387 -0.0635
 2163SOL    HW2 9382   2.277   9.568   2.254  0.2224 -0.1056 -0.5780
 2164SOL     OW 9383   4.876   6.820   1.409 -0.6828  0.1744 -0.1139
 2164SOL    HW1 9384   4.851   6.869   1.331  3.3823 -0.6911 -2.2316
 2164SOL    HW2 9385   4.914   6.886   1.467  0.9912  0.2245 -1.1892
 2165SOL     OW 9386   8.798   9.338   7.138  0.2993  0.1872  1.1876
 2165SOL    HW1 9387   8.785   9.293   7.055 -2.2379  0.5965  1.2620
 2165SOL    HW2 9388   8.892   9.348   7.147  0.6281  0.7264 -1.9542
 2166SOL     OW 9389   1.527   6.487   1.945  0.3645  0.3861  0.2632
 2166SOL    HW1 9390   1.469   6.415   1.918 -0.4143  1.2723 -0.4841
 2166SOL    HW2 9391   1.477   6.536   2.010  0.9508  0.1925  0.8773
 2167SOL     OW 9392   3.717   6.224   1.989 -0.2521 -0.4943  0.3222
 2167SOL    HW1 9393   3.803   6.259   1.964  0.9202 -2.4768  1.3677
 2167SOL    HW2 9394   3.684   6.287   2.053  1.2058 -0.5382  1.1725
 2168SOL     OW 9395   0.599   6.724   0.778  0.3758  0.2329 -0.1436
 2168SOL    HW1 9396   0.526   6.786   0.779  1.1536  1.1876 -0.5037
 2168SOL    HW2 9397   0.638   6.730   0.865  0.2350 -0.0199 -0.0625
 2169SOL     OW 9398   7.453   1.461   3.202  0.2576  0.4479  0.3206
 2169SOL    HW1 9399   7.470   1.549   3.234 -0.3019  0.1865  1.3869
 2169SOL    HW2 9400   7.539   1.424   3.185  0.4835  1.4323 -0.8575
 2170SOL     OW 9401   3.870   0.277   4.210  0.1864  0.4480 -0.2778
 2170SOL    HW1 9402   3.840   0.254   4.298 -0.1596  0.6007 -0.3541
 2170SOL    HW2 9403   3.863   0.196   4.160  2.2393 -0.1738  0.3075
 2171SOL     OW 9404   7.546   9.495   1.010  0.4968  0.1827 -0.6687
 2171SOL    HW1 9405   7.473   9.544   0.971 -0.4182 -0.6704 -0.0816
 2171SOL    HW2 9406   7.572   9.547   1.086  0.9935  0.8572 -1.2844
 2172SOL     OW 9407   3.168   4.540   2.842 -0.3565  0.0448  0.3984
 2172SOL    HW1 9408   3.156   4.562   2.935 -2.3796  0.2497  0.1335
 2172SOL    HW2 9409   3.146   4.447   2.836 -0.5705  0.1170  0.0556
 2173SOL     OW 9410   6.115   0.264   6.305 -0.8000 -0.2509  0.2905
 2173SOL    HW1 9411   6.150   0.284   6.393 -3.8418 -1.4323  1.9201
 2173SOL    HW2 9412   6.111   0.169   6.302  0.1190 -0.2710 -1.5841
 2174SOL     OW 9413   9.569   7.290   0.496  0.2170  0.4092  0.2221
 2174SOL    HW1 9414   9.537   7.201   0.510  1.2935 -0.0308  0.0431
 2174SOL    HW2 9415   9.501   7.333   0.445  1.3459 -1.5298 -3.2274
 2175SOL     OW 9416   6.242   4.818   8.127  0.2845 -0.3596 -0.2325
 2175SOL    HW1 9417   6.319   4.791   8.078  0.0036 -1.0483 -0.3053
 2175SOL    HW2 9418   6.172   4.760   8.097 -0.7078  1.3762 -1.4409
 2176SOL     OW 9419   5.405   5.233   5.094  0.4477 -0.7417  0.3111
 2176SOL    HW1 9420   5.421   5.326   5.108 -3.5073  0.2869 -0.5816
 2176SOL    HW2 9421   5.429   5.191   5.177  1.2463  1.2202  1.1293
 2177SOL     OW 9422   4.397   3.945   4.897  0.8272  0.2975  0.0547
 2177SOL    HW1 9423   4.374   3.854   4.877 -0.2069  0.4121  0.6477
 2177SOL    HW2 9424   4.319   3.995   4.874  1.6277  1.1406 -0.9113
 2178SOL     OW 9425   9.250   1.491   6.656 -0.2374 -0.1603 -0.4090
 2178SOL    HW1 9426   9.235   1.562   6.593  0.4669  0.9452  0.6267
 2178SOL    HW2 9427   9.330   1.448   6.624  0.0367  0.3048 -0.3611
 2179SOL     OW 9428   7.240   6.007   0.798 -0.0018  0.5635 -0.3592
 2179SOL    HW1 9429   7.181   6.055   0.739 -0.5539  0.2450 -0.0685
 2179SOL    HW2 9430   7.324   6.006   0.751  0.7170  3.8156  0.5772
 2180SOL     OW 9431   5.498   9.228   4.142 -0.3010  0.0084  0.6284
 2180SOL    HW1 9432   5.591   9.250   4.137 -0.2974 -0.2568 -0.8311
 2180SOL    HW2 9433   5.490   9.143   4.098 -1.1841 -0.1152  0.9993
 2181SOL     OW 9434   5.287   5.778   1.200 -0.1412 -0.1371 -0.0900
 2181SOL    HW1 9435   5.355   5.747   1.140  0.3890 -1.7685  1.2751
 2181SOL    HW2 9436   5.208   5.784   1.146  0.8893  1.1262 -1.5422
 2182SOL     OW 9437   3.641   0.611   2.611  0.0739  0.1692  0.1651
 2182SOL    HW1 9438   3.622   0.685   2.670  0.2361  1.1857 -1.0131
 2182SOL    HW2 9439   3.566   0.608   2.553  0.4377 -0.0859 -0.2917
 2183SOL     OW 9440   4.540   2.035   3.299 -0.0885 -0.6054  0.3769
 2183SOL    HW1 9441   4.628   2.050   3.266 -0.4470 -0.5972 -0.6294
 2183SOL    HW2 9442   4.498   1.982   3.231 -0.8184 -0.7210  0.9030
 2184SOL     OW 9443   8.233   8.030   4.881 -0.1663  0.3391 -0.3365
 2184SOL    HW1 9444   8.250   7.950   4.931  2.3408 -0.3920 -2.1403
 2184SOL    HW2 9445   8.188   8.000   4.803 -1.0565  1.0117 -0.0938
 2185SOL     OW 9446   2.509   2.312   6.277  0.2016  0.0159 -0.3681
 2185SOL    HW1 9447   2.586   2.256   6.284  0.0871 -0.0035  1.1961
 2185SOL    HW2 9448   2.473   2.295   6.190  2.5246  0.7961 -1.5567
 2186SOL     OW 9449   8.542   9.213   6.368 -0.1797  0.7920  0.0064
 2186SOL    HW1 9450   8.614   9.225   6.307  0.6030 -1.2594  0.4205
 2186SOL    HW2 9451   8.584   9.208   6.454 -0.4409 -2.4600  0.0784
 2187SOL     OW 9452   5.780   9.620   3.943 -0.3496  0.0639  0.7283
 2187SOL    HW1 9453   5.822   9.574   4.015  0.2376 -1.0621 -0.3002
 2187SOL    HW2 9454   5.792   9.562   3.867  0.3071  1.8570 -0.5938
 2188SOL     OW 9455   6.095   0.927   9.269 -0.4095 -0.2971  0.8237
 2188SOL    HW1 9456   6.132   0.870   9.337 -0.3335 -0.3044  0.7759
 2188SOL    HW2 9457   6.086   1.012   9.312 -1.9937 -0.7140  1.3739
 2189SOL     OW 9458   2.798   2.744   9.040 -1.3767 -0.4380  0.0671
 2189SOL    HW1 9459   2.839   2.664   9.074 -0.7571 -0.1775 -0.0681
 2189SOL    HW2 9460   2.866   2.787   8.990 -2.0286 -0.3721 -0.7847
 2190SOL     OW 9461   0.235   4.952   4.406  0.1919 -0.4867 -0.0950
 2190SOL    HW1 9462   0.203   4.969   4.317 -2.4226  0.3686  0.9135
 2190SOL    HW2 9463   0.236   4.856   4.412 -2.2316 -0.5847 -0.2612
 2191SOL     OW 9464   3.252   9.100   4.827 -0.0163  0.4795 -0.0466
 2191SOL    HW1 9465   3.175   9.087   4.772 -0.4320  0.8690  0.4277
 2191SOL    HW2 9466   3.323   9.119   4.766 -0.7925  2.4635 -0.4064
 2192SOL     OW 9467   1.092   4.541   8.582 -0.3479 -0.2268  0.0981
 2192SOL    HW1 9468   1.169   4.596   8.595  0.4216 -1.5004  1.1873
 2192SOL    HW2 9469   1.021   4.602   8.563  1.1239  0.9112 -2.0971
 2193SOL     OW 9470   2.463   4.808   4.417  0.3740 -0.3972  0.5650
 2193SOL    HW1 9471   2.413   4.726   4.409  0.9543 -0.7818  0.8147
 2193SOL    HW2 9472   2.457   4.831   4.509 -1.4376  0.9188  0.1772
 2194SOL     OW 9473   6.130   0.960   5.762 -0.0019  0.2788 -0.8512
 2194SOL    HW1 9474   6.206   1.016   5.746 -0.3285  0.7441 -0.8017
 2194SOL    HW2 9475   6.144   0.927   5.851  1.1549 -1.2704 -1.5714
 2195SOL     OW 9476   2.173   7.255   8.329 -0.3105  0.0389 -0.0088
 2195SOL    HW1 9477   2.185   7.194   8.402 -0.6184  0.6951  0.5975
 2195SOL    HW2 9478   2.105   7.315   8.358  1.2970  1.8670  0.1990
 2196SOL     OW 9479   6.480   6.065   7.555 -0.6085 -0.1511  0.6692
 2196SOL    HW1 9480   6.497   6.033   7.467  2.3260 -1.3929  1.5801
 2196SOL    HW2 9481   6.391   6.100   7.551 -0.4747  0.1293 -2.8326
 2197SOL     OW 9482   6.445   1.923   8.253  0.0499  0.2079  0.0182
 2197SOL    HW1 9483   6.369   1.923   8.194 -0.2514 -1.3977  0.3746
 2197SOL    HW2 9484   6.432   1.847   8.309  2.0484 -0.2221 -0.0466
 2198SOL     OW 9485   9.520   8.931   8.862  0.3112 -0.5814  0.2181
 2198SOL    HW1 9486   9.457   8.942   8.934 -0.8422 -1.1827 -0.6652
 2198SOL    HW2 9487   9.515   8.838   8.840  1.4060 -0.6045  0.0057
 2199SOL     OW 9488   2.576   9.288   3.134  0.5176  0.4313 -0.4598
 2199SOL    HW1 9489   2.630   9.224   3.181  0.5004  0.9336  0.2699
 2199SOL    HW2 9490   2.492   9.287   3.181  0.4732  0.8857 -0.5216
 2200SOL     OW 9491   3.678   0.376   3.289 -0.3239  0.0731 -0.4490
 2200SOL    HW1 9492   3.671   0.414   3.376  0.7981 -0.2735 -0.1838
 2200SOL    HW2 9493   3.604   0.316   3.283 -0.9919  0.8585 -0.1327
 2201SOL     OW 9494   0.858   8.858   0.778 -0.2750 -0.0564 -0.2334
 2201SOL    HW1 9495   0.812   8.898   0.704  1.0673  2.3505  0.1370
 2201SOL    HW2 9496   0.870   8.930   0.840  0.7195 -1.4754  1.2946
 2202SOL     OW 9497   7.021   9.317   5.138 -0.0806  0.3653  0.3574
 2202SOL    HW1 9498   6.978   9.320   5.224 -1.7260  0.7328 -0.4415
 2202SOL    HW2 9499   7.105   9.360   5.153 -0.7106  1.2531  1.5947
 2203SOL     OW 9500   1.684   3.044   5.311 -0.0690  0.4767 -0.0379
 2203SOL    HW1 9501   1.594   3.074   5.326 -0.7468 -1.5125  0.1016
 2203SOL    HW2 9502   1.727   3.057   5.395 -1.1154 -1.4252  0.8412
 2204SOL     OW 9503   3.884   6.640   6.095 -0.4464  0.0019  0.5125
 2204SOL    HW1 9504   3.796   6.663   6.125 -0.7661  2.3130 -1.7703
 2204SOL    HW2 9505   3.870   6.569   6.032 -0.8774  1.1525 -0.7276
 2205SOL     OW 9506   7.795   1.584   9.328  0.4236  0.1109 -0.0515
 2205SOL    HW1 9507   7.764   1.496   9.350 -3.4420  1.6616  1.5303
 2205SOL    HW2 9508   7.862   1.603   9.393 -1.9903 -0.0819  2.6848
 2206SOL     OW 9509   7.239   0.826   0.306 -0.5846 -0.5476  0.0171
 2206SOL    HW1 9510   7.183   0.758   0.343  0.0074 -1.5154 -0.8058
 2206SOL    HW2 9511   7.219   0.824   0.212 -0.6688  0.5252  0.0027
 2207SOL     OW 9512   4.559   5.708   2.246 -0.5839 -0.0105  0.2421
 2207SOL    HW1 9513   4.556   5.647   2.172 -0.9452  0.6209 -0.2776
 2207SOL    HW2 9514   4.473   5.749   2.246 -1.0872 -0.9643  1.8556
 2208SOL     OW 9515   0.348   0.242   5.271  0.0990 -0.6658 -0.5324
 2208SOL    HW1 9516   0.432   0.263   5.231  0.3546  0.6962  0.6161
 2208SOL    HW2 9517   0.371   0.217   5.361 -0.6057 -1.7998 -0.6568
 2209SOL     OW 9518   2.498   4.443   2.349  0.6002  0.7794  0.6197
 2209SOL    HW1 9519   2.561   4.432   2.420 -0.5160  0.1639  1.5554
 2209SOL    HW2 9520   2.437   4.370   2.360  1.1604 -0.1815 -1.8254
 2210SOL     OW 9521   7.546   1.885   7.791 -0.5697  0.0328  0.2177
 2210SOL    HW1 9522   7.626   1.893   7.843 -1.2098 -1.4808  1.5014
 2210SOL    HW2 9523   7.515   1.797   7.808 -1.6550  0.0296 -1.5609
 2211SOL     OW 9524   2.365   8.587   8.699 -0.1556 -0.1613  0.1741
 2211SOL    HW1 9525   2.301   8.554   8.636 -1.6620 -1.4222  2.2392
 2211SOL    HW2 9526   2.342   8.680   8.708 -1.5541 -0.5213  0.6473
 2212SOL     OW 9527   8.996   9.440   4.005  0.2506 -0.0764  0.1161
 2212SOL    HW1 9528   9.002   9.349   3.977  0.9234 -0.3973  1.2398
 2212SOL    HW2 9529   9.036   9.490   3.934 -1.5781 -0.4642 -1.2704
 2213SOL     OW 9530   5.413   7.762   2.755 -0.0021 -0.8739 -0.0075
 2213SOL    HW1 9531   5.432   7.736   2.665  0.7795 -2.5759  0.6102
 2213SOL    HW2 9532   5.372   7.685   2.794  1.0717 -0.7163  1.5163
 2214SOL     OW 9533   4.295   9.270   5.032  0.4775 -0.1257  0.5278
 2214SOL    HW1 9534   4.351   9.260   4.956 -2.3959  0.5564 -1.8599
 2214SOL    HW2 9535   4.279   9.365   5.039 -0.4608 -0.3046  1.0546
 2215SOL     OW 9536   7.906   6.832   3.480 -0.1973 -0.5880  0.2491
 2215SOL    HW1 9537   7.882   6.879   3.561 -0.3006 -0.8481  0.3721
 2215SOL    HW2 9538   7.895   6.897   3.411  0.2001 -0.2692  0.4816
 2216SOL     OW 9539   1.125   9.472   9.165  0.4872  0.4090  0.1717
 2216SOL    HW1 9540   1.035   9.472   9.133  0.3581  0.5029  0.5258
 2216SOL    HW2 9541   1.148   9.565   9.172  0.6315  0.3840  0.0247
 2217SOL     OW 9542   9.183   4.931   9.491  0.8097  0.2923 -0.4302
 2217SOL    HW1 9543   9.255   4.993   9.499 -1.4929  3.0162  1.1506
 2217SOL    HW2 9544   9.177   4.912   9.397  1.2456  3.0450 -1.1000
 2218SOL     OW 9545   6.142   7.888   3.346 -0.0259  0.8051 -0.1417
 2218SOL    HW1 9546   6.227   7.931   3.333  1.3083 -1.5225  0.3787
 2218SOL    HW2 9547   6.149   7.845   3.431 -1.1797 -0.6699 -0.7516
 2219SOL     OW 9548   6.580   3.699   6.563  0.1633  0.0506  0.4103
 2219SOL    HW1 9549   6.492   3.732   6.584  0.5194  0.4264  1.3887
 2219SOL    HW2 9550   6.638   3.773   6.583  0.5750  0.3831 -1.8136
 2220SOL     OW 9551   9.105   1.148   6.159  0.3716 -0.2442  0.1764
 2220SOL    HW1 9552   9.038   1.132   6.225 -1.1935 -1.7133 -1.6535
 2220SOL    HW2 9553   9.134   1.061   6.132  2.3717  0.3456  0.2330
 2221SOL     OW 9554   9.527   8.944   9.634  0.2215  0.2666 -0.8004
 2221SOL    HW1 9555   9.582   8.906   9.702 -0.0472  1.0263 -0.1431
 2221SOL    HW2 9556   9.588   8.972   9.566  0.5061 -0.3410 -0.8001
 2222SOL     OW 9557   8.521   8.452   0.911  0.3348  0.0903 -0.0019
 2222SOL    HW1 9558   8.563   8.493   0.836 -0.5018 -2.3543 -1.9290
 2222SOL    HW2 9559   8.433   8.489   0.912  0.0507 -0.5363 -0.8316
 2223SOL     OW 9560   8.767   6.100   6.017 -0.0721  0.6569 -0.1809
 2223SOL    HW1 9561   8.725   6.150   6.087  0.1927 -1.6734  1.7736
 2223SOL    HW2 9562   8.694   6.064   5.967 -0.3123  0.4695  0.2994
 2224SOL     OW 9563   1.493   8.163   4.684 -0.3086  0.0868 -0.0392
 2224SOL    HW1 9564   1.452   8.236   4.636 -0.2479  0.0001 -0.2260
 2224SOL    HW2 9565   1.582   8.194   4.703 -0.4775  0.3002  0.4224
 2225SOL     OW 9566   7.353   9.148   3.838  0.4728 -0.3401  0.3476
 2225SOL    HW1 9567   7.265   9.168   3.871 -0.4793 -0.1307 -2.0772
 2225SOL    HW2 9568   7.352   9.179   3.748  3.6771  1.2723  0.7412
 2226SOL     OW 9569   7.793   4.287   7.318  0.4121 -0.3782  0.2099
 2226SOL    HW1 9570   7.799   4.229   7.242 -0.5710 -1.1965  0.7388
 2226SOL    HW2 9571   7.832   4.237   7.389 -2.3709 -1.3638  1.1795
 2227SOL     OW 9572   8.952   6.929   9.430  0.0954  0.6930 -0.0996
 2227SOL    HW1 9573   9.028   6.883   9.465  0.0805  0.0319 -0.8982
 2227SOL    HW2 9574   8.884   6.919   9.497 -0.3612 -1.7075 -0.7997
 2228SOL     OW 9575   4.514   6.641   6.061 -0.3462 -0.0146 -0.1185
 2228SOL    HW1 9576   4.594   6.670   6.017 -0.4934  3.2472  1.4960
 2228SOL    HW2 9577   4.526   6.665   6.153 -1.2256 -4.0238  1.2778
 2229SOL     OW 9578   1.861   8.698   6.098  0.0560 -0.0946 -0.1368
 2229SOL    HW1 9579   1.840   8.708   6.190  2.1154  2.5460  0.1744
 2229SOL    HW2 9580   1.776   8.695   6.054 -1.0043  1.9181  1.5985
 2230SOL     OW 9581   5.485   3.001   7.228  0.4937 -0.0842  0.2295
 2230SOL    HW1 9582   5.456   3.055   7.302  2.3281  0.1350  0.8535
 2230SOL    HW2 9583   5.450   2.914   7.246  0.7893  0.0050  1.3101
 2231SOL     OW 9584   8.326   5.500   5.812  0.3322  0.4008  0.2907
 2231SOL    HW1 9585   8.417   5.525   5.826  0.6257 -1.1091  1.3024
 2231SOL    HW2 9586   8.324   5.406   5.828 -0.9704 -0.0470 -2.0116
 2232SOL     OW 9587   8.770   5.392   7.296  0.2480 -0.4056 -0.1095
 2232SOL    HW1 9588   8.783   5.360   7.206 -1.4214  0.6483 -0.7894
 2232SOL    HW2 9589   8.844   5.357   7.345  1.5731 -0.4771 -2.0338
 2233SOL     OW 9590   0.857   6.274   1.607 -0.0234 -0.5168  0.5538
 2233SOL    HW1 9591   0.949   6.280   1.580 -0.1501  0.7599  0.3372
 2233SOL    HW2 9592   0.840   6.180   1.616  0.5903 -0.9213 -1.9023
 2234SOL     OW 9593   3.316   1.002   7.313  0.0868 -0.2356  0.1128
 2234SOL    HW1 9594   3.302   1.079   7.368 -1.0818 -0.3325 -0.0082
 2234SOL    HW2 9595   3.234   0.952   7.322 -0.1921 -0.1960 -1.7955
 2235SOL     OW 9596   3.456   0.208   1.190 -0.3168 -0.0653 -0.2794
 2235SOL    HW1 9597   3.434   0.118   1.165  0.7723 -0.6603  0.7508
 2235SOL    HW2 9598   3.467   0.204   1.285 -2.1366  1.6085  0.0702
 2236SOL     OW 9599   4.431   8.026   5.023  0.5991 -0.1110 -0.0281
 2236SOL    HW1 9600   4.496   7.956   5.024  0.9089  0.1304  2.2677
 2236SOL    HW2 9601   4.348   7.982   5.043  0.4090 -0.1055 -0.7704
 2237SOL     OW 9602   5.889   3.071   2.354 -0.4257 -0.3018 -0.5946
 2237SOL    HW1 9603   5.950   3.012   2.310  0.0034  0.5369 -1.1339
 2237SOL    HW2 9604   5.805   3.026   2.349 -0.3164 -0.3797 -1.9683
 2238SOL     OW 9605   3.863   8.810   8.236  0.2823  0.6936 -1.0043
 2238SOL    HW1 9606   3.874   8.756   8.314  3.4221  3.2384  0.5892
 2238SOL    HW2 9607   3.885   8.753   8.163  2.0062 -0.6096  0.4432
 2239SOL     OW 9608   5.720   1.665   8.592 -0.1194 -0.4486 -0.1698
 2239SOL    HW1 9609   5.655   1.729   8.622 -0.0495 -1.1658  1.6734
 2239SOL    HW2 9610   5.784   1.661   8.663  1.5488 -0.3400 -1.6073
 2240SOL     OW 9611   6.064   6.015   6.496  0.3718  0.3326  0.1588
 2240SOL    HW1 9612   6.088   6.106   6.510  0.8704  0.2063  0.1556
 2240SOL    HW2 9613   6.145   5.973   6.467 -0.0300  0.0498 -0.5863
 2241SOL     OW 9614   7.422   5.677   6.572 -0.3888  0.1140  0.0892
 2241SOL    HW1 9615   7.382   5.591   6.581 -0.2814  0.0212 -0.3224
 2241SOL    HW2 9616   7.357   5.737   6.611  0.0930 -0.2707  1.5501
 2242SOL     OW 9617   5.926   4.208   4.362  0.3682  0.2912 -0.0584
 2242SOL    HW1 9618   5.971   4.231   4.280 -2.1129 -0.8291 -1.8981
 2242SOL    HW2 9619   5.959   4.121   4.384  1.6617  0.9447  0.6347
 2243SOL     OW 9620   8.694   3.747   7.264 -0.0721  0.4292 -0.0320
 2243SOL    HW1 9621   8.598   3.741   7.271 -0.1107 -0.8059 -1.1101
 2243SOL    HW2 9622   8.714   3.700   7.183  1.3090  2.2203 -0.7862
 2244SOL     OW 9623   3.265   0.103   9.228 -0.4277 -0.1530 -0.5131
 2244SOL    HW1 9624   3.176   0.114   9.261 -0.6293 -1.3531 -0.5988
 2244SOL    HW2 9625   3.267   0.155   9.148 -1.2233 -0.5387 -0.7935
 2245SOL     OW 9626   6.195   0.942   2.817  0.5282  0.2054 -0.3284
 2245SOL    HW1 9627   6.120   0.948   2.877 -1.0195 -0.1682 -2.1187
 2245SOL    HW2 9628   6.228   0.853   2.829 -0.9367 -0.5029 -1.2891
 2246SOL     OW 9629   3.538   7.499   7.302  1.0969 -0.1312  0.3370
 2246SOL    HW1 9630   3.473   7.559   7.266 -0.9713 -1.3776  1.8017
 2246SOL    HW2 9631   3.571   7.543   7.381  2.3278  0.6272 -0.5579
 2247SOL     OW 9632   8.817   3.535   9.356  0.2480  0.4119  0.8504
 2247SOL    HW1 9633   8.753   3.493   9.299  0.0990  1.1835  0.4347
 2247SOL    HW2 9634   8.900   3.493   9.334  0.0096 -0.0917  0.8859
 2248SOL     OW 9635   8.880   5.170   5.837  0.1847  0.0762  0.2664
 2248SOL    HW1 9636   8.889   5.201   5.747  1.3933  0.8616  0.6225
 2248SOL    HW2 9637   8.957   5.115   5.850 -0.5570 -0.9240  0.4901
 2249SOL     OW 9638   4.012   2.958   0.533 -0.2634 -0.2124 -0.3174
 2249SOL    HW1 9639   4.083   3.012   0.497  0.7839 -0.0955  1.7588
 2249SOL    HW2 9640   4.015   2.877   0.482  0.7847  0.1369 -0.8445
 2250SOL     OW 9641   6.467   1.435   2.253 -0.0265 -0.4726  0.2638
 2250SOL    HW1 9642   6.384   1.390   2.236 -1.0475  1.5481 -0.4412
 2250SOL    HW2 9643   6.445   1.504   2.315  0.8652  0.7873 -0.7593
 2251SOL     OW 9644   5.575   0.999   8.706 -0.2595 -0.1177 -0.2938
 2251SOL    HW1 9645   5.490   1.018   8.745 -0.7698 -0.2740 -1.2818
 2251SOL    HW2 9646   5.554   0.962   8.620  0.8103  0.7008 -0.9375
 2252SOL     OW 9647   0.984   5.841   7.929  0.2904 -0.1690  0.4392
 2252SOL    HW1 9648   0.953   5.752   7.913  1.4416 -1.0601  2.7266
 2252SOL    HW2 9649   1.069   5.845   7.885 -0.5760  0.4816 -1.2597
 2253SOL     OW 9650   1.600   9.204   8.708 -0.1411  0.2958 -0.0922
 2253SOL    HW1 9651   1.536   9.135   8.692 -0.2128  0.3556 -0.0597
 2253SOL    HW2 9652   1.563   9.256   8.779  0.0703  0.1709  0.1095
 2254SOL     OW 9653   2.944   1.724   7.909 -0.3665 -0.1693  0.0964
 2254SOL    HW1 9654   2.950   1.629   7.909  0.0929 -0.1792 -1.6191
 2254SOL    HW2 9655   2.974   1.751   7.996 -0.8592 -1.5940  0.7231
 2255SOL     OW 9656   5.766   5.694   9.253  0.3384  0.3048 -0.3370
 2255SOL    HW1 9657   5.794   5.739   9.333 -1.2564  0.9997 -0.1211
 2255SOL    HW2 9658   5.729   5.611   9.283  0.9002 -0.0055 -0.4890
 2256SOL     OW 9659   6.228   8.656   1.712 -0.0800 -1.0439 -0.0640
 2256SOL    HW1 9660   6.134   8.646   1.725  0.0861 -3.5033 -0.3327
 2256SOL    HW2 9661   6.238   8.659   1.617  0.1599 -1.2059 -0.0431
 2257SOL     OW 9662   0.633   9.365   7.766 -0.2870 -0.2228 -0.2399
 2257SOL    HW1 9663   0.670   9.284   7.800 -0.4734 -0.3448 -0.3313
 2257SOL    HW2 9664   0.662   9.432   7.828  2.5459  0.1725 -1.7935
 2258SOL     OW 9665   5.348   0.137   1.230 -0.0927 -0.8851 -0.2512
 2258SOL    HW1 9666   5.384   0.149   1.143 -0.8942  0.0012 -0.4727
 2258SOL    HW2 9667   5.263   0.095   1.216 -0.7514  0.3277  0.0098
 2259SOL     OW 9668   0.658   7.559   0.751  0.0777  0.6089 -0.2138
 2259SOL    HW1 9669   0.663   7.557   0.846 -0.2794  0.8611 -0.1865
 2259SOL    HW2 9670   0.650   7.652   0.730  0.2484  0.5597 -0.4920
 2260SOL     OW 9671   2.469   5.401   2.578  0.2125 -0.2380  0.1991
 2260SOL    HW1 9672   2.402   5.363   2.635 -0.1837  0.2827  0.0816
 2260SOL    HW2 9673   2.538   5.334   2.575  1.3387  0.6683  3.1731
 2261SOL     OW 9674   7.868   0.032   2.704  0.7431 -0.0174  0.5065
 2261SOL    HW1 9675   7.804  -0.033   2.731 -0.5834  1.2129  0.4483
 2261SOL    HW2 9676   7.900  -0.000   2.619  0.8196 -1.0511  0.9110
 2262SOL     OW 9677   5.528   6.659   3.245  0.1403 -0.0270  0.1769
 2262SOL    HW1 9678   5.529   6.744   3.290 -0.9834  0.6926 -1.0725
 2262SOL    HW2 9679   5.617   6.649   3.212  0.4464  0.3712  0.8396
 2263SOL     OW 9680   5.944   3.400   4.677 -0.5068 -0.0596  0.5422
 2263SOL    HW1 9681   5.923   3.326   4.733 -2.1116  0.9860  1.4028
 2263SOL    HW2 9682   6.011   3.448   4.725  2.0179 -1.8932 -0.9083
 2264SOL     OW 9683   8.500   4.407   8.056 -0.1994  0.1467  0.2082
 2264SOL    HW1 9684   8.547   4.470   8.111 -0.7743 -0.0646  0.9551
 2264SOL    HW2 9685   8.408   4.427   8.070 -0.4619 -1.7707  1.6001
 2265SOL     OW 9686   6.660   2.834   3.298  0.1295  0.5190 -0.1981
 2265SOL    HW1 9687   6.626   2.914   3.258  1.6058  0.7173 -1.1192
 2265SOL    HW2 9688   6.632   2.764   3.238 -0.0641  0.4927 -0.0770
 2266SOL     OW 9689   8.882   4.051   9.500  0.2350 -0.6128 -0.0350
 2266SOL    HW1 9690   8.888   4.129   9.556  2.0215 -0.9286  0.2926
 2266SOL    HW2 9691   8.820   4.076   9.431 -0.7040  0.3916  1.1194
 2267SOL     OW 9692   7.892   6.149   5.872  0.4312 -0.6069  0.5566
 2267SOL    HW1 9693   7.840   6.144   5.951 -0.2448  0.8359  0.2438
 2267SOL    HW2 9694   7.889   6.242   5.847  1.9095 -0.7492 -0.2983
 2268SOL     OW 9695   1.434   1.191   9.344 -0.6127  0.0737 -0.0409
 2268SOL    HW1 9696   1.403   1.279   9.322 -0.2197 -0.0633 -1.2404
 2268SOL    HW2 9697   1.517   1.206   9.391 -1.0520  0.3578  0.6582
 2269SOL     OW 9698   0.342   4.433   3.711 -0.1288 -0.1042 -0.6552
 2269SOL    HW1 9699   0.258   4.401   3.744 -0.4046 -2.3312 -3.1782
 2269SOL    HW2 9700   0.400   4.429   3.787 -1.8376 -0.3573  0.6922
 2270SOL     OW 9701   4.020   3.053   6.331 -0.2876  0.0163 -0.1982
 2270SOL    HW1 9702   4.062   3.093   6.407 -0.7679  1.2060 -0.5270
 2270SOL    HW2 9703   3.948   3.002   6.368  1.1471 -1.7249  0.3344
 2271SOL     OW 9704   8.479   5.842   7.107  0.4784 -0.2139 -0.4159
 2271SOL    HW1 9705   8.484   5.758   7.153 -1.9279  0.4780  1.3708
 2271SOL    HW2 9706   8.540   5.834   7.034 -0.3186 -3.8428 -0.8612
 2272SOL     OW 9707   4.559   5.311   8.556 -0.2717  0.0258 -0.1207
 2272SOL    HW1 9708   4.596   5.392   8.590 -0.6513  0.1115  0.0903
 2272SOL    HW2 9709   4.634   5.265   8.517  0.3168 -0.3729  1.3898
 2273SOL     OW 9710   6.674   3.595   6.868  0.5071 -0.4688  0.0804
 2273SOL    HW1 9711   6.651   3.679   6.906 -1.5086 -0.6660 -0.5977
 2273SOL    HW2 9712   6.668   3.609   6.773  2.0222 -0.9099 -0.1187
 2274SOL     OW 9713   8.169   5.127   4.138 -0.0437  0.3272 -0.4479
 2274SOL    HW1 9714   8.240   5.065   4.148 -1.0746 -0.7057  0.7561
 2274SOL    HW2 9715   8.099   5.078   4.096 -1.0606  0.4788  0.9882
 2275SOL     OW 9716   3.705   3.144   8.688 -0.2642 -0.0473  0.1299
 2275SOL    HW1 9717   3.689   3.051   8.706 -0.5036  0.0132  0.2426
 2275SOL    HW2 9718   3.672   3.157   8.599  1.7162 -0.5424 -0.7297
 2276SOL     OW 9719   7.439   3.525   3.619 -0.1015  0.5056 -0.4541
 2276SOL    HW1 9720   7.366   3.549   3.562 -0.6271 -0.3194 -0.1515
 2276SOL    HW2 9721   7.517   3.555   3.572 -0.5146 -0.1616 -1.6204
 2277SOL     OW 9722   8.129   7.573   4.514 -0.1046 -0.3401  0.2728
 2277SOL    HW1 9723   8.139   7.604   4.604  0.7017 -1.2653  0.5214
 2277SOL    HW2 9724   8.089   7.487   4.522  1.8212 -1.3383 -0.0723
 2278SOL     OW 9725   4.060   8.356   8.058 -0.3938 -0.2704 -0.1804
 2278SOL    HW1 9726   4.087   8.447   8.070  0.6590 -0.6537  0.5869
 2278SOL    HW2 9727   3.970   8.361   8.027 -0.1889  1.0417 -0.6409
 2279SOL     OW 9728   6.649   6.156   1.413  0.1383  0.0488  0.3520
 2279SOL    HW1 9729   6.625   6.237   1.369 -1.1721 -1.4084 -1.7849
 2279SOL    HW2 9730   6.598   6.088   1.369  0.9243 -1.9212  2.2749
 2280SOL     OW 9731   0.792   0.614   4.239  0.9749  0.7518  0.0389
 2280SOL    HW1 9732   0.826   0.525   4.252  0.7670  0.1587 -2.7090
 2280SOL    HW2 9733   0.820   0.637   4.150 -1.1165  2.4405 -0.2619
 2281SOL     OW 9734   3.071   4.544   1.092  0.0357  0.2428  0.4060
 2281SOL    HW1 9735   3.133   4.474   1.074  0.3329  0.8861 -1.2915
 2281SOL    HW2 9736   3.115   4.600   1.156  0.3227 -0.4139  0.7889
 2282SOL     OW 9737   4.379   2.851   4.324  0.0853  0.0350  0.3743
 2282SOL    HW1 9738   4.341   2.776   4.279 -0.5307  0.5717 -0.0057
 2282SOL    HW2 9739   4.355   2.838   4.416  1.7837 -1.3340  0.6844
 2283SOL     OW 9740   6.678   4.012   2.215 -0.6113 -0.1336 -0.0399
 2283SOL    HW1 9741   6.691   3.970   2.130 -2.3058 -1.1246  0.1515
 2283SOL    HW2 9742   6.605   4.072   2.202 -1.7927 -1.2788  0.9852
 2284SOL     OW 9743   5.954   9.220   0.106 -0.2579  0.1245  0.0849
 2284SOL    HW1 9744   5.971   9.151   0.041  0.3686 -1.1538  1.5422
 2284SOL    HW2 9745   5.860   9.233   0.103 -0.2572 -0.0378 -0.9595
 2285SOL     OW 9746   3.137   7.362   5.546  0.7870 -0.3061  0.8714
 2285SOL    HW1 9747   3.095   7.446   5.565 -0.4633 -0.6362 -0.3322
 2285SOL    HW2 9748   3.175   7.374   5.458  0.3963 -1.0701  0.5951
 2286SOL     OW 9749   4.239   0.815   8.197 -0.4710  0.2857 -0.0399
 2286SOL    HW1 9750   4.265   0.846   8.110  1.0939 -0.0516  0.2622
 2286SOL    HW2 9751   4.272   0.882   8.257 -1.8515  0.6913  0.2966
 2287SOL     OW 9752   2.095   4.483   5.789  0.1211  0.3263 -0.1306
 2287SOL    HW1 9753   2.057   4.527   5.865  0.4091 -0.6854  0.6209
 2287SOL    HW2 9754   2.052   4.398   5.787  0.2555  0.2708 -1.0023
 2288SOL     OW 9755   0.580   6.241   3.886 -0.7041 -0.3267  0.6847
 2288SOL    HW1 9756   0.670   6.270   3.874 -0.2679 -2.0518 -0.8212
 2288SOL    HW2 9757   0.535   6.268   3.806 -1.1260 -0.7904  0.7543
 2289SOL     OW 9758   4.139   8.581   2.527 -0.0932  0.1674 -0.1233
 2289SOL    HW1 9759   4.135   8.534   2.611 -0.1258  2.9524  1.5566
 2289SOL    HW2 9760   4.202   8.532   2.475 -1.6899 -2.9328  0.6202
 2290SOL     OW 9761   4.672   2.850   5.457  0.0266 -0.5253 -0.0132
 2290SOL    HW1 9762   4.748   2.802   5.491  1.6945  1.5295 -0.6278
 2290SOL    HW2 9763   4.614   2.860   5.532  0.5560 -1.7655  0.5879
 2291SOL     OW 9764   5.998   3.149   4.424  0.2538 -0.0344 -0.1198
 2291SOL    HW1 9765   6.067   3.214   4.419  0.2594 -0.1168 -1.2457
 2291SOL    HW2 9766   6.044   3.066   4.439  0.3437  0.0100 -0.1496
 2292SOL     OW 9767   9.479   2.533   3.323  0.1561  0.2502  0.5531
 2292SOL    HW1 9768   9.434   2.526   3.407  0.8561 -0.2863  0.8920
 2292SOL    HW2 9769   9.409   2.538   3.258 -0.3995 -1.1538  1.0147
 2293SOL     OW 9770   5.255   3.669   3.531 -0.5238  0.1710  0.3742
 2293SOL    HW1 9771   5.239   3.754   3.489 -0.6252 -0.1888 -0.3381
 2293SOL    HW2 9772   5.344   3.677   3.567 -1.5768  1.5990  2.9023
 2294SOL     OW 9773   3.759   1.596   1.811  0.2700 -0.4687  0.0874
 2294SOL    HW1 9774   3.791   1.584   1.721  1.3456  0.0624  0.3874
 2294SOL    HW2 9775   3.812   1.537   1.864  0.8135  0.4613  0.6028
 2295SOL     OW 9776   5.668   7.003   6.902  0.5465  0.0938 -0.3794
 2295SOL    HW1 9777   5.646   6.958   6.820 -0.3566  1.1613 -0.7493
 2295SOL    HW2 9778   5.681   7.094   6.876 -0.1837  0.5275  0.7319
 2296SOL     OW 9779   2.820   2.884   1.102  0.1160  0.7874  0.1199
 2296SOL    HW1 9780   2.891   2.820   1.093  0.5965  1.3080  0.1238
 2296SOL    HW2 9781   2.747   2.846   1.053  0.0426 -0.2511  0.9860
 2297SOL     OW 9782   6.738   5.261   6.995 -0.0513  0.6026  0.0290
 2297SOL    HW1 9783   6.670   5.194   7.002  1.3830 -0.8566  0.6351
 2297SOL    HW2 9784   6.695   5.341   7.025 -1.2126 -0.4803  1.4431
 2298SOL     OW 9785   4.678   0.811   6.714 -0.6120 -0.1046 -0.2777
 2298SOL    HW1 9786   4.656   0.804   6.807  1.0940 -1.9114  0.0531
 2298SOL    HW2 9787   4.608   0.765   6.669 -0.2506 -1.2829  0.3282
 2299SOL     OW 9788   7.736   7.943   1.003  0.6807  0.2882  0.5858
 2299SOL    HW1 9789   7.772   8.031   1.009  0.1576  0.5117  0.4967
 2299SOL    HW2 9790   7.745   7.920   0.910 -0.3595  0.7606  0.3564
 2300SOL     OW 9791   6.006   6.878   0.862 -0.1010 -0.2869  0.1558
 2300SOL    HW1 9792   6.082   6.928   0.830 -1.7900  2.2579 -0.1891
 2300SOL    HW2 9793   5.930   6.929   0.833 -1.9736 -2.5417  0.7838
 2301SOL     OW 9794   6.730   4.097   8.007  0.2952 -0.3796 -0.0730
 2301SOL    HW1 9795   6.688   4.114   8.092  1.6249 -0.4086  0.6119
 2301SOL    HW2 9796   6.662   4.053   7.955 -1.7820  2.8412 -0.3391
 2302SOL     OW 9797   2.421   2.537   2.635  0.5932  0.4777 -0.2775
 2302SOL    HW1 9798   2.506   2.510   2.601  0.7549 -0.0675  0.5089
 2302SOL    HW2 9799   2.427   2.520   2.729 -0.4451  0.2615 -0.2387
 2303SOL     OW 9800   8.522   2.399   4.986  0.0988 -0.0470 -0.3625
 2303SOL    HW1 9801   8.500   2.470   4.925  1.4690  1.2431  0.5709
 2303SOL    HW2 9802   8.500   2.434   5.072  2.7934  0.1595  0.3262
 2304SOL     OW 9803   0.218   3.869   4.829  0.2768  0.3459 -0.7273
 2304SOL    HW1 9804   0.285   3.801   4.826 -0.4205 -0.4698  0.7702
 2304SOL    HW2 9805   0.138   3.822   4.855 -0.5242  1.5315 -0.9932
 2305SOL     OW 9806   5.019   6.818   6.364 -0.5330  0.2426 -0.2255
 2305SOL    HW1 9807   5.068   6.893   6.396 -0.8111  0.1350  0.4679
 2305SOL    HW2 9808   5.041   6.748   6.426 -1.2515  0.0908 -0.1410
 2306SOL     OW 9809   2.567   0.019   1.354 -0.0557  0.9892  0.4215
 2306SOL    HW1 9810   2.603   0.057   1.274  1.5063 -1.8495 -0.3985
 2306SOL    HW2 9811   2.485  -0.022   1.326  1.1300 -1.1599 -0.1891
 2307SOL     OW 9812   6.931   1.252   5.285  0.0828 -0.5471  0.1528
 2307SOL    HW1 9813   6.887   1.205   5.356 -0.4502 -0.2914 -0.0068
 2307SOL    HW2 9814   6.867   1.317   5.256  0.0851 -1.0316 -0.9554
 2308SOL     OW 9815   4.617   1.246   8.755  0.0307  0.1298  0.0209
 2308SOL    HW1 9816   4.649   1.330   8.786  0.7210  0.9416 -2.6249
 2308SOL    HW2 9817   4.529   1.264   8.722  0.2285 -0.1211 -0.6731
 2309SOL     OW 9818   3.205   2.747   0.911 -0.3735 -0.0282 -0.2354
 2309SOL    HW1 9819   3.197   2.837   0.879  0.3730 -0.0293 -0.4350
 2309SOL    HW2 9820   3.272   2.751   0.979  0.5178 -0.6383 -1.0604
 2310SOL     OW 9821   3.368   2.305   7.985  0.4245 -0.6930  0.4719
 2310SOL    HW1 9822   3.410   2.379   7.941  1.0596  0.1002  2.2690
 2310SOL    HW2 9823   3.439   2.262   8.032 -0.5188 -0.0264  2.6432
 2311SOL     OW 9824   0.810   8.580   4.381 -0.5248  0.1261  0.4804
 2311SOL    HW1 9825   0.762   8.601   4.462 -1.3950  2.0675 -0.4783
 2311SOL    HW2 9826   0.885   8.639   4.382  0.2920 -0.8884  0.5597
 2312SOL     OW 9827   4.462   3.796   1.973 -0.2254 -0.6093 -0.0656
 2312SOL    HW1 9828   4.441   3.871   1.918 -1.0963 -0.6992  0.1159
 2312SOL    HW2 9829   4.391   3.734   1.956 -0.5633 -0.6041  1.2091
 2313SOL     OW 9830   9.607   7.538   8.466 -0.1490  0.0853  0.0706
 2313SOL    HW1 9831   9.557   7.514   8.388  0.8818 -0.3565 -0.4890
 2313SOL    HW2 9832   9.662   7.611   8.437 -1.0935  1.1715  0.9268
 2314SOL     OW 9833   9.598   1.529   1.056  0.1186  0.0157  0.2960
 2314SOL    HW1 9834   9.563   1.588   1.123 -0.0806  1.6803 -1.2105
 2314SOL    HW2 9835   9.666   1.580   1.012  2.1492 -1.9643  0.9020
 2315SOL     OW 9836   8.070   1.474   1.847 -0.6130 -0.2293 -0.2920
 2315SOL    HW1 9837   8.125   1.545   1.812  2.2712 -1.2590  1.7272
 2315SOL    HW2 9838   8.003   1.519   1.898  1.5036  1.1743  1.4516
 2316SOL     OW 9839   8.729   9.237   1.667 -0.6924  0.5557 -0.1027
 2316SOL    HW1 9840   8.662   9.304   1.685 -0.2320  1.3086 -1.0814
 2316SOL    HW2 9841   8.758   9.256   1.578 -0.3702 -0.8156 -0.3084
 2317SOL     OW 9842   1.576   3.911   1.586 -0.3184  0.0682  0.2169
 2317SOL    HW1 9843   1.550   3.933   1.675 -2.8995 -0.6647 -0.2840
 2317SOL    HW2 9844   1.505   3.944   1.531 -0.1451 -1.9007 -1.3141
 2318SOL     OW 9845   2.680   2.734   3.411 -0.4825  0.4300  0.0194
 2318SOL    HW1 9846   2.587   2.714   3.425 -0.7304  2.1041  1.0207
 2318SOL    HW2 9847   2.686   2.755   3.318 -0.7998 -1.0730 -0.3711
 2319SOL     OW 9848   7.164   1.936   0.505  0.2776  0.4212  0.4713
 2319SOL    HW1 9849   7.169   1.916   0.599  1.5431  1.8130  0.7513
 2319SOL    HW2 9850   7.255   1.953   0.480 -0.2340  1.8211 -0.5719
 2320SOL     OW 9851   7.469   8.177   6.396  0.6704  0.1090  0.5365
 2320SOL    HW1 9852   7.469   8.266   6.360  0.3022 -0.1576 -0.1330
 2320SOL    HW2 9853   7.561   8.159   6.416  0.8244  0.4090  0.1045
 2321SOL     OW 9854   6.139   9.376   5.914 -0.2503  0.1789  0.0114
 2321SOL    HW1 9855   6.114   9.298   5.962  3.4523 -1.3803 -0.2259
 2321SOL    HW2 9856   6.129   9.352   5.822  0.9426 -0.0826 -0.0637
 2322SOL     OW 9857   5.306   7.516   5.127 -0.8712  0.0955 -0.0392
 2322SOL    HW1 9858   5.333   7.509   5.035  2.6927  0.4178  0.8282
 2322SOL    HW2 9859   5.277   7.428   5.151  2.5572 -1.2992 -0.3929
 2323SOL     OW 9860   6.122   4.410   6.022 -0.1863  0.0618 -0.5495
 2323SOL    HW1 9861   6.036   4.453   6.014 -0.1223  0.2774 -0.1017
 2323SOL    HW2 9862   6.108   4.323   5.986 -1.0413 -0.5052  1.0460
 2324SOL     OW 9863   7.008   8.090   0.634  0.7697 -0.1921 -0.1072
 2324SOL    HW1 9864   7.003   8.004   0.677  1.5287  0.6167  1.7049
 2324SOL    HW2 9865   6.936   8.089   0.571  0.5737 -2.0411  0.0807
 2325SOL     OW 9866   6.618   8.331   0.100  0.4424 -0.5724 -0.3340
 2325SOL    HW1 9867   6.679   8.325   0.173 -1.7558  2.0189  1.9842
 2325SOL    HW2 9868   6.543   8.279   0.128 -1.1951  1.9240  0.3075
 2326SOL     OW 9869   2.517   6.352   3.824 -0.0935  0.3919  0.0696
 2326SOL    HW1 9870   2.575   6.405   3.771  1.2717 -0.4978  0.6102
 2326SOL    HW2 9871   2.481   6.287   3.763  0.8862 -0.1611  0.0572
 2327SOL     OW 9872   7.074   2.542   5.594 -0.3084  0.0911 -0.0771
 2327SOL    HW1 9873   6.988   2.573   5.621 -0.5138  0.0205 -0.6395
 2327SOL    HW2 9874   7.064   2.518   5.502 -0.1000 -1.4217  0.2615
 2328SOL     OW 9875   4.472   1.515   4.226  0.3362  0.4315  0.0662
 2328SOL    HW1 9876   4.485   1.601   4.267  0.5093  0.4661 -0.0598
 2328SOL    HW2 9877   4.560   1.481   4.213  0.4826  1.6711 -2.9318
 2329SOL     OW 9878   8.792   2.222   7.310 -0.2559  0.2402 -0.8610
 2329SOL    HW1 9879   8.769   2.146   7.363 -2.8771  1.9575  0.6531
 2329SOL    HW2 9880   8.816   2.185   7.225 -2.0885 -2.2584 -0.4074
 2330SOL     OW 9881   2.796   4.683   6.629 -0.1705 -0.1234 -0.7935
 2330SOL    HW1 9882   2.726   4.617   6.628 -0.9223  0.6523 -1.0740
 2330SOL    HW2 9883   2.792   4.720   6.717 -0.2736  0.0710 -0.8768
 2331SOL     OW 9884   6.518   5.507   2.086 -0.0479 -0.4871  0.0624
 2331SOL    HW1 9885   6.472   5.426   2.108  0.6695 -2.4493 -4.5468
 2331SOL    HW2 9886   6.541   5.497   1.994  1.1127  4.5649 -0.4641
 2332SOL     OW 9887   4.675   7.421   8.868  0.0872  0.2680  0.1825
 2332SOL    HW1 9888   4.725   7.490   8.910  1.7724 -0.2695 -0.8551
 2332SOL    HW2 9889   4.717   7.340   8.896 -0.2831 -0.2030 -0.5960
 2333SOL     OW 9890   0.146   0.736   4.839 -0.0532 -0.5382 -0.5366
 2333SOL    HW1 9891   0.209   0.697   4.899 -0.4414 -1.2336 -0.5613
 2333SOL    HW2 9892   0.189   0.814   4.804  0.0028  0.1394  0.9882
 2334SOL     OW 9893   8.585   7.128   2.557 -0.2568 -0.2822  0.0888
 2334SOL    HW1 9894   8.626   7.075   2.489 -1.0700 -0.1921 -0.4897
 2334SOL    HW2 9895   8.491   7.117   2.542 -0.5085 -1.4761  2.1398
 2335SOL     OW 9896   5.333   7.641   5.867 -0.8044 -0.5242  0.1106
 2335SOL    HW1 9897   5.371   7.564   5.910 -0.4975 -0.4576 -0.0348
 2335SOL    HW2 9898   5.336   7.710   5.934  2.9423  0.6081 -0.9619
 2336SOL     OW 9899   8.153   5.834   5.848 -0.1975  0.0907  0.1302
 2336SOL    HW1 9900   8.151   5.788   5.764 -1.1084 -0.6291  0.5381
 2336SOL    HW2 9901   8.087   5.903   5.839 -0.9232 -0.5399  0.5594
 2337SOL     OW 9902   6.881   1.919   0.566 -0.0180  0.2958  0.2715
 2337SOL    HW1 9903   6.900   1.851   0.631 -1.2422  0.4773  0.8432
 2337SOL    HW2 9904   6.966   1.960   0.549  0.8041 -1.5782 -0.3526
 2338SOL     OW 9905   2.740   2.198   1.793 -0.0726 -0.0531 -0.3424
 2338SOL    HW1 9906   2.790   2.121   1.819 -1.6397 -0.7969  0.6309
 2338SOL    HW2 9907   2.734   2.251   1.872 -1.2234 -0.2285 -0.2914
 2339SOL     OW 9908   4.305   1.318   3.040 -0.5386  0.2127  0.6352
 2339SOL    HW1 9909   4.226   1.346   3.085 -0.1335  2.1911  0.2171
 2339SOL    HW2 9910   4.360   1.396   3.037  2.3880 -1.5735  2.8077
 2340SOL     OW 9911   7.440   8.909   6.807 -0.5492 -0.2823 -0.2745
 2340SOL    HW1 9912   7.531   8.924   6.781 -0.3788  1.4223  1.1765
 2340SOL    HW2 9913   7.413   8.833   6.755  1.5557 -0.5642 -1.0475
 2341SOL     OW 9914   9.393   6.398   5.033 -0.1930 -0.2137 -0.5039
 2341SOL    HW1 9915   9.375   6.491   5.019  1.9876  0.5662  1.2523
 2341SOL    HW2 9916   9.351   6.378   5.116  2.1367  0.2187  0.8898
 2342SOL     OW 9917   3.367   3.748   7.015  0.1197 -0.4425  0.1120
 2342SOL    HW1 9918   3.361   3.653   7.005 -0.9815 -0.5603  1.5854
 2342SOL    HW2 9919   3.460   3.765   7.034  0.2866 -1.2485  0.0281
 2343SOL     OW 9920   5.224   3.021   6.173 -0.1909  0.6780  0.2099
 2343SOL    HW1 9921   5.141   3.011   6.126 -0.2242  1.2612  0.1326
 2343SOL    HW2 9922   5.285   3.056   6.108 -0.0115  0.6942  0.3833
 2344SOL     OW 9923   5.696   4.129   3.912 -0.8597 -0.5284 -0.0390
 2344SOL    HW1 9924   5.730   4.174   3.835 -1.2109  0.3859  0.3332
 2344SOL    HW2 9925   5.773   4.091   3.953 -0.2801  1.2427  0.6108
 2345SOL     OW 9926   4.951   7.739   6.003 -0.7351  0.2137  0.4459
 2345SOL    HW1 9927   4.907   7.730   6.088 -1.0872  1.1730  0.3745
 2345SOL    HW2 9928   4.988   7.652   5.986  0.4988  0.3381  2.2171
 2346SOL     OW 9929   3.598   4.453   2.729 -0.2665 -0.1170  0.1020
 2346SOL    HW1 9930   3.687   4.420   2.733  0.9856  2.7956 -1.1786
 2346SOL    HW2 9931   3.553   4.409   2.801  2.0415 -2.0145  0.4945
 2347SOL     OW 9932   9.147   9.083   7.105  0.3282 -0.0673 -0.0968
 2347SOL    HW1 9933   9.229   9.037   7.124  0.3774  0.3967  0.8818
 2347SOL    HW2 9934   9.172   9.176   7.100 -0.1387  0.0853  0.2782
 2348SOL     OW 9935   4.022   8.599   2.047  0.3975 -0.5679  0.4437
 2348SOL    HW1 9936   3.975   8.682   2.048  0.5019 -0.5109  1.3335
 2348SOL    HW2 9937   4.076   8.603   1.968  0.3876  0.2013  0.4667
 2349SOL     OW 9938   3.683   3.985   6.576  0.2283  0.1366  0.1225
 2349SOL    HW1 9939   3.689   3.906   6.523  0.1290 -0.0508  0.3846
 2349SOL    HW2 9940   3.589   4.003   6.582  0.2773  0.5590 -0.3477
 2350SOL     OW 9941   3.968   6.104   4.179  0.1999  0.0539 -0.2628
 2350SOL    HW1 9942   4.037   6.168   4.196  0.4640 -0.1843 -0.4412
 2350SOL    HW2 9943   3.896   6.130   4.237  1.0454 -0.6708  1.1657
 2351SOL     OW 9944   6.340   0.903   5.357 -0.3904  0.5568  0.3927
 2351SOL    HW1 9945   6.425   0.944   5.340  0.2026 -0.6363  0.3850
 2351SOL    HW2 9946   6.303   0.954   5.429  1.2030 -0.0646  1.7341
 2352SOL     OW 9947   7.274   1.482   2.671 -0.4468  0.0152  0.1631
 2352SOL    HW1 9948   7.313   1.556   2.625  0.3109  0.0743  0.8750
 2352SOL    HW2 9949   7.253   1.516   2.758 -1.4708 -0.2074  0.0165
 2353SOL     OW 9950   2.436   7.689   1.411  0.1930 -0.1935  0.2461
 2353SOL    HW1 9951   2.388   7.758   1.457  1.9764  1.5263 -0.3223
 2353SOL    HW2 9952   2.506   7.735   1.365  1.9164 -2.4955  0.3972
 2354SOL     OW 9953   5.946   6.365   3.744 -0.1230 -0.2790 -0.6729
 2354SOL    HW1 9954   5.967   6.294   3.805  0.9786 -0.4149 -1.1803
 2354SOL    HW2 9955   5.857   6.347   3.715 -0.5220 -0.4243  0.5973
 2355SOL     OW 9956   2.926   4.473   7.986 -0.2364 -0.6368 -0.4425
 2355SOL    HW1 9957   2.953   4.431   7.905  0.2157 -0.6091 -0.3091
 2355SOL    HW2 9958   2.871   4.408   8.030 -0.7739 -0.5164 -0.9322
 2356SOL     OW 9959   2.967   7.957   5.500  0.0821 -0.3470 -0.3258
 2356SOL    HW1 9960   2.875   7.983   5.489 -0.1185 -1.2188 -0.8741
 2356SOL    HW2 9961   2.972   7.923   5.590 -0.1851 -0.4713 -0.3560
 2357SOL     OW 9962   7.275   4.290   5.331 -0.0839  0.1355 -0.1212
 2357SOL    HW1 9963   7.283   4.341   5.251  2.5539  0.0913  0.0123
 2357SOL    HW2 9964   7.218   4.342   5.388 -0.5405  1.0341 -1.3603
 2358SOL     OW 9965   0.195   1.854   1.814 -0.1624  0.6437 -0.0534
 2358SOL    HW1 9966   0.188   1.847   1.719  1.2013 -2.9701 -0.0372
 2358SOL    HW2 9967   0.277   1.901   1.828  0.5071 -0.2957 -0.7212
 2359SOL     OW 9968   4.840   4.762   2.836 -0.0901  0.5640 -0.0682
 2359SOL    HW1 9969   4.789   4.842   2.823  3.1529  2.6195 -1.4460
 2359SOL    HW2 9970   4.814   4.705   2.763 -0.6536  1.3970 -0.5347
 2360SOL     OW 9971   5.124   0.945   4.847  0.2417 -0.8932 -0.0788
 2360SOL    HW1 9972   5.129   0.849   4.844 -1.3904 -0.9688 -1.9955
 2360SOL    HW2 9973   5.208   0.974   4.812 -0.4033 -1.6868 -2.4139
 2361SOL     OW 9974   1.065   0.007   2.339 -0.0890 -0.3882 -0.6959
 2361SOL    HW1 9975   1.010  -0.048   2.283  0.1534  0.0381 -1.3622
 2361SOL    HW2 9976   1.107   0.069   2.279  0.0605  0.1768 -0.0258
 2362SOL     OW 9977   7.687   1.277   3.641 -0.2909  0.1955 -0.3588
 2362SOL    HW1 9978   7.759   1.279   3.705 -0.8191  2.9852  0.2775
 2362SOL    HW2 9979   7.731   1.285   3.556  0.2441  1.2435 -0.0101
 2363SOL     OW 9980   5.370   8.201   9.577  0.1966 -0.2924 -0.1381
 2363SOL    HW1 9981   5.433   8.162   9.638 -1.8367 -1.1679  1.5404
 2363SOL    HW2 9982   5.383   8.154   9.495  1.1136 -1.0705  0.4372
 2364SOL     OW 9983   4.588   1.434   5.119  0.1425 -0.4330 -0.1244
 2364SOL    HW1 9984   4.673   1.414   5.079 -0.0231 -0.3458 -0.5241
 2364SOL    HW2 9985   4.540   1.351   5.116  0.3423 -0.5749  0.4339
 2365SOL     OW 9986   8.700   2.785   5.394  0.5443 -0.0415  0.1243
 2365SOL    HW1 9987   8.765   2.724   5.359  0.6964  0.5046 -0.5699
 2365SOL    HW2 9988   8.649   2.811   5.317  0.0808  0.2209  0.5213
 2366SOL     OW 9989   8.637   4.391   2.133 -0.1156 -0.1796  0.2228
 2366SOL    HW1 9990   8.653   4.447   2.208  0.4051 -1.0524  0.7732
 2366SOL    HW2 9991   8.719   4.391   2.084  0.4070 -1.6665  1.0483
 2367SOL     OW 9992   0.392   3.765   2.368  0.0926  0.2956  0.3480
 2367SOL    HW1 9993   0.470   3.763   2.423  0.4527 -1.2264 -0.1817
 2367SOL    HW2 9994   0.320   3.774   2.430  0.5686 -0.1513  0.9849
 2368SOL     OW 9995   2.561   5.909   5.487 -0.2913 -0.4969 -0.5334
 2368SOL    HW1 9996   2.542   5.893   5.580  0.2878  2.0709  0.0954
 2368SOL    HW2 9997   2.476   5.927   5.447 -0.3152  1.0034  0.1163
 2369SOL     OW 9998   3.809   7.519   3.012  0.2373 -0.2209 -0.2918
 2369SOL    HW1 9999   3.887   7.506   3.066  1.1488 -1.7869 -1.8751
 2369SOL    HW210000   3.843   7.524   2.922 -1.5780 -3.2525 -1.2920
 2370SOL     OW10001   7.140   5.119   1.333  0.2394 -0.0792  0.4583
 2370SOL    HW110002   7.059   5.088   1.373  1.1647 -0.2302  2.3657
 2370SOL    HW210003   7.203   5.049   1.351  0.1871 -1.4820 -3.7459
 2371SOL     OW10004   4.855   6.043   7.346  0.6132 -0.1223  0.1180
 2371SOL    HW110005   4.877   6.006   7.431 -1.0301  0.7921  0.9974
 2371SOL    HW210006   4.897   6.129   7.345  0.3665  0.0015  0.1580
 2372SOL     OW10007   4.247   9.434   1.766 -0.3387 -0.6346 -0.1657
 2372SOL    HW110008   4.307   9.400   1.832 -2.4846 -2.7378  0.8678
 2372SOL    HW210009   4.160   9.428   1.806 -1.4662  0.7044 -2.1749
 2373SOL     OW10010   2.295   3.599   1.382 -0.0768  0.3114  0.0258
 2373SOL    HW110011   2.259   3.513   1.403 -3.3830  1.1387 -1.6114
 2373SOL    HW210012   2.286   3.606   1.287  0.4617  2.2999  0.0748
 2374SOL     OW10013   6.683   1.946   8.396  0.1264  0.6417 -0.1753
 2374SOL    HW110014   6.608   1.944   8.336  0.2854  0.5995 -0.3722
 2374SOL    HW210015   6.697   2.039   8.413  1.6362  0.8487 -2.1617
 2375SOL     OW10016   1.899   4.960   1.956 -0.3359 -0.1146 -0.9096
 2375SOL    HW110017   1.826   4.900   1.969  0.6253 -0.9946  0.8428
 2375SOL    HW210018   1.867   5.024   1.893 -1.6416 -2.0768 -2.3738
 2376SOL     OW10019   1.173   7.915   5.108 -0.0083 -0.4538 -0.0693
 2376SOL    HW110020   1.252   7.875   5.143 -0.3399 -1.3435 -0.3243
 2376SOL    HW210021   1.201   7.956   5.026  0.3884  0.0954  0.3319
 2377SOL     OW10022   2.051   2.370   6.094 -0.0595  0.1827 -0.1497
 2377SOL    HW110023   2.091   2.364   6.007 -0.9245  0.2411 -0.5611
 2377SOL    HW210024   2.036   2.463   6.107 -0.0626  0.1596  0.0051
 2378SOL     OW10025   1.477   1.423   5.115  0.1142  0.1144  0.0576
 2378SOL    HW110026   1.390   1.463   5.126  0.2993  0.1999  1.2985
 2378SOL    HW210027   1.536   1.496   5.100  0.3656  0.3007  1.7872
 2379SOL     OW10028   1.482   3.401   4.973 -0.1992 -0.1165 -0.1858
 2379SOL    HW110029   1.460   3.420   4.882  0.6686 -0.4516 -0.4781
 2379SOL    HW210030   1.444   3.473   5.023  0.6010  0.8793 -0.9786
 2380SOL     OW10031   1.664   5.853   4.013 -0.5109  0.2596 -0.0473
 2380SOL    HW110032   1.618   5.880   4.093 -0.0092 -0.2122  0.4079
 2380SOL    HW210033   1.676   5.934   3.964 -0.3383  0.6423  0.6118
 2381SOL     OW10034   0.230   3.945   9.276 -0.5815  0.1530 -0.3567
 2381SOL    HW110035   0.155   3.897   9.310 -2.1334  1.4829 -1.7523
 2381SOL    HW210036   0.220   3.943   9.181  1.3593  0.0753 -0.6070
 2382SOL     OW10037   9.508   3.269   1.945  0.4616  0.0261  0.3233
 2382SOL    HW110038   9.529   3.258   2.038 -0.2645 -1.4003  0.3601
 2382SOL    HW210039   9.592   3.276   1.901  0.9376 -1.7649  0.8569
 2383SOL     OW10040   7.337   5.263   9.020 -0.2288 -0.3088  0.5111
 2383SOL    HW110041   7.377   5.191   9.069 -0.3665 -1.4133 -0.9397
 2383SOL    HW210042   7.248   5.268   9.055 -0.3651 -1.1717  0.3140
 2384SOL     OW10043   0.031   5.334   7.962 -0.0031  0.4719  0.5040
 2384SOL    HW110044  -0.024   5.305   8.035  2.4868 -2.1075  1.5596
 2384SOL    HW210045   0.052   5.425   7.983 -2.3725  0.9977  0.9200
 2385SOL     OW10046   6.687   7.259   1.166  0.7503  0.2385  0.1971
 2385SOL    HW110047   6.750   7.232   1.232  1.1704 -0.7576 -0.5796
 2385SOL    HW210048   6.674   7.181   1.112 -0.7914  0.5610  0.0456
 2386SOL     OW10049   8.619   0.406   6.698 -0.2264 -0.3832  0.7805
 2386SOL    HW110050   8.677   0.381   6.769 -0.1456  1.4183  1.3908
 2386SOL    HW210051   8.531   0.404   6.736 -0.2772 -0.2695  0.6701
 2387SOL     OW10052   5.213   5.684   5.555 -0.2203 -0.1391 -0.3162
 2387SOL    HW110053   5.159   5.680   5.477 -2.2047 -0.1613  0.9828
 2387SOL    HW210054   5.235   5.593   5.574  0.1430 -0.1453 -0.7464
 2388SOL     OW10055   3.323   9.638   7.449  0.0879 -0.0311 -0.5218
 2388SOL    HW110056   3.386   9.703   7.415 -0.6966  1.0620  0.0467
 2388SOL    HW210057   3.377   9.574   7.495  0.8138  0.7476 -0.2565
 2389SOL     OW10058   1.144   1.924   2.545  0.3585 -0.0634 -0.5290
 2389SOL    HW110059   1.167   1.853   2.486 -0.7705  0.6130 -1.8398
 2389SOL    HW210060   1.053   1.907   2.569  0.6551 -0.0677  0.6586
 2390SOL     OW10061   9.003   0.336   6.536 -0.0435 -0.5327 -0.0491
 2390SOL    HW110062   8.963   0.418   6.567  2.2285  0.7135 -0.2142
 2390SOL    HW210063   9.093   0.360   6.514  0.2369 -2.7607 -1.6418
 2391SOL     OW10064   4.292   5.836   0.509 -0.1830 -0.3430  0.1099
 2391SOL    HW110065   4.351   5.761   0.500 -0.1312 -0.1475 -1.4426
 2391SOL    HW210066   4.205   5.800   0.491 -0.2109 -0.1259 -0.2019
 2392SOL     OW10067   0.875   4.422   3.367 -0.6355 -0.4052 -0.8807
 2392SOL    HW110068   0.796   4.382   3.402 -0.2131  1.5560  2.7641
 2392SOL    HW210069   0.930   4.438   3.443  2.2225  0.6081 -2.9756
 2393SOL     OW10070   9.483   9.118   1.315  0.4448 -1.0897 -0.4418
 2393SOL    HW110071   9.505   9.030   1.284  0.0522 -0.7262 -1.8227
 2393SOL    HW210072   9.425   9.103   1.390  0.5391 -2.0032 -0.5405
 2394SOL     OW10073   1.241   3.911   0.481 -0.3369  0.2752 -0.3098
 2394SOL    HW110074   1.311   3.896   0.546  0.9111 -0.2218 -1.7069
 2394SOL    HW210075   1.180   3.970   0.525 -0.0251 -0.7541  1.6577
 2395SOL     OW10076   5.782   7.212   1.447 -0.7562  0.1733 -0.1231
 2395SOL    HW110077   5.745   7.151   1.383 -1.4911  0.2980  0.1736
 2395SOL    HW210078   5.820   7.283   1.394  0.0033 -0.4781 -0.4624
 2396SOL     OW10079   6.739   5.301   8.439 -0.0614 -0.2496  0.4496
 2396SOL    HW110080   6.698   5.377   8.480  1.4199 -0.0743  1.7065
 2396SOL    HW210081   6.666   5.253   8.399 -1.2728  0.8250  1.2870
 2397SOL     OW10082   0.730   8.039   2.677 -0.3622 -0.3146  0.2842
 2397SOL    HW110083   0.815   8.008   2.646  0.8939  0.8766  2.3937
 2397SOL    HW210084   0.718   7.997   2.762 -0.3919  1.9108  1.4428
 2398SOL     OW10085   8.528   3.520   3.988  0.3892 -0.3740  0.1393
 2398SOL    HW110086   8.539   3.457   3.917  0.0178  0.5023 -0.7152
 2398SOL    HW210087   8.614   3.562   3.996  0.2990 -0.1327 -0.1319
 2399SOL     OW10088   5.578   0.870   4.675  0.1071  0.4889  0.3286
 2399SOL    HW110089   5.625   0.839   4.753  0.3868  0.4168  0.1312
 2399SOL    HW210090   5.549   0.790   4.631  0.4690  0.5184  0.0391
 2400SOL     OW10091   0.723   7.708   2.354 -0.2452 -0.2584 -0.2850
 2400SOL    HW110092   0.646   7.744   2.398  0.9071  2.4506 -0.3276
 2400SOL    HW210093   0.723   7.750   2.268  1.8772  0.7458  0.1496
 2401SOL     OW10094   3.044   3.241   6.483  0.4820 -0.7509 -0.2776
 2401SOL    HW110095   3.068   3.210   6.395 -0.1672 -2.1628  0.0255
 2401SOL    HW210096   3.128   3.261   6.524  0.8873 -1.4429 -0.7422
 2402SOL     OW10097   8.667   1.849   4.622 -0.3355 -0.1634 -0.2762
 2402SOL    HW110098   8.662   1.757   4.649  1.4664  0.1971  1.5632
 2402SOL    HW210099   8.756   1.860   4.591 -0.7451  0.8131 -1.1468
 2403SOL     OW10100   2.226   2.003   6.135  0.4985  0.1644 -0.0723
 2403SOL    HW110101   2.242   2.005   6.230 -1.0147 -0.3043  0.2260
 2403SOL    HW210102   2.303   1.960   6.099  1.5054  1.1438  0.8368
 2404SOL     OW10103   8.362   8.551   2.868  0.6419 -0.1621 -0.2795
 2404SOL    HW110104   8.328   8.462   2.861  1.7195 -0.6711  0.6556
 2404SOL    HW210105   8.419   8.562   2.792 -1.2251  0.5701 -1.6556
 2405SOL     OW10106   6.041   2.965   8.899 -0.3231  0.3044  0.3263
 2405SOL    HW110107   6.017   3.052   8.866 -1.0407 -0.4580 -1.2451
 2405SOL    HW210108   5.963   2.911   8.884 -0.1547 -0.4627  1.9639
 2406SOL     OW10109   4.416   4.866   8.080 -0.4151 -0.0033  0.3879
 2406SOL    HW110110   4.348   4.934   8.073 -0.2426  0.0624 -0.7616
 2406SOL    HW210111   4.495   4.914   8.103  0.5349  0.7807 -3.7059
 2407SOL     OW10112   3.642   8.491   0.536 -0.4145  0.0174 -0.2590
 2407SOL    HW110113   3.636   8.501   0.441  0.3426  3.4823 -0.0775
 2407SOL    HW210114   3.573   8.548   0.571 -2.0692 -2.7717  1.3539
 2408SOL     OW10115   7.073   3.204   2.741  0.1307  0.3085 -0.1403
 2408SOL    HW110116   7.033   3.119   2.762  2.2439 -0.5496  0.7583
 2408SOL    HW210117   7.004   3.268   2.759 -1.4529 -1.1719 -0.6149
 2409SOL     OW10118   4.658   0.209   0.326  0.0039  0.1466  0.0048
 2409SOL    HW110119   4.683   0.125   0.287 -2.4586 -0.1598 -1.1172
 2409SOL    HW210120   4.716   0.272   0.284  1.7114 -0.9283  0.6600
 2410SOL     OW10121   0.667   0.957   2.994 -0.2570 -0.1774  0.3673
 2410SOL    HW110122   0.756   0.992   3.005 -1.1232  2.0985  0.8230
 2410SOL    HW210123   0.679   0.872   2.952  2.0961  0.3499 -0.1619
 2411SOL     OW10124   6.984   6.788   8.549 -0.1432  0.0419 -0.0866
 2411SOL    HW110125   6.972   6.729   8.474  0.9311 -0.2623 -0.0372
 2411SOL    HW210126   6.970   6.875   8.514  1.3305 -0.0167 -0.9022
 2412SOL     OW10127   8.270   3.514   1.933 -0.5878  0.4780  0.9457
 2412SOL    HW110128   8.218   3.493   2.010  1.5606 -2.7711  1.7257
 2412SOL    HW210129   8.359   3.525   1.966  0.3185 -0.5905 -0.9762
 2413SOL     OW10130   1.260   7.676   1.735 -0.5904  0.2188 -0.0791
 2413SOL    HW110131   1.347   7.710   1.755 -0.1294 -0.4182 -0.9684
 2413SOL    HW210132   1.217   7.748   1.688 -1.3534  1.3725  2.2060
 2414SOL     OW10133   9.389   1.817   2.728  0.4914 -0.8271 -0.2303
 2414SOL    HW110134   9.395   1.722   2.712  2.8680 -0.8352  0.3901
 2414SOL    HW210135   9.459   1.855   2.675 -0.8667  0.6977 -1.0063
 2415SOL     OW10136   2.643   8.876   0.644  0.5247  0.2582 -0.0759
 2415SOL    HW110137   2.666   8.967   0.660  0.7140  0.1387  0.3385
 2415SOL    HW210138   2.726   8.833   0.625  0.4797  0.1047  0.0717
 2416SOL     OW10139   3.784   7.707   3.379 -0.2110 -0.1421 -0.2916
 2416SOL    HW110140   3.781   7.643   3.308 -0.6289 -1.2282  0.6738
 2416SOL    HW210141   3.838   7.665   3.446 -1.0295  0.2391  0.6193
 2417SOL     OW10142   3.255   4.510   2.202  0.6386 -0.0179 -0.2251
 2417SOL    HW110143   3.309   4.557   2.265  0.4021 -0.4928  0.3347
 2417SOL    HW210144   3.245   4.572   2.129 -0.5878  1.2663  0.9726
 2418SOL     OW10145   8.440   2.795   8.614  0.1774  0.1157  0.4807
 2418SOL    HW110146   8.506   2.795   8.544  1.7958 -0.5121  1.9046
 2418SOL    HW210147   8.491   2.808   8.694 -0.9954 -3.3300  1.9871
 2419SOL     OW10148   5.767   2.525   5.241  0.3337 -0.7252  0.0253
 2419SOL    HW110149   5.805   2.459   5.299 -2.4213  0.1606  3.1409
 2419SOL    HW210150   5.682   2.488   5.215 -0.3429  0.6841  0.1277
 2420SOL     OW10151   3.346   3.284   2.015 -0.2630  0.4210  0.3981
 2420SOL    HW110152   3.262   3.298   1.972 -1.1114 -0.5232  1.7005
 2420SOL    HW210153   3.411   3.318   1.952 -1.5069 -0.0677 -1.2061
 2421SOL     OW10154   6.800   2.311   6.830 -0.2736 -0.2212  0.7400
 2421SOL    HW110155   6.817   2.229   6.784 -0.4298 -0.0289  0.3426
 2421SOL    HW210156   6.885   2.334   6.868 -0.3541 -0.8623  1.3491
 2422SOL     OW10157   8.087   4.322   0.744 -0.8585  0.0635 -0.1337
 2422SOL    HW110158   8.079   4.229   0.723 -0.2175  0.0207 -0.2271
 2422SOL    HW210159   8.027   4.336   0.818  2.3876 -1.5167  3.1463
 2423SOL     OW10160   5.635   2.917   1.313  0.6090 -0.0917  0.1549
 2423SOL    HW110161   5.597   2.921   1.225  0.3048  0.7312  0.3083
 2423SOL    HW210162   5.634   3.008   1.343 -2.1925 -0.6414  2.2085
 2424SOL     OW10163   4.816   2.146   4.751 -0.2366 -0.6392 -0.0877
 2424SOL    HW110164   4.810   2.170   4.659 -1.3984 -1.8547 -0.3758
 2424SOL    HW210165   4.772   2.217   4.798  0.3476 -0.0244 -0.4581
 2425SOL     OW10166   4.726   5.354   2.454 -0.0720 -0.1262 -0.1029
 2425SOL    HW110167   4.643   5.307   2.442 -0.4918  0.9633 -1.9515
 2425SOL    HW210168   4.747   5.343   2.546 -1.6876 -1.4025  0.1600
 2426SOL     OW10169   0.289   7.289   5.617  0.3203 -0.0264  0.2231
 2426SOL    HW110170   0.309   7.383   5.623  0.9351 -0.1207 -0.1881
 2426SOL    HW210171   0.374   7.246   5.630 -0.0657 -0.5564  1.0742
 2427SOL     OW10172   4.330   6.141   4.410 -0.2329 -0.1358 -0.0831
 2427SOL    HW110173   4.264   6.071   4.405 -0.3619  0.0950 -2.2094
 2427SOL    HW210174   4.280   6.222   4.398 -0.0523  0.3699  2.1602
 2428SOL     OW10175   6.938   8.258   6.491 -0.2314  0.0019 -0.3030
 2428SOL    HW110176   6.864   8.228   6.543 -0.2339  0.4122 -0.0644
 2428SOL    HW210177   6.899   8.314   6.424 -0.2372 -0.5852 -0.8077
 2429SOL     OW10178   2.220   8.409   4.941 -0.0275 -0.0857  0.3945
 2429SOL    HW110179   2.153   8.341   4.948 -1.6828  1.2752 -1.2728
 2429SOL    HW210180   2.175   8.489   4.969  2.0127  0.3481  2.8253
 2430SOL     OW10181   8.576   4.086   4.263  0.1402  0.7637  0.6635
 2430SOL    HW110182   8.495   4.111   4.308  0.8235  1.3129  1.6238
 2430SOL    HW210183   8.646   4.127   4.314  0.9637  1.3887 -0.9038
 2431SOL     OW10184   7.316   7.076   6.272  0.1400  0.1993 -0.1804
 2431SOL    HW110185   7.389   7.047   6.218  0.5112  0.4715  0.1648
 2431SOL    HW210186   7.336   7.167   6.293 -0.2582  0.2532 -0.0157
 2432SOL     OW10187   2.766   8.644   3.785 -0.0026  0.7024 -0.2756
 2432SOL    HW110188   2.828   8.678   3.849 -0.4864  2.4367 -0.6766
 2432SOL    HW210189   2.808   8.565   3.750  0.8901  0.5082  1.1438
 2433SOL     OW10190   2.179   1.178   4.017  0.2422  0.1482  0.4827
 2433SOL    HW110191   2.220   1.102   3.977 -0.1615  0.0051  0.3393
 2433SOL    HW210192   2.089   1.151   4.033  0.3208  0.3037  1.2191
 2434SOL     OW10193   2.640   8.367   3.605  0.5493 -0.0320  0.0302
 2434SOL    HW110194   2.562   8.419   3.583  1.0381  0.6056 -0.2093
 2434SOL    HW210195   2.647   8.305   3.532 -0.7815 -1.3331  0.9469
 2435SOL     OW10196   8.517   9.085   0.625  0.0290 -0.1943 -0.2593
 2435SOL    HW110197   8.536   9.129   0.542  0.9519  0.5316  0.3145
 2435SOL    HW210198   8.577   9.126   0.688  0.4669 -1.8558  0.4409
 2436SOL     OW10199   2.160   5.563   2.760  0.2815 -0.0384 -0.3250
 2436SOL    HW110200   2.251   5.590   2.748 -0.2418  1.6956 -0.5955
 2436SOL    HW210201   2.131   5.608   2.840  0.0016 -1.5561  0.4731
 2437SOL     OW10202   2.580   0.012   1.783 -0.1172  0.5357  0.1312
 2437SOL    HW110203   2.531   0.055   1.853 -0.2627  1.0427 -0.2735
 2437SOL    HW210204   2.514  -0.013   1.719  0.2619  2.8160 -1.2647
 2438SOL     OW10205   7.103   3.464   2.342 -0.4023 -0.1572 -0.1091
 2438SOL    HW110206   7.028   3.455   2.402  2.2584 -0.9583  3.4379
 2438SOL    HW210207   7.126   3.373   2.320 -0.1628  0.0625 -0.7806
 2439SOL     OW10208   6.947   4.580   3.732 -0.2781 -0.4052 -0.1855
 2439SOL    HW110209   6.868   4.623   3.764 -0.2003 -0.3927 -0.0085
 2439SOL    HW210210   6.999   4.650   3.694 -0.1634 -0.3451  0.0786
 2440SOL     OW10211   8.415   7.483   3.330  0.4461  0.3897  0.0165
 2440SOL    HW110212   8.372   7.399   3.316  0.7566  0.0584  0.9826
 2440SOL    HW210213   8.486   7.485   3.266  1.5850 -0.8993  1.1746
 2441SOL     OW10214   2.681   4.901   2.971 -0.0453 -0.2016  0.0313
 2441SOL    HW110215   2.595   4.875   2.940  0.1285 -0.0134 -0.6210
 2441SOL    HW210216   2.664   4.956   3.048 -0.4552 -1.1681  0.6442
 2442SOL     OW10217   6.510   7.444   1.238 -0.0123 -0.6553 -0.1716
 2442SOL    HW110218   6.563   7.516   1.273 -0.0526 -0.4493 -0.5261
 2442SOL    HW210219   6.574   7.375   1.218 -0.2105 -1.8445  2.7513
 2443SOL     OW10220   8.358   4.428   9.278 -0.5418 -0.1779 -0.0730
 2443SOL    HW110221   8.316   4.496   9.226 -0.0941  0.8560  0.8871
 2443SOL    HW210222   8.286   4.386   9.325 -0.6500  0.8230  0.6865
 2444SOL     OW10223   4.982   8.222   2.863 -0.3978  0.3981  0.0870
 2444SOL    HW110224   4.892   8.255   2.872 -1.2642 -2.0667  1.1750
 2444SOL    HW210225   5.002   8.184   2.948  0.6178 -1.5950 -0.9861
 2445SOL     OW10226   3.469   2.286   3.621 -0.1843  0.4243  0.1536
 2445SOL    HW110227   3.408   2.302   3.550  0.5889  0.1317 -0.5962
 2445SOL    HW210228   3.554   2.278   3.578  0.3199  0.3882  1.1250
 2446SOL     OW10229   7.677   6.085   4.449 -0.4635 -0.1588  0.3186
 2446SOL    HW110230   7.756   6.117   4.493 -0.5477 -0.6252  0.8126
 2446SOL    HW210231   7.608   6.142   4.480 -0.1819  0.8882 -0.8659
 2447SOL     OW10232   8.460   1.546   4.484 -0.1709 -0.3776 -0.5867
 2447SOL    HW110233   8.445   1.602   4.408 -2.7415 -1.3474 -0.8909
 2447SOL    HW210234   8.381   1.556   4.537  0.6061 -1.4503  0.8421
 2448SOL     OW10235   3.374   4.100   7.480  0.3734 -0.3613 -0.4025
 2448SOL    HW110236   3.311   4.170   7.497  0.1259 -0.9634  1.3268
 2448SOL    HW210237   3.320   4.026   7.452  0.2822 -0.8277  0.9226
 2449SOL     OW10238   1.161   4.740   2.620  0.3017 -0.5925  0.4392
 2449SOL    HW110239   1.140   4.823   2.578 -0.9773 -0.5851  1.0119
 2449SOL    HW210240   1.090   4.682   2.594 -0.5498 -0.5836  2.5120
 2450SOL     OW10241   6.979   7.931   5.069 -0.2790  0.0747 -0.3061
 2450SOL    HW110242   6.956   7.852   5.117 -0.7025  0.0874 -0.4887
 2450SOL    HW210243   7.063   7.911   5.028  0.8533  0.5881  1.6624
 2451SOL     OW10244   9.401   0.013   2.817  0.0656  0.1281 -0.2470
 2451SOL    HW110245   9.476  -0.027   2.862 -0.8647  0.2778  1.5190
 2451SOL    HW210246   9.326  -0.037   2.846 -0.8330  1.6180  0.1116
 2452SOL     OW10247   6.126   8.564   9.324  0.0652 -0.6021 -0.3439
 2452SOL    HW110248   6.132   8.516   9.241  1.7250 -1.5720  0.2826
 2452SOL    HW210249   6.137   8.497   9.391  1.4953  0.4838  0.5729
 2453SOL     OW10250   8.234   7.165   7.875  0.1138  0.7273  0.1218
 2453SOL    HW110251   8.226   7.133   7.965  2.3539 -0.6437 -0.0965
 2453SOL    HW210252   8.283   7.247   7.883 -0.3887  1.0255  0.1965
 2454SOL     OW10253   6.025   5.635   2.897  0.7584 -0.2782 -0.0808
 2454SOL    HW110254   6.028   5.668   2.808  0.1169  1.0561  0.3711
 2454SOL    HW210255   6.101   5.675   2.940  1.4174 -1.3980 -0.1709
 2455SOL     OW10256   5.580   5.757   8.985 -0.1389  0.7210 -0.6145
 2455SOL    HW110257   5.630   5.838   8.998  2.0654 -0.7321  0.6517
 2455SOL    HW210258   5.617   5.696   9.049 -1.7240 -1.2928 -1.5297
 2456SOL     OW10259   8.533   7.173   9.157  0.4288  0.5797 -0.0209
 2456SOL    HW110260   8.614   7.127   9.135  0.7977  0.8187  0.8048
 2456SOL    HW210261   8.465   7.107   9.145  0.8591  0.0558  0.3340
 2457SOL     OW10262   5.619   0.862   9.550 -0.2310  0.2899 -0.1855
 2457SOL    HW110263   5.674   0.928   9.508  2.1699 -0.1356  2.1108
 2457SOL    HW210264   5.652   0.779   9.516 -0.8283  0.0858 -0.2846
 2458SOL     OW10265   6.236   0.005   7.029 -0.1084  0.3758  0.4806
 2458SOL    HW110266   6.265  -0.086   7.030 -0.1658  0.3585  0.8346
 2458SOL    HW210267   6.174   0.011   7.102  0.5550  0.9092  1.0185
 2459SOL     OW10268   4.367   0.407   9.489 -0.4090  0.0190 -0.0990
 2459SOL    HW110269   4.392   0.477   9.429 -1.1060  0.7683  0.4696
 2459SOL    HW210270   4.407   0.328   9.451  0.4171  0.7163 -0.7211
 2460SOL     OW10271   4.640   4.988   8.166 -0.2461  0.2029  0.3264
 2460SOL    HW110272   4.656   5.058   8.229  0.6211  0.2593  0.0611
 2460SOL    HW210273   4.725   4.974   8.124 -0.3982 -1.0059  0.3743
 2461SOL     OW10274   8.965   5.649   5.096  0.6743 -1.1744 -0.3526
 2461SOL    HW110275   8.921   5.625   5.178 -0.8538  1.5304 -0.2577
 2461SOL    HW210276   9.056   5.626   5.110  0.5565 -0.3490  2.3387
 2462SOL     OW10277   6.793   5.054   4.864 -0.5256 -0.4898  0.0269
 2462SOL    HW110278   6.774   4.965   4.836 -1.0699 -0.5594  0.5912
 2462SOL    HW210279   6.880   5.049   4.904 -0.8623 -0.9184  0.7135
 2463SOL     OW10280   7.149   9.010   7.154 -0.3685 -0.3166 -0.0894
 2463SOL    HW110281   7.096   8.934   7.131  0.5268 -1.3236  1.0614
 2463SOL    HW210282   7.086   9.082   7.161 -0.9355 -0.2414 -3.8491
 2464SOL     OW10283   7.845   1.385   6.837  0.0766 -0.0729 -0.2358
 2464SOL    HW110284   7.893   1.317   6.790  0.6049  0.5694 -0.6473
 2464SOL    HW210285   7.797   1.433   6.769 -0.6355 -0.2978  0.1000
 2465SOL     OW10286   7.738   8.152   7.127  0.4505 -0.1040  0.7383
 2465SOL    HW110287   7.826   8.118   7.140  0.5601  0.0223  0.3529
 2465SOL    HW210288   7.721   8.139   7.034 -0.8374 -2.2707  1.2039
 2466SOL     OW10289   6.273   2.317   5.554  0.5384  0.9332 -0.2003
 2466SOL    HW110290   6.200   2.330   5.614  0.9496 -0.8421  0.7412
 2466SOL    HW210291   6.340   2.379   5.583  0.3218  0.8433  0.5064
 2467SOL     OW10292   6.129   5.344   8.537 -0.2079  0.5180 -0.5097
 2467SOL    HW110293   6.139   5.366   8.444  1.2155  0.1500 -0.4732
 2467SOL    HW210294   6.054   5.395   8.566 -0.8028  0.4829 -1.9121
 2468SOL     OW10295   6.271   5.063   7.953  0.3377  0.1949  0.5984
 2468SOL    HW110296   6.248   4.987   8.006 -0.6728 -0.2111 -0.4027
 2468SOL    HW210297   6.227   5.050   7.870  0.8775  1.4417  0.0809
 2469SOL     OW10298   3.821   4.517   5.059 -0.0601  0.0080  0.0321
 2469SOL    HW110299   3.762   4.445   5.084  0.7414 -0.6993 -0.0647
 2469SOL    HW210300   3.874   4.532   5.137 -0.6878  0.9912  0.2881
 2470SOL     OW10301   3.826   1.806   3.719 -0.2416 -0.0714  0.9222
 2470SOL    HW110302   3.786   1.892   3.734  0.0626  0.1198  0.6373
 2470SOL    HW210303   3.753   1.751   3.691  0.0314  0.8664 -1.9701
 2471SOL     OW10304   6.070   6.459   5.827 -0.5774  0.5161  0.2688
 2471SOL    HW110305   6.165   6.450   5.828 -0.5663  0.6659  0.6499
 2471SOL    HW210306   6.049   6.477   5.736 -0.2127  0.7545  0.2295
 2472SOL     OW10307   5.121   1.630   3.361  0.9161  0.3437 -0.3207
 2472SOL    HW110308   5.070   1.628   3.441 -0.0971  1.3236 -0.9135
 2472SOL    HW210309   5.182   1.703   3.373 -0.5515  1.7688 -1.1752
 2473SOL     OW10310   6.888   4.034   7.346  0.3407 -0.1006  0.4439
 2473SOL    HW110311   6.898   4.042   7.251 -0.4302 -0.0335  0.3653
 2473SOL    HW210312   6.970   3.994   7.375  0.9244  0.6131 -0.1485
 2474SOL     OW10313   5.038   2.715   2.454 -0.3749 -0.2162 -0.1033
 2474SOL    HW110314   5.021   2.751   2.541  0.1056  0.4960 -0.2983
 2474SOL    HW210315   4.971   2.754   2.398  1.4348  2.1774 -0.7637
 2475SOL     OW10316   0.704   1.924   7.954  0.1162  0.6727 -0.3827
 2475SOL    HW110317   0.746   1.946   7.871  0.9104 -0.9139 -0.4259
 2475SOL    HW210318   0.653   1.846   7.936  0.8953 -0.1371  0.7761
 2476SOL     OW10319   0.216   1.134   0.294  0.6676  0.0753 -0.4475
 2476SOL    HW110320   0.195   1.119   0.202  0.6909  2.3141 -0.8931
 2476SOL    HW210321   0.132   1.158   0.334  0.7615 -0.3077 -0.0104
 2477SOL     OW10322   1.023   1.829   7.822  0.5118 -0.0884  0.3879
 2477SOL    HW110323   1.111   1.795   7.811 -0.0997 -1.4937 -0.4168
 2477SOL    HW210324   0.998   1.804   7.911 -0.6228 -3.6270 -0.7721
 2478SOL     OW10325   9.441   2.226   6.138  0.1093 -0.1799  0.0601
 2478SOL    HW110326   9.359   2.274   6.125  0.3298  0.0904 -0.3584
 2478SOL    HW210327   9.468   2.200   6.049  1.3077  1.1173  0.0132
 2479SOL     OW10328   3.281   3.837   6.765  0.2617  0.0527 -0.1844
 2479SOL    HW110329   3.288   3.826   6.859 -0.3576 -0.7258 -0.2235
 2479SOL    HW210330   3.201   3.790   6.741  0.5068  0.0979 -1.1191
 2480SOL     OW10331   6.427   6.494   1.718  0.1718 -0.0172 -0.1488
 2480SOL    HW110332   6.383   6.535   1.643 -0.6507 -1.4147 -0.4878
 2480SOL    HW210333   6.444   6.565   1.779  1.2480  1.2235 -1.8408
 2481SOL     OW10334   0.596   6.920   4.728 -0.1503  0.7582 -0.0471
 2481SOL    HW110335   0.569   6.949   4.641  1.4767  0.9434 -0.5320
 2481SOL    HW210336   0.524   6.865   4.759 -0.7677  0.7152 -1.4874
 2482SOL     OW10337   9.382   1.066   3.340 -0.3188 -0.0949 -0.1812
 2482SOL    HW110338   9.358   0.991   3.394  1.8903 -0.3655  0.5428
 2482SOL    HW210339   9.387   1.030   3.251  2.0255 -1.2496  0.3243
 2483SOL     OW10340   3.179   9.187   1.054  0.5183  0.8786 -0.1736
 2483SOL    HW110341   3.125   9.257   1.092  0.0842  0.5992 -0.2653
 2483SOL    HW210342   3.220   9.227   0.978 -0.8700  0.6546 -1.0917
 2484SOL     OW10343   0.461   5.267   3.550 -0.0007 -0.5170  0.2436
 2484SOL    HW110344   0.544   5.276   3.596 -0.7103 -0.5320  1.5902
 2484SOL    HW210345   0.484   5.265   3.457  1.5106 -0.8712  0.6120
 2485SOL     OW10346   6.960   8.425   6.819 -0.2463  0.0352 -0.0576
 2485SOL    HW110347   6.989   8.474   6.742 -0.7400 -0.2341 -0.4207
 2485SOL    HW210348   7.039   8.413   6.871 -0.2852  2.1156  0.5651
 2486SOL     OW10349   2.368   0.381   2.428 -0.2047  0.0077 -0.2690
 2486SOL    HW110350   2.339   0.472   2.422 -0.2399  0.1848  1.7000
 2486SOL    HW210351   2.383   0.354   2.338 -1.1063  1.6651 -0.9613
 2487SOL     OW10352   3.980   3.451   8.107 -0.3554 -0.1209 -0.6890
 2487SOL    HW110353   3.957   3.387   8.039  2.3534  0.5917 -2.4532
 2487SOL    HW210354   4.076   3.443   8.115 -0.2843  1.7836  1.0775
 2488SOL     OW10355   3.318   0.352   2.548  0.2476  0.1604  0.0453
 2488SOL    HW110356   3.297   0.294   2.621 -1.2645  0.7190  0.0923
 2488SOL    HW210357   3.277   0.435   2.572  1.2796  0.8799 -0.6162
 2489SOL     OW10358   6.527   0.755   0.490 -0.1827 -0.0300 -0.3669
 2489SOL    HW110359   6.444   0.792   0.458 -0.7733 -0.0802  0.9923
 2489SOL    HW210360   6.517   0.661   0.479 -0.4453 -0.0577  0.0408
 2490SOL     OW10361   6.552   1.485   3.438  0.3138 -0.1756  0.2785
 2490SOL    HW110362   6.553   1.581   3.441 -0.7545 -0.1656  0.6162
 2490SOL    HW210363   6.602   1.459   3.515  0.7802  0.1010  0.0781
 2491SOL     OW10364   0.265   9.380   8.016  0.3859 -0.5937 -0.1063
 2491SOL    HW110365   0.244   9.331   8.096 -0.0880  1.3881  1.0525
 2491SOL    HW210366   0.353   9.413   8.032  0.2606 -0.1264 -0.3909
 2492SOL     OW10367   3.036   1.564   7.361 -0.2908 -0.5089 -0.4642
 2492SOL    HW110368   3.063   1.520   7.281 -1.1541  0.2306 -1.1824
 2492SOL    HW210369   3.027   1.656   7.336 -4.4961 -0.7866 -0.6200
 2493SOL     OW10370   2.767   7.599   0.250 -0.1978  0.6374 -0.1497
 2493SOL    HW110371   2.832   7.607   0.180 -0.8036  0.6713 -0.7232
 2493SOL    HW210372   2.692   7.648   0.218 -0.5361  0.5327  0.4727
 2494SOL     OW10373   2.914   6.427   4.250 -0.3718  0.0954  0.2119
 2494SOL    HW110374   2.925   6.375   4.330  1.2974  3.5519  2.4648
 2494SOL    HW210375   2.820   6.446   4.247 -0.4607 -0.0588  1.3951
 2495SOL     OW10376   6.374   2.092   5.109  0.1205 -0.4268 -0.2185
 2495SOL    HW110377   6.301   2.118   5.165 -2.1354 -1.7723 -2.3381
 2495SOL    HW210378   6.440   2.159   5.123 -1.6423  1.0614  1.5592
 2496SOL     OW10379   4.353   5.746   8.806  0.0610  0.5251 -0.2891
 2496SOL    HW110380   4.419   5.815   8.800  2.0206 -1.2614 -0.6208
 2496SOL    HW210381   4.359   5.699   8.723 -0.1045 -0.9580  0.5013
 2497SOL     OW10382   7.760   5.620   3.324 -0.2188 -0.5282 -0.0459
 2497SOL    HW110383   7.708   5.549   3.286  2.0742 -2.1548 -0.4035
 2497SOL    HW210384   7.841   5.577   3.354  0.7416  1.7528  0.9040
 2498SOL     OW10385   5.373   0.082   5.707 -0.4580  0.3778  0.7572
 2498SOL    HW110386   5.349   0.165   5.665 -0.9191 -0.0135  0.2194
 2498SOL    HW210387   5.462   0.064   5.676 -0.7604  0.1373 -0.0182
 2499SOL     OW10388   4.800   0.027   6.351  0.4273  0.6592  0.5915
 2499SOL    HW110389   4.793  -0.058   6.394 -0.4691  0.5347  0.2158
 2499SOL    HW210390   4.894   0.047   6.353  0.8942 -1.0962 -0.7496
 2500SOL     OW10391   6.560   5.430   1.807  0.0768 -0.1154 -0.3763
 2500SOL    HW110392   6.615   5.489   1.756 -1.0276  0.5906 -0.7688
 2500SOL    HW210393   6.473   5.439   1.769 -0.9049  0.8026  1.8961
 2501SOL     OW10394   8.295   7.587   6.114 -0.2255  0.1554  0.4845
 2501SOL    HW110395   8.378   7.634   6.120 -0.5666  0.7285  0.7021
 2501SOL    HW210396   8.268   7.574   6.204 -1.3894  1.7962  0.4180
 2502SOL     OW10397   2.280   8.580   6.888  0.4331 -0.3871  0.2589
 2502SOL    HW110398   2.233   8.559   6.969 -1.4013  0.6065 -0.4895
 2502SOL    HW210399   2.239   8.525   6.822 -0.2909  1.0982 -0.5721
 2503SOL     OW10400   2.467   9.604   8.757 -0.2360 -0.3523 -0.2612
 2503SOL    HW110401   2.503   9.593   8.669 -0.3023 -0.4422 -0.2771
 2503SOL    HW210402   2.391   9.546   8.759 -2.1191  1.9011 -1.1732
 2504SOL     OW10403   4.627   7.128   2.174  0.0864 -0.4937 -0.1229
 2504SOL    HW110404   4.717   7.158   2.190 -0.0200 -0.2632  0.0457
 2504SOL    HW210405   4.608   7.069   2.247 -0.1499  0.0128  0.2355
 2505SOL     OW10406   1.058   9.385   2.678  0.1912 -0.0136  0.3349
 2505SOL    HW110407   0.982   9.405   2.623 -1.3836  1.5384  2.8557
 2505SOL    HW210408   1.028   9.314   2.735  1.4859 -1.0027 -0.1728
 2506SOL     OW10409   3.926   8.976   9.540  0.6326 -0.2815  0.1235
 2506SOL    HW110410   3.899   8.898   9.588  0.2615 -1.1541 -1.4278
 2506SOL    HW210411   3.857   8.991   9.476  1.3903  0.4605 -0.5561
 2507SOL     OW10412   2.380   0.806   7.994 -0.5793  0.1114  0.2649
 2507SOL    HW110413   2.378   0.902   7.984 -1.3657 -0.0539 -1.7834
 2507SOL    HW210414   2.294   0.784   8.030 -0.4429  0.1716  0.6253
 2508SOL     OW10415   3.162   3.072   8.999  0.2895  0.6287 -0.5799
 2508SOL    HW110416   3.153   3.149   9.055 -2.2831 -0.3907  0.5391
 2508SOL    HW210417   3.193   3.003   9.057 -4.4964 -1.0459  0.4712
 2509SOL     OW10418   4.969   8.734   7.993  0.1708 -0.7607 -0.3722
 2509SOL    HW110419   5.015   8.759   8.073 -1.4679 -1.1175  0.7369
 2509SOL    HW210420   4.911   8.808   7.974  0.1043 -0.9351 -0.8856
 2510SOL     OW10421   6.686   7.075   2.228  0.3300 -0.1249 -0.1023
 2510SOL    HW110422   6.709   7.147   2.170  0.0055  1.6058  1.7918
 2510SOL    HW210423   6.770   7.045   2.265  0.4581 -0.7070 -0.8430
 2511SOL     OW10424   8.757   9.198   4.233 -0.0246  0.7821 -0.1611
 2511SOL    HW110425   8.723   9.132   4.174 -0.2186 -0.2374  1.0523
 2511SOL    HW210426   8.724   9.281   4.198 -1.1760  0.0955 -0.7563
 2512SOL     OW10427   4.173   1.064   1.866 -0.2721 -0.2118 -0.0147
 2512SOL    HW110428   4.196   1.103   1.950  0.0315 -0.1574 -0.1238
 2512SOL    HW210429   4.080   1.040   1.876 -0.1851 -0.3883  0.4046
 2513SOL     OW10430   2.336   4.047   3.001  0.2127  0.5898  0.8495
 2513SOL    HW110431   2.241   4.054   3.008 -0.2435  0.7385 -3.3549
 2513SOL    HW210432   2.368   4.132   3.032 -1.2243  1.4202  0.1676
 2514SOL     OW10433   0.627   4.735   9.240  0.1608 -0.9710  0.4682
 2514SOL    HW110434   0.594   4.824   9.226  1.1199 -0.9916 -2.9054
 2514SOL    HW210435   0.693   4.744   9.308 -2.2971  0.1237  2.9440
 2515SOL     OW10436   0.570   4.273   3.171 -0.3350 -0.4819  0.0889
 2515SOL    HW110437   0.599   4.279   3.081 -1.1121 -1.4919 -0.2506
 2515SOL    HW210438   0.641   4.227   3.216  0.5605  1.0232  0.2616
 2516SOL     OW10439   3.210   0.468   9.416  0.1563 -0.4573 -0.0861
 2516SOL    HW110440   3.227   0.464   9.511  1.7833  1.0143 -0.2570
 2516SOL    HW210441   3.281   0.417   9.378  1.1534  1.2382 -0.5981
 2517SOL     OW10442   9.018   3.843   9.307 -0.0199 -0.3865  0.2470
 2517SOL    HW110443   9.037   3.928   9.266 -1.3699 -0.0631  0.2392
 2517SOL    HW210444   8.936   3.858   9.356  0.5544 -1.2676  1.5285
 2518SOL     OW10445   4.409   1.022   7.665  0.0806  0.1076  0.1114
 2518SOL    HW110446   4.372   1.054   7.747 -1.2645  1.1057 -0.8439
 2518SOL    HW210447   4.475   1.087   7.641  0.0394  0.1403  0.0865
 2519SOL     OW10448   1.595   6.117   7.389  0.0481 -0.3086 -0.2146
 2519SOL    HW110449   1.670   6.066   7.420  0.0259  0.2564  0.8137
 2519SOL    HW210450   1.594   6.194   7.445 -1.6804 -0.6122  0.2229
 2520SOL     OW10451   0.961   0.168   0.824  0.1345  0.0785 -0.1468
 2520SOL    HW110452   1.017   0.092   0.809  1.0790  0.8135 -0.4914
 2520SOL    HW210453   0.931   0.193   0.737 -0.2371  0.0635 -0.0262
 2521SOL     OW10454   7.191   5.302   0.860 -0.0361  0.4075  0.3592
 2521SOL    HW110455   7.198   5.246   0.782  2.2814  1.3800 -0.2381
 2521SOL    HW210456   7.163   5.244   0.930  0.2374 -1.0264 -0.6855
 2522SOL     OW10457   7.265   0.958   5.212  0.6351  0.4453  0.3284
 2522SOL    HW110458   7.250   1.048   5.243 -1.1454 -0.2579  1.6717
 2522SOL    HW210459   7.269   0.906   5.292 -1.2167 -1.0523 -0.4869
 2523SOL     OW10460   6.069   0.104   8.598  0.3611 -0.0215 -0.2562
 2523SOL    HW110461   6.106   0.170   8.658  1.0668  1.0605 -1.7979
 2523SOL    HW210462   6.107   0.126   8.513 -0.1621 -1.8590 -1.0110
 2524SOL     OW10463   1.393   4.306   1.822 -0.3490  0.3106 -0.1720
 2524SOL    HW110464   1.333   4.294   1.748 -0.8598  0.1354  0.2704
 2524SOL    HW210465   1.377   4.230   1.878 -0.9376  1.1473  0.8014
 2525SOL     OW10466   5.194   0.450   2.148 -0.6540  0.1053 -0.7672
 2525SOL    HW110467   5.121   0.433   2.088 -1.7014 -1.1770  0.7894
 2525SOL    HW210468   5.268   0.405   2.108 -1.5058 -1.3502 -0.7739
 2526SOL     OW10469   6.996   3.575   4.927  0.5216  0.3626  0.3184
 2526SOL    HW110470   6.949   3.596   4.846  2.0829  1.9692 -0.2351
 2526SOL    HW210471   6.933   3.597   4.997 -0.4206  0.0720 -0.4137
 2527SOL     OW10472   0.061   3.023   6.187  0.0926 -0.5174 -0.7202
 2527SOL    HW110473  -0.024   3.060   6.210  1.2406  0.9081  1.5799
 2527SOL    HW210474   0.068   3.037   6.092 -0.9926  2.2004 -0.4947
 2528SOL     OW10475   7.219   2.714   8.765  0.5959 -1.0405  0.2782
 2528SOL    HW110476   7.150   2.648   8.772  1.0239 -1.4903  0.2091
 2528SOL    HW210477   7.288   2.673   8.714  0.3397 -0.1083 -0.8855
 2529SOL     OW10478   8.912   2.247   1.580  0.5929  0.1808  0.0739
 2529SOL    HW110479   8.942   2.246   1.671 -0.0578 -0.7963  0.2947
 2529SOL    HW210480   8.821   2.278   1.586  0.5440  0.0983 -0.2422
 2530SOL     OW10481   8.749   2.376   4.481 -0.0390 -0.0850  0.1841
 2530SOL    HW110482   8.727   2.283   4.474 -1.9341  0.0469  2.6286
 2530SOL    HW210483   8.839   2.383   4.449  0.5658 -2.9797  0.9679
 2531SOL     OW10484   9.292   9.350   7.723  0.3945 -0.6697 -0.0537
 2531SOL    HW110485   9.211   9.383   7.683 -0.4153 -1.3316  0.9806
 2531SOL    HW210486   9.300   9.261   7.691 -0.0577 -1.0777  0.9423
 2532SOL     OW10487   0.749   8.822   0.143 -0.1848 -0.3348 -0.4834
 2532SOL    HW110488   0.825   8.872   0.175  0.1398 -0.6618 -0.7242
 2532SOL    HW210489   0.734   8.756   0.211 -1.2353  0.6955  0.3124
 2533SOL     OW10490   7.449   7.576   4.276  0.3077  0.3701  0.3594
 2533SOL    HW110491   7.364   7.537   4.293  1.0049 -0.5238  1.9397
 2533SOL    HW210492   7.442   7.611   4.187 -1.7688  0.5368  0.5506
 2534SOL     OW10493   4.063   5.041   7.642  0.1301 -0.3249 -0.1666
 2534SOL    HW110494   4.088   4.949   7.645  0.2430 -0.2785  0.5129
 2534SOL    HW210495   3.993   5.049   7.706  0.8814  0.2785  0.6151
 2535SOL     OW10496   6.968   8.311   3.623  0.3197 -1.0021 -0.1079
 2535SOL    HW110497   6.927   8.314   3.536 -0.4682 -0.5344  0.2672
 2535SOL    HW210498   6.982   8.403   3.645 -0.2308 -1.0792  0.5958
 2536SOL     OW10499   6.765   6.166   9.465 -0.2212  0.4651  0.6197
 2536SOL    HW110500   6.781   6.100   9.397 -1.1512  1.7258 -0.9017
 2536SOL    HW210501   6.839   6.226   9.458 -0.6976  1.0150  0.1707
 2537SOL     OW10502   6.607   3.187   3.912 -0.4238 -0.2677  0.3851
 2537SOL    HW110503   6.547   3.250   3.871 -0.5550 -0.2467  0.6067
 2537SOL    HW210504   6.599   3.205   4.005  0.8370  0.5740  0.3587
 2538SOL     OW10505   9.487   0.521   6.460  0.2487  0.0289 -0.1914
 2538SOL    HW110506   9.544   0.538   6.385  0.7324  2.9643  0.7153
 2538SOL    HW210507   9.543   0.539   6.536 -0.8353 -0.7898  0.8288
 2539SOL     OW10508   7.346   0.484   7.719  0.5308  0.4877  0.2966
 2539SOL    HW110509   7.258   0.461   7.688  1.3209 -1.6334 -0.5757
 2539SOL    HW210510   7.340   0.577   7.741 -1.6099  0.6983 -0.8653
 2540SOL     OW10511   1.628   2.795   5.761 -0.5601  0.5159 -0.1074
 2540SOL    HW110512   1.628   2.701   5.743 -3.1210  0.7716 -2.0364
 2540SOL    HW210513   1.717   2.824   5.741  0.1485 -1.3945  0.1107
 2541SOL     OW10514   3.256   9.410   4.843 -0.3128 -0.4906 -0.2868
 2541SOL    HW110515   3.330   9.358   4.813 -0.8550 -2.2786  1.2580
 2541SOL    HW210516   3.190   9.402   4.774  0.2301 -0.4969 -0.8028
 2542SOL     OW10517   3.343   4.604   1.269 -0.0962  0.0416  0.1789
 2542SOL    HW110518   3.420   4.579   1.218 -0.5996  0.0599 -0.6183
 2542SOL    HW210519   3.362   4.575   1.358  1.8802  2.2427  0.5620
 2543SOL     OW10520   4.318   0.408   8.420 -0.0118  0.1298 -0.2224
 2543SOL    HW110521   4.250   0.470   8.392 -0.8291  0.2672  1.9008
 2543SOL    HW210522   4.296   0.388   8.511  2.1139 -0.7769  0.1409
 2544SOL     OW10523   3.804   0.100   8.923  0.1568  0.4847  0.5759
 2544SOL    HW110524   3.848   0.016   8.908 -2.5716 -0.6869 -1.6151
 2544SOL    HW210525   3.829   0.123   9.013  2.0963 -1.9470  0.7884
 2545SOL     OW10526   9.088   3.594   9.640  0.1710 -0.3163 -0.5606
 2545SOL    HW110527   9.019   3.660   9.644 -2.3719 -2.7926 -0.9402
 2545SOL    HW210528   9.089   3.565   9.549 -0.0232 -2.0136 -0.0532
 2546SOL     OW10529   7.809   1.408   2.200 -0.2194 -0.1302 -0.1393
 2546SOL    HW110530   7.886   1.436   2.249 -0.0497  0.2110 -0.5944
 2546SOL    HW210531   7.803   1.314   2.217  1.7301 -0.6687 -2.0355
 2547SOL     OW10532   5.623   4.113   6.903  0.5288 -0.0575  0.2076
 2547SOL    HW110533   5.532   4.095   6.879  0.7226 -0.1306 -0.4797
 2547SOL    HW210534   5.629   4.086   6.995  0.0584 -0.7548  0.0387
 2548SOL     OW10535   7.540   9.356   3.934  0.1151  0.7946 -0.7712
 2548SOL    HW110536   7.579   9.343   4.021 -0.1379  3.9111 -0.0877
 2548SOL    HW210537   7.479   9.283   3.925  0.9581 -0.2454  1.1561
 2549SOL     OW10538   0.714   8.525   7.222  0.6485 -0.1052  0.4477
 2549SOL    HW110539   0.626   8.523   7.260 -0.4754  0.4831 -1.9307
 2549SOL    HW210540   0.712   8.457   7.154  1.3351  1.2634 -0.9938
 2550SOL     OW10541   3.452   8.342   0.046  0.0070 -0.4925 -0.1756
 2550SOL    HW110542   3.512   8.274   0.015  0.3137  0.4013 -1.6485
 2550SOL    HW210543   3.418   8.382  -0.034 -1.2296  0.1762  0.6533
 2551SOL     OW10544   1.024   5.068   8.119 -0.2383  0.3004  0.6885
 2551SOL    HW110545   1.041   4.998   8.182  0.2340 -1.7071 -1.5085
 2551SOL    HW210546   0.933   5.093   8.134 -0.8050 -1.6692  0.7611
 2552SOL     OW10547   3.001   1.084   0.154 -0.6730  0.2813  0.2026
 2552SOL    HW110548   2.912   1.102   0.181 -1.0937 -1.4601  0.1176
 2552SOL    HW210549   3.033   1.020   0.217  0.6647  1.1624  0.4562
 2553SOL     OW10550   3.632   5.382   7.857  0.2218  0.5341  0.2329
 2553SOL    HW110551   3.685   5.452   7.895  1.0016  0.0326  0.0715
 2553SOL    HW210552   3.544   5.420   7.852  0.5405  1.3467  0.5618
 2554SOL     OW10553   4.255   7.276   7.348 -0.3365 -0.0118 -0.0705
 2554SOL    HW110554   4.311   7.220   7.402  0.7685  0.3197 -0.8478
 2554SOL    HW210555   4.247   7.357   7.398  2.8831  1.3444 -1.4658
 2555SOL     OW10556   6.419   8.413   6.782  0.1336  0.1063 -0.1810
 2555SOL    HW110557   6.477   8.372   6.718  1.6578  1.1875  0.4523
 2555SOL    HW210558   6.444   8.505   6.783  0.8740 -0.0262  2.6318
 2556SOL     OW10559   3.890   4.566   4.219 -0.2232  0.1604 -0.0194
 2556SOL    HW110560   3.967   4.609   4.256  1.2680 -1.1451 -1.4500
 2556SOL    HW210561   3.828   4.561   4.291  0.6821  2.0066  0.9587
 2557SOL     OW10562   6.905   5.906   0.266 -0.0882 -0.0349  0.2271
 2557SOL    HW110563   6.855   5.981   0.299 -1.3864 -0.3573 -0.8773
 2557SOL    HW210564   6.964   5.944   0.201  0.2734  0.2043  0.6909
 2558SOL     OW10565   4.603   5.664   3.454 -0.1531  0.6903 -0.6760
 2558SOL    HW110566   4.561   5.745   3.425  0.3945  0.5298 -1.9781
 2558SOL    HW210567   4.646   5.630   3.376 -0.4297 -0.9028 -0.1680
 2559SOL     OW10568   4.269   3.971   7.317 -0.0560  0.6451  0.1010
 2559SOL    HW110569   4.346   4.025   7.300  0.3573 -0.0944 -0.4514
 2559SOL    HW210570   4.199   4.014   7.268  0.8341 -0.7241 -2.5738
 2560SOL     OW10571   1.882   8.751   4.231 -1.0155  0.0536  0.1918
 2560SOL    HW110572   1.946   8.758   4.160 -1.8160 -0.7477 -0.6402
 2560SOL    HW210573   1.814   8.814   4.208 -1.8227 -0.9910 -0.3757
 2561SOL     OW10574   1.353   4.560   4.270  0.3040 -0.0600  0.5601
 2561SOL    HW110575   1.387   4.471   4.280  0.2304 -0.5031 -2.3759
 2561SOL    HW210576   1.262   4.554   4.298  0.4173 -0.7814  0.8177
 2562SOL     OW10577   0.128   1.096   9.292 -0.0396  0.3216  0.0446
 2562SOL    HW110578   0.142   1.028   9.227  1.3380  1.6652 -1.1450
 2562SOL    HW210579   0.209   1.147   9.292 -0.2456  0.7809  2.3577
 2563SOL     OW10580   4.412   7.808   4.591  0.2096 -0.3009 -0.0890
 2563SOL    HW110581   4.354   7.850   4.527 -0.3610  1.5552  1.5483
 2563SOL    HW210582   4.360   7.804   4.671  1.9468  0.4186  1.1390
 2564SOL     OW10583   4.796   4.828   1.416  0.0760 -0.0462 -0.3800
 2564SOL    HW110584   4.728   4.819   1.349  1.4353  0.0697 -1.8267
 2564SOL    HW210585   4.826   4.739   1.433  0.1660 -0.0195 -0.3964
 2565SOL     OW10586   2.593   2.389   8.912  0.0238 -0.3507  0.4310
 2565SOL    HW110587   2.582   2.437   8.830 -0.4601 -1.3580 -0.1002
 2565SOL    HW210588   2.555   2.447   8.979 -1.6966 -0.4912 -0.3653
 2566SOL     OW10589   6.637   0.125   1.634  0.4435 -0.1716  0.1467
 2566SOL    HW110590   6.583   0.123   1.713  0.6702 -1.0579  0.2941
 2566SOL    HW210591   6.603   0.053   1.581  0.1604  0.5397 -0.6658
 2567SOL     OW10592   7.520   2.674   7.583  0.4035 -0.3675  0.3639
 2567SOL    HW110593   7.569   2.600   7.545 -0.4567 -0.3885 -0.7255
 2567SOL    HW210594   7.530   2.662   7.678  2.6947 -0.2380  0.1989
 2568SOL     OW10595   6.005   0.951   4.338 -0.1579 -1.0236 -0.7042
 2568SOL    HW110596   6.056   0.907   4.269  0.9510  0.6790 -1.0316
 2568SOL    HW210597   6.064   0.953   4.413  1.0849  2.4558 -1.5780
 2569SOL     OW10598   5.810   9.043   2.378  0.4705 -0.0276  0.1015
 2569SOL    HW110599   5.825   8.960   2.423 -1.4414  0.0394  0.9255
 2569SOL    HW210600   5.767   9.099   2.442  0.6995  1.2283 -0.7898
 2570SOL     OW10601   0.231   4.671   1.376  0.3199  0.2742 -0.3849
 2570SOL    HW110602   0.152   4.704   1.333  0.2605 -0.6240 -1.0068
 2570SOL    HW210603   0.293   4.744   1.374 -0.6531  1.1495  0.5575
 2571SOL     OW10604   4.475   6.730   4.082  0.1731 -0.2052  0.3827
 2571SOL    HW110605   4.388   6.736   4.123  0.2358 -1.1342  0.6683
 2571SOL    HW210606   4.516   6.814   4.101 -1.0366  0.6648 -0.6330
 2572SOL     OW10607   2.069   3.917   6.671 -0.0727 -0.1908 -0.5368
 2572SOL    HW110608   2.139   3.902   6.733  0.7553 -0.3671 -1.4827
 2572SOL    HW210609   2.013   3.840   6.677 -0.1320 -0.1001  0.1388
 2573SOL     OW10610   9.410   0.902   8.602 -0.4421  0.3635  0.4698
 2573SOL    HW110611   9.496   0.933   8.632 -1.0612  0.4990  2.1972
 2573SOL    HW210612   9.349   0.972   8.628 -1.0207  0.6092 -1.3706
 2574SOL     OW10613   5.985   4.324   5.300  0.0559  0.4733  0.1047
 2574SOL    HW110614   5.918   4.257   5.286  0.2951  0.3804 -0.6109
 2574SOL    HW210615   6.065   4.286   5.265  0.6269  0.3397  1.4951
 2575SOL     OW10616   5.643   7.020   8.019  0.2795  0.3253  0.5263
 2575SOL    HW110617   5.576   7.088   8.025  0.0766  0.2562 -0.6162
 2575SOL    HW210618   5.714   7.060   7.969  0.3011 -0.1831  0.1364
 2576SOL     OW10619   1.911   5.458   0.733  0.1288  0.1327 -0.3533
 2576SOL    HW110620   1.999   5.495   0.734  0.8384 -1.4769  0.5715
 2576SOL    HW210621   1.907   5.406   0.653  0.3691 -0.5357  0.0580
 2577SOL     OW10622   6.090   8.791   1.092  0.1590 -0.2608  0.3766
 2577SOL    HW110623   6.012   8.840   1.116 -0.0062 -0.1772 -0.3042
 2577SOL    HW210624   6.163   8.843   1.125  0.0035  0.6547 -0.6494
 2578SOL     OW10625   7.468   5.688   0.330 -0.4606 -0.7746 -0.0245
 2578SOL    HW110626   7.483   5.714   0.239  2.9653 -1.1026  0.2953
 2578SOL    HW210627   7.428   5.765   0.371  1.1444  0.7170 -1.1046
 2579SOL     OW10628   5.011   8.962   9.237  0.1701  0.1369 -0.5008
 2579SOL    HW110629   4.983   8.976   9.147  1.5726  0.4855 -0.9063
 2579SOL    HW210630   5.062   8.881   9.234 -1.0269 -0.6796  0.2871
 2580SOL     OW10631   6.418   6.188   4.761  0.0023 -0.8817 -0.1387
 2580SOL    HW110632   6.502   6.175   4.804  0.5986  0.1091 -0.9616
 2580SOL    HW210633   6.355   6.140   4.816  1.1756 -2.1550  0.1337
 2581SOL     OW10634   6.565   7.054   8.124  0.0544 -0.3688 -0.4914
 2581SOL    HW110635   6.520   7.105   8.192  3.0187 -1.3514  2.4881
 2581SOL    HW210636   6.595   7.120   8.061 -1.5377  0.7752 -0.1129
 2582SOL     OW10637   4.721   6.135   7.058 -0.1991  0.0776 -0.1645
 2582SOL    HW110638   4.775   6.201   7.101  1.4635 -0.3965 -1.4218
 2582SOL    HW210639   4.655   6.185   7.010 -1.2659  0.6475  1.7893
 2583SOL     OW10640   1.158   9.552   5.304 -0.1697 -0.4396  0.3643
 2583SOL    HW110641   1.181   9.641   5.278 -0.6996 -0.7079 -1.1601
 2583SOL    HW210642   1.223   9.497   5.259 -0.2272 -0.8582  0.7911
 2584SOL     OW10643   8.401   4.290   8.403 -0.1276 -0.1906  0.6429
 2584SOL    HW110644   8.470   4.341   8.444 -1.0563  0.2659  1.6934
 2584SOL    HW210645   8.356   4.352   8.345  0.8361 -0.6963 -0.7095
 2585SOL     OW10646   4.085   4.122   3.139 -0.0389  0.4553 -0.0716
 2585SOL    HW110647   4.165   4.092   3.181  1.0626  1.1704 -1.5791
 2585SOL    HW210648   4.023   4.135   3.211  1.3954  0.4999  1.1874
 2586SOL     OW10649   5.943   3.903   8.388 -0.4596 -0.0412  0.0577
 2586SOL    HW110650   5.896   3.983   8.409  1.6040  1.0646  0.7727
 2586SOL    HW210651   5.958   3.861   8.473 -1.6522 -1.3064 -0.3220
 2587SOL     OW10652   7.073   5.015   3.480 -0.1587 -0.7182 -0.0926
 2587SOL    HW110653   7.068   4.980   3.391  1.8156 -2.1717  0.3101
 2587SOL    HW210654   6.985   5.002   3.515 -0.5137 -1.6866 -1.2598
 2588SOL     OW10655   0.948   5.036   2.887 -0.1139 -0.3372  0.1031
 2588SOL    HW110656   1.032   5.076   2.908 -0.7197  0.4069  1.2181
 2588SOL    HW210657   0.883   5.094   2.927 -1.3094  0.3402 -2.5798
 2589SOL     OW10658   5.007   3.138   1.090  0.1854  0.0826 -0.0250
 2589SOL    HW110659   5.009   3.107   1.000  0.4241 -0.9851  0.3320
 2589SOL    HW210660   5.003   3.233   1.083 -2.2629 -0.0176 -1.2012
 2590SOL     OW10661   2.435   7.260   4.218 -0.1195 -0.1933 -0.0208
 2590SOL    HW110662   2.425   7.316   4.141 -3.0914  0.2406  0.5718
 2590SOL    HW210663   2.530   7.250   4.228  0.4878  2.8962 -1.4697
 2591SOL     OW10664   8.008   0.398   2.327  0.2156 -0.4962 -0.0122
 2591SOL    HW110665   8.016   0.361   2.414 -0.9744  1.2464  0.8868
 2591SOL    HW210666   7.926   0.447   2.328  0.6073  0.2953 -1.8190
 2592SOL     OW10667   2.586   1.451   8.531 -0.1483  0.3645 -0.1672
 2592SOL    HW110668   2.659   1.492   8.579 -1.2450  1.2592  0.7827
 2592SOL    HW210669   2.542   1.397   8.597 -0.4215 -0.0805 -0.7080
 2593SOL     OW10670   0.033   8.412   0.257 -0.0326 -0.1748 -0.3337
 2593SOL    HW110671   0.099   8.385   0.194  1.3601  0.5458  0.7706
 2593SOL    HW210672   0.011   8.332   0.306  0.4689 -0.3033 -0.3163
 2594SOL     OW10673   9.550   9.412   7.077  0.1943 -0.1323  0.5048
 2594SOL    HW110674   9.641   9.438   7.084  0.9753 -2.0476 -1.2465
 2594SOL    HW210675   9.543   9.374   6.989 -2.2627 -0.1267  0.6261
 2595SOL     OW10676   6.263   4.891   1.497 -0.1396  0.5448 -0.5059
 2595SOL    HW110677   6.271   4.920   1.588  2.2035 -2.5944  0.4544
 2595SOL    HW210678   6.240   4.971   1.449  0.7536  2.8248  2.5177
 2596SOL     OW10679   8.013   1.175   8.651 -0.4188  0.0543 -0.4804
 2596SOL    HW110680   8.006   1.191   8.745  0.2443  0.2231 -0.4526
 2596SOL    HW210681   8.085   1.112   8.642 -0.4208  0.1030 -0.8782
 2597SOL     OW10682   2.951   2.411   3.864  0.2438  0.2975  0.3198
 2597SOL    HW110683   2.876   2.423   3.806  0.0457  0.1250  0.5373
 2597SOL    HW210684   3.026   2.410   3.805  0.1828  1.5205  0.1897
 2598SOL     OW10685   5.323   2.278   9.496 -0.1778 -0.4429  0.0843
 2598SOL    HW110686   5.404   2.320   9.467 -0.3607  0.4098  0.7659
 2598SOL    HW210687   5.254   2.321   9.447 -0.1874 -1.5931 -0.9478
 2599SOL     OW10688   2.452   9.153   8.140 -0.1095  0.0486  0.2075
 2599SOL    HW110689   2.471   9.195   8.224 -1.9580  0.5142  0.4415
 2599SOL    HW210690   2.521   9.088   8.129 -0.5118 -0.9163  2.7203
 2600SOL     OW10691   6.137   6.879   7.792 -0.2452  0.1311  0.2074
 2600SOL    HW110692   6.054   6.836   7.812  0.5292 -0.9308  1.2991
 2600SOL    HW210693   6.119   6.972   7.799 -1.2929 -0.0974  0.6187
 2601SOL     OW10694   7.445   1.866   5.749 -0.5513 -0.3716  0.1105
 2601SOL    HW110695   7.354   1.837   5.737 -1.0766  0.8873  0.8594
 2601SOL    HW210696   7.459   1.929   5.679  0.1405 -1.3634 -0.6783
 2602SOL     OW10697   6.700   4.712   3.853  0.3448 -0.7623  0.3848
 2602SOL    HW110698   6.619   4.721   3.802  0.3390 -1.8293  0.1783
 2602SOL    HW210699   6.673   4.663   3.931  0.5017  0.2164  1.0728
 2603SOL     OW10700   5.435   6.138   2.293 -0.0092 -0.7162 -0.1100
 2603SOL    HW110701   5.390   6.083   2.358  0.5241  0.0314  0.9178
 2603SOL    HW210702   5.371   6.206   2.271 -0.8933 -2.0067 -1.8268
 2604SOL     OW10703   3.002   7.732   1.672  0.2104  0.0709 -0.9994
 2604SOL    HW110704   3.068   7.689   1.726 -1.5531 -2.6470 -0.8609
 2604SOL    HW210705   2.984   7.815   1.717  1.6076 -0.3191  0.3547
 2605SOL     OW10706   1.099   8.278   4.183 -0.3186 -0.2186  0.2145
 2605SOL    HW110707   1.124   8.370   4.187  2.4590 -0.8221 -0.7092
 2605SOL    HW210708   1.058   8.260   4.268 -0.6147  1.7737  0.5319
 2606SOL     OW10709   4.119   4.791   8.245 -0.2007  0.1782  0.0365
 2606SOL    HW110710   4.119   4.885   8.263 -0.8693  0.0697  0.6536
 2606SOL    HW210711   4.167   4.753   8.319 -1.3432 -0.1071  0.6446
 2607SOL     OW10712   2.340   1.727   6.315  0.7539 -0.2166  0.4762
 2607SOL    HW110713   2.325   1.819   6.339 -1.5941 -0.2304 -0.5876
 2607SOL    HW210714   2.343   1.681   6.399  0.0620  0.6135  0.9761
 2608SOL     OW10715   5.598   1.298   4.892 -0.3707  0.0488  0.6881
 2608SOL    HW110716   5.531   1.366   4.890  0.4882  0.9468 -2.1351
 2608SOL    HW210717   5.550   1.216   4.884 -1.2012  0.7227 -2.2423
 2609SOL     OW10718   2.763   2.361   2.014  0.0080 -0.3161  0.2305
 2609SOL    HW110719   2.706   2.434   2.038  0.1621  0.2284 -0.9711
 2609SOL    HW210720   2.848   2.383   2.052 -0.1763 -0.3545  0.6788
 2610SOL     OW10721   4.138   4.024   2.890  0.0954 -0.5732  0.7231
 2610SOL    HW110722   4.120   4.076   2.969 -0.7882 -0.3653  0.3953
 2610SOL    HW210723   4.182   3.946   2.923 -0.0013 -0.3529  1.3953
 2611SOL     OW10724   4.204   2.331   9.508  0.1921 -0.0494  0.0762
 2611SOL    HW110725   4.228   2.398   9.443  0.9838  0.9659  1.3690
 2611SOL    HW210726   4.222   2.372   9.592  0.8603 -1.9646  0.9197
 2612SOL     OW10727   5.733   1.745   5.148 -0.4581 -0.4495 -0.3142
 2612SOL    HW110728   5.817   1.786   5.170 -1.0396  0.1006  1.0146
 2612SOL    HW210729   5.749   1.700   5.065  1.7991 -2.2479  0.9781
 2613SOL     OW10730   3.070   0.766   2.940 -0.4097  0.2882  0.0881
 2613SOL    HW110731   3.107   0.724   3.018  1.0996  0.6059 -0.4183
 2613SOL    HW210732   3.043   0.694   2.884  1.8291 -0.0662 -0.6168
 2614SOL     OW10733   0.191   9.497   5.018  0.1463 -0.0141  0.4635
 2614SOL    HW110734   0.164   9.555   5.089 -0.4569  1.4164 -0.8823
 2614SOL    HW210735   0.109   9.460   4.985  0.4575 -0.9797  0.7435
 2615SOL     OW10736   9.207   0.432   2.345  0.0737  0.2411 -0.1582
 2615SOL    HW110737   9.245   0.351   2.379 -0.3806 -0.0874 -0.4294
 2615SOL    HW210738   9.249   0.502   2.396 -0.5477 -0.2385  1.0386
 2616SOL     OW10739   7.448   1.074   7.727  0.0239 -0.5801  0.1647
 2616SOL    HW110740   7.466   1.155   7.679  0.5434 -0.5250  0.4440
 2616SOL    HW210741   7.373   1.036   7.682  0.4164 -0.4621 -0.6189
 2617SOL     OW10742   3.857   5.328   4.217 -0.9888 -0.3700  0.2141
 2617SOL    HW110743   3.829   5.373   4.138  1.0421 -0.1275 -0.4280
 2617SOL    HW210744   3.794   5.355   4.284 -0.2291  3.0087 -0.2755
 2618SOL     OW10745   2.969   4.277   4.489  0.1462 -0.2122  0.2036
 2618SOL    HW110746   2.956   4.183   4.477 -1.2405  0.0651 -0.6446
 2618SOL    HW210747   2.957   4.314   4.402  1.0213  0.7303  0.4709
 2619SOL     OW10748   4.531   2.355   9.497  0.8898  0.1511  0.1130
 2619SOL    HW110749   4.515   2.261   9.489 -1.1415  0.2405  2.1214
 2619SOL    HW210750   4.505   2.391   9.412 -2.9388 -0.6743  0.7409
 2620SOL     OW10751   7.970   6.113   2.869  0.2123  0.0152 -0.4314
 2620SOL    HW110752   8.038   6.063   2.823  0.7388 -0.2309  0.5832
 2620SOL    HW210753   8.018   6.161   2.936 -0.3875  1.3169 -0.9094
 2621SOL     OW10754   9.102   1.983   1.386  0.0638  0.2848  0.7516
 2621SOL    HW110755   9.056   2.060   1.356 -0.7652 -0.5868 -0.2817
 2621SOL    HW210756   9.159   1.959   1.313  0.0836 -0.2544  0.9396
 2622SOL     OW10757   9.460   2.793   8.814 -0.4369 -0.2864 -0.0631
 2622SOL    HW110758   9.385   2.841   8.780  1.1193  0.3347 -2.9778
 2622SOL    HW210759   9.449   2.704   8.781  0.1504 -0.1379 -0.7065
 2623SOL     OW10760   1.349   7.274   2.410 -0.2081 -0.2040 -0.7529
 2623SOL    HW110761   1.400   7.315   2.340  0.0489 -2.5965 -2.0486
 2623SOL    HW210762   1.286   7.342   2.435  0.1975  1.0113 -2.7475
 2624SOL     OW10763   3.921   3.231   2.663  0.0323  0.3319 -0.1158
 2624SOL    HW110764   3.857   3.188   2.606  1.1242  0.9570 -1.8879
 2624SOL    HW210765   3.931   3.170   2.737 -1.0395 -0.7690 -0.8276
 2625SOL     OW10766   3.949   9.470   6.870  0.2982  0.2290  0.2938
 2625SOL    HW110767   4.021   9.531   6.855  0.2845  0.2975  0.5067
 2625SOL    HW210768   3.906   9.462   6.785  0.8482 -0.1818  0.0533
 2626SOL     OW10769   8.989   5.333   0.716 -0.2849 -0.0765  0.0957
 2626SOL    HW110770   8.969   5.278   0.792  0.1033 -0.1667  0.1355
 2626SOL    HW210771   9.075   5.370   0.735 -0.3644  0.2190 -0.1199
 2627SOL     OW10772   7.813   8.881   5.253  0.4345 -0.0342 -0.5781
 2627SOL    HW110773   7.811   8.799   5.302  0.6100  0.1328 -0.2862
 2627SOL    HW210774   7.733   8.879   5.200  0.2825 -0.2551 -0.3464
 2628SOL     OW10775   1.398   5.103   5.332 -0.3978 -0.1135  0.4562
 2628SOL    HW110776   1.454   5.171   5.293 -0.2553 -0.6571 -0.3054
 2628SOL    HW210777   1.328   5.090   5.268 -0.3686 -0.7573  0.5509
 2629SOL     OW10778   0.613   3.853   2.544 -0.4138 -0.2435 -0.5823
 2629SOL    HW110779   0.645   3.924   2.599 -0.0566  0.0251 -1.1371
 2629SOL    HW210780   0.629   3.881   2.454 -2.5814  0.1039 -0.9285
 2630SOL     OW10781   8.241   2.583   8.835 -0.4130 -0.0110  0.5177
 2630SOL    HW110782   8.336   2.594   8.844  0.1046 -3.4707  0.4875
 2630SOL    HW210783   8.219   2.633   8.756  0.9416  2.5355  1.6357
 2631SOL     OW10784   2.449   1.389   8.009  0.3176  0.6422 -0.2641
 2631SOL    HW110785   2.398   1.444   7.950 -0.0484  0.1945 -0.3623
 2631SOL    HW210786   2.406   1.399   8.094  0.9314  1.4028 -0.0320
 2632SOL     OW10787   5.402   9.610   6.567  0.5965 -0.2096 -0.3321
 2632SOL    HW110788   5.427   9.664   6.492  0.9010  1.9258  1.2286
 2632SOL    HW210789   5.483   9.570   6.596  0.3901 -1.4927 -1.4165
 2633SOL     OW10790   9.604   0.898   3.692 -0.4812  0.3266  0.0434
 2633SOL    HW110791   9.663   0.964   3.730  1.0357 -1.1136  0.3315
 2633SOL    HW210792   9.606   0.914   3.598 -0.3172  0.8407  0.1342
 2634SOL     OW10793   3.748   9.611   1.354 -0.3683 -0.0447  0.7764
 2634SOL    HW110794   3.681   9.569   1.300  1.5790 -1.5322 -0.6195
 2634SOL    HW210795   3.744   9.704   1.332 -0.0367 -0.5318 -1.5125
 2635SOL     OW10796   8.311   6.361   9.275 -0.4470  0.7549 -0.4321
 2635SOL    HW110797   8.247   6.290   9.270  2.2513 -2.1691  2.0245
 2635SOL    HW210798   8.274   6.422   9.339 -1.1033 -0.5611  0.4963
 2636SOL     OW10799   8.535   8.448   0.378  0.1186  0.6761 -0.0055
 2636SOL    HW110800   8.489   8.512   0.323 -0.5034  1.7170  1.6715
 2636SOL    HW210801   8.489   8.451   0.462  0.5401 -1.4623  0.3593
 2637SOL     OW10802   7.978   5.596   7.252  0.2582 -0.2240 -0.0858
 2637SOL    HW110803   8.064   5.636   7.248 -1.0131  2.7178 -0.9805
 2637SOL    HW210804   7.984   5.519   7.196  2.5185 -0.6602  0.6778
 2638SOL     OW10805   4.008   6.333   3.651 -0.1240 -0.1891  0.1405
 2638SOL    HW110806   4.009   6.403   3.585  0.6004  0.0024  0.3436
 2638SOL    HW210807   4.083   6.353   3.708 -0.2564 -0.8090  0.5389
 2639SOL     OW10808   5.961   6.678   7.616  0.2448 -0.2793 -0.5586
 2639SOL    HW110809   5.909   6.736   7.673 -2.2749 -2.7278 -0.1012
 2639SOL    HW210810   6.001   6.737   7.552 -2.5658  1.9471 -0.4883
 2640SOL     OW10811   6.229   1.870   1.979  0.0449  0.0875  0.0200
 2640SOL    HW110812   6.275   1.863   1.895 -2.6100  0.0431 -1.5560
 2640SOL    HW210813   6.253   1.957   2.012 -0.7707  1.1742 -2.0798
 2641SOL     OW10814   8.161   0.719   8.994  0.3937  0.0237  0.4031
 2641SOL    HW110815   8.144   0.800   9.042 -2.8526  0.4517 -1.1698
 2641SOL    HW210816   8.121   0.733   8.908  2.1447 -2.2932 -0.9204
 2642SOL     OW10817   3.590   5.715   6.052 -0.0168  0.3405  0.1085
 2642SOL    HW110818   3.614   5.689   6.140 -0.6299  0.3577  0.2874
 2642SOL    HW210819   3.519   5.655   6.027 -0.1809  0.6457 -0.1807
 2643SOL     OW10820   8.855   0.248   8.219  0.5293 -0.2234 -0.3645
 2643SOL    HW110821   8.812   0.176   8.172  1.5251 -1.5030  0.6207
 2643SOL    HW210822   8.946   0.222   8.226  0.9084  1.1187  0.0931
 2644SOL     OW10823   1.174   9.426   1.156  0.4686 -0.5642 -0.3193
 2644SOL    HW110824   1.142   9.376   1.080 -0.7167  0.2757 -0.3921
 2644SOL    HW210825   1.096   9.472   1.189  1.3625  0.5832  0.2463
 2645SOL     OW10826   3.022   9.502   5.034  1.0889  0.8769  0.0715
 2645SOL    HW110827   3.113   9.522   5.015  1.2847 -0.4741 -0.5549
 2645SOL    HW210828   3.024   9.450   5.115  1.0278 -0.2722 -0.6395
 2646SOL     OW10829   8.140   6.628   1.893 -0.1516  0.2476 -1.3350
 2646SOL    HW110830   8.183   6.591   1.970 -0.6517  0.2962 -1.0302
 2646SOL    HW210831   8.205   6.688   1.856 -0.5547  1.6272  0.1034
 2647SOL     OW10832   7.426   3.148   0.557 -0.3488  0.1611 -0.1775
 2647SOL    HW110833   7.487   3.170   0.627  0.6322 -1.4950 -0.4722
 2647SOL    HW210834   7.425   3.052   0.554 -1.4220  0.1799 -1.5200
 2648SOL     OW10835   5.213   3.251   9.592 -0.3301  0.2292  0.4399
 2648SOL    HW110836   5.194   3.242   9.685  0.5479  1.4269  0.7639
 2648SOL    HW210837   5.228   3.162   9.561  2.1988 -0.0248  2.0892
 2649SOL     OW10838   0.672   5.446   0.922  0.3665  0.1246 -0.0291
 2649SOL    HW110839   0.669   5.447   0.826  2.0428  1.5052 -0.1238
 2649SOL    HW210840   0.726   5.370   0.944 -0.9474 -0.8587 -0.0963
 2650SOL     OW10841   7.158   8.013   5.751 -0.4698 -0.4018  0.0210
 2650SOL    HW110842   7.186   7.926   5.724  0.0693  0.1271 -1.2040
 2650SOL    HW210843   7.236   8.054   5.787 -0.6788 -0.3629  0.4368
 2651SOL     OW10844   9.298   4.036   7.648  0.4110  1.2276  0.2339
 2651SOL    HW110845   9.318   4.094   7.574  1.3386  3.0730  1.8575
 2651SOL    HW210846   9.381   4.025   7.693 -0.0228 -0.3398  0.7183
 2652SOL     OW10847   1.828   8.352   7.010  0.1883  0.5467  0.4797
 2652SOL    HW110848   1.781   8.388   6.935  2.1212  0.7963 -0.6910
 2652SOL    HW210849   1.871   8.273   6.976  0.7434  0.4198  1.4393
 2653SOL     OW10850   1.453   3.565   9.599  0.2662 -0.2226  0.1580
 2653SOL    HW110851   1.533   3.522   9.630  1.0779 -0.7416 -2.4254
 2653SOL    HW210852   1.383   3.504   9.623  0.8423 -0.6441  0.8313
 2654SOL     OW10853   4.346   5.115   1.955 -0.7130  0.2622 -0.2198
 2654SOL    HW110854   4.323   5.086   1.867  0.9561 -0.2081 -0.5349
 2654SOL    HW210855   4.414   5.181   1.942 -1.3093  1.0784  0.6815
 2655SOL     OW10856   9.031   9.402   1.238 -0.5243 -0.6907  0.1988
 2655SOL    HW110857   9.074   9.316   1.243 -0.2610 -0.5119  3.9812
 2655SOL    HW210858   9.087   9.453   1.179  0.1644 -2.6145 -0.9458
 2656SOL     OW10859   4.878   5.671   0.937  0.0535  0.1071 -0.1231
 2656SOL    HW110860   4.962   5.626   0.940 -1.0930 -2.1174  0.2711
 2656SOL    HW210861   4.822   5.620   0.995 -1.6441  1.4148 -0.5509
 2657SOL     OW10862   7.652   9.437   8.478 -0.2956  0.3001  0.3636
 2657SOL    HW110863   7.670   9.404   8.390 -1.5184  1.6326 -0.4243
 2657SOL    HW210864   7.716   9.392   8.534  2.9827  2.0182 -1.6778
 2658SOL     OW10865   2.177   8.194   1.787  0.2097  0.3130 -0.2015
 2658SOL    HW110866   2.114   8.265   1.798 -0.8499 -0.3544 -1.6246
 2658SOL    HW210867   2.225   8.215   1.707  0.8072  0.0800  0.0849
 2659SOL     OW10868   0.886   4.069   3.926  0.4492 -0.1392 -0.2453
 2659SOL    HW110869   0.890   4.041   3.834  0.8596 -0.1904 -0.2136
 2659SOL    HW210870   0.964   4.123   3.937 -0.6266  1.5260 -0.4739
 2660SOL     OW10871   6.924   4.757   7.359  0.2953 -0.3687 -0.3184
 2660SOL    HW110872   6.993   4.760   7.293 -1.3362  0.8202 -2.0907
 2660SOL    HW210873   6.889   4.668   7.354  1.5605 -0.9336  0.4993
 2661SOL     OW10874   5.783   3.609   7.736 -0.0427 -0.4644  0.1884
 2661SOL    HW110875   5.755   3.696   7.766 -0.3327 -0.1636 -0.8928
 2661SOL    HW210876   5.839   3.627   7.660  1.2103 -1.1684  0.9070
 2662SOL     OW10877   9.080   0.792   5.521 -0.4060  0.4124  0.1333
 2662SOL    HW110878   9.063   0.753   5.435 -0.6839  1.0570 -0.1152
 2662SOL    HW210879   9.098   0.884   5.502  1.6378  0.1537  0.5683
 2663SOL     OW10880   5.217   2.964   9.560  0.1077  0.2039  0.3467
 2663SOL    HW110881   5.281   2.934   9.495  0.2829 -0.8521  0.9867
 2663SOL    HW210882   5.132   2.941   9.523  0.1222  0.9650 -0.1807
 2664SOL     OW10883   6.662   1.398   2.092 -0.4989  0.1588  0.1510
 2664SOL    HW110884   6.596   1.417   2.159 -0.0338 -0.1470  0.7080
 2664SOL    HW210885   6.636   1.313   2.056 -0.9845  0.5209 -0.3476
 2665SOL     OW10886   7.525   6.901   1.134  0.0690 -0.0963 -0.4326
 2665SOL    HW110887   7.611   6.902   1.092  1.0083 -0.2781  1.3895
 2665SOL    HW210888   7.524   6.980   1.188 -1.0021  0.0018 -0.5766
 2666SOL     OW10889   4.681   9.087   8.515  0.3602 -0.4247  0.1795
 2666SOL    HW110890   4.711   9.066   8.604 -0.4135  2.5513  1.2651
 2666SOL    HW210891   4.729   9.026   8.459  1.5306 -1.8518  2.5388
 2667SOL     OW10892   4.329   5.280   6.360  0.1259 -0.1488  0.0186
 2667SOL    HW110893   4.403   5.292   6.419 -1.3130  0.2101  1.8244
 2667SOL    HW210894   4.271   5.220   6.407 -1.1224  0.2392 -0.9849
 2668SOL     OW10895   6.022   5.381   0.985 -0.2657 -0.1660  0.7000
 2668SOL    HW110896   6.033   5.287   0.972  0.2986 -0.0933  0.5978
 2668SOL    HW210897   6.111   5.416   0.979  0.1472 -0.1028  4.6175
 2669SOL     OW10898   2.918   7.149   4.073  0.0707 -0.0676 -0.1774
 2669SOL    HW110899   2.969   7.092   4.130  0.9478  0.4913 -0.3782
 2669SOL    HW210900   2.962   7.142   3.988  1.0424  1.9163  0.1010
 2670SOL     OW10901   4.079   5.689   4.099  0.5394  0.1669 -0.2864
 2670SOL    HW110902   4.112   5.636   4.026 -0.2637  1.3364 -1.5610
 2670SOL    HW210903   3.988   5.660   4.111  1.2593 -1.5020  1.7328
 2671SOL     OW10904   3.465   6.089   0.795  0.4852  0.2567 -0.0798
 2671SOL    HW110905   3.377   6.072   0.762  0.3265 -0.5568  0.7320
 2671SOL    HW210906   3.452   6.118   0.885  1.0348  0.2499  0.0031
 2672SOL     OW10907   6.504   1.523   6.462  0.4360 -0.2747 -0.6783
 2672SOL    HW110908   6.542   1.565   6.385 -0.0967  1.9649  0.1767
 2672SOL    HW210909   6.431   1.471   6.429  1.2254 -0.6876 -1.8219
 2673SOL     OW10910   4.713   7.545   6.056  0.3863 -0.3984 -0.2935
 2673SOL    HW110911   4.679   7.490   5.985 -0.2803 -0.8236  0.3453
 2673SOL    HW210912   4.778   7.490   6.100  0.9302 -0.0706 -0.6713
 2674SOL     OW10913   7.865   6.770   6.060 -0.0753  0.1668 -0.2123
 2674SOL    HW110914   7.889   6.777   6.152  0.8162 -1.2935 -0.3074
 2674SOL    HW210915   7.801   6.699   6.058  0.8169 -0.6420 -0.8518
 2675SOL     OW10916   0.008   2.248   2.653 -0.1544 -0.1684  0.2419
 2675SOL    HW110917  -0.016   2.313   2.586 -0.7039  0.1510  0.7384
 2675SOL    HW210918  -0.008   2.164   2.610 -1.0025  0.0367  0.1264
 2676SOL     OW10919   3.098   4.169   1.330 -0.2179  0.2142 -0.0835
 2676SOL    HW110920   3.161   4.167   1.403 -0.4030 -1.3439  0.0723
 2676SOL    HW210921   3.023   4.216   1.364 -0.1421 -0.1538  0.6100
 2677SOL     OW10922   3.094   5.194   1.067 -0.3433  0.1893 -0.2043
 2677SOL    HW110923   3.122   5.109   1.035 -0.9007 -0.3266  0.6605
 2677SOL    HW210924   3.165   5.223   1.124  0.3619  0.8305 -1.3530
 2678SOL     OW10925   0.757   6.954   3.731 -0.0849 -0.6244  0.4412
 2678SOL    HW110926   0.679   6.959   3.786  0.0980 -1.5948  0.8037
 2678SOL    HW210927   0.820   7.012   3.775  0.0770 -1.4302  1.3127
 2679SOL     OW10928   7.638   8.372   3.866  0.3323 -0.0642 -0.0469
 2679SOL    HW110929   7.602   8.365   3.778  0.7287  0.7004 -0.2804
 2679SOL    HW210930   7.708   8.437   3.858 -0.5834  1.1236  1.1219
 2680SOL     OW10931   5.182   4.649   0.481 -0.5646 -0.3170 -0.0752
 2680SOL    HW110932   5.171   4.579   0.416  1.0091  1.0280 -1.9087
 2680SOL    HW210933   5.121   4.717   0.454  0.2289  0.3260 -0.2913
 2681SOL     OW10934   0.702   6.303   0.201  0.2040  0.1547 -0.4320
 2681SOL    HW110935   0.676   6.326   0.290  1.5407 -0.0311  0.0292
 2681SOL    HW210936   0.798   6.302   0.203  0.2562 -0.1055 -1.8087
 2682SOL     OW10937   5.198   7.601   9.128  0.1255 -0.7622  0.6391
 2682SOL    HW110938   5.177   7.513   9.094 -0.7244 -0.7511  1.0956
 2682SOL    HW210939   5.204   7.589   9.223  0.4510 -0.4060  0.6637
 2683SOL     OW10940   8.082   1.961   7.319 -0.0173 -0.1129 -0.1125
 2683SOL    HW110941   8.100   1.872   7.289 -2.4302  0.1442 -2.7586
 2683SOL    HW210942   8.154   2.014   7.283  0.9067 -0.8007  0.6614
 2684SOL     OW10943   4.487   7.634   4.356  1.0477 -0.4432 -0.3182
 2684SOL    HW110944   4.532   7.696   4.298 -1.1510 -0.8459 -2.6611
 2684SOL    HW210945   4.485   7.678   4.441  0.4737  2.2807 -1.6244
 2685SOL     OW10946   4.887   5.097   7.723 -0.4228 -0.2883 -0.5399
 2685SOL    HW110947   4.852   5.036   7.658 -1.0343  0.0863 -0.5703
 2685SOL    HW210948   4.886   5.182   7.679  1.3523 -0.3831 -0.8464
 2686SOL     OW10949   7.068   3.815   6.099  0.6348 -0.0293 -0.2011
 2686SOL    HW110950   7.090   3.786   6.010  2.1357 -0.8111  0.3910
 2686SOL    HW210951   7.012   3.746   6.134 -0.7055  0.7012 -0.8014
 2687SOL     OW10952   1.553   0.177   6.665  0.5007 -1.4103 -0.3019
 2687SOL    HW110953   1.523   0.251   6.613  0.6929 -2.0748 -1.4017
 2687SOL    HW210954   1.633   0.207   6.707 -0.3204 -0.4537  0.6360
 2688SOL     OW10955   4.752   8.002   1.468  0.0751  0.7101  0.3405
 2688SOL    HW110956   4.840   8.018   1.500  0.0522  0.8372  0.3442
 2688SOL    HW210957   4.711   8.089   1.469 -0.0970  0.6291  0.4836
 2689SOL     OW10958   4.552   1.994   6.155  0.3810  0.3303  0.2856
 2689SOL    HW110959   4.643   1.965   6.155 -0.2098 -1.8772  2.5264
 2689SOL    HW210960   4.507   1.933   6.096 -0.1122 -0.6424  1.6053
 2690SOL     OW10961   5.517   4.847   0.731 -0.3530  0.1023  0.2977
 2690SOL    HW110962   5.544   4.912   0.796  1.9705 -0.2600 -0.2537
 2690SOL    HW210963   5.598   4.814   0.694 -1.5770 -0.9829 -1.5630
 2691SOL     OW10964   4.727   1.445   3.137  1.0312  0.2624 -0.7562
 2691SOL    HW110965   4.678   1.512   3.089 -3.1563 -1.0031  1.2211
 2691SOL    HW210966   4.762   1.491   3.214  1.8401  0.9313 -1.5058
 2692SOL     OW10967   6.122   8.362   0.893 -0.0064  0.4002  0.1132
 2692SOL    HW110968   6.143   8.413   0.971  0.0960  0.7594 -0.1438
 2692SOL    HW210969   6.182   8.396   0.826 -0.3502  0.3593 -0.2198
 2693SOL     OW10970   2.120   1.861   1.231 -0.2143 -0.1376 -0.5163
 2693SOL    HW110971   2.098   1.874   1.138  0.6982 -0.5048 -0.8042
 2693SOL    HW210972   2.036   1.852   1.275 -0.6979  1.2721 -1.1151
 2694SOL     OW10973   6.630   4.587   5.645  0.0137 -0.6548  0.2048
 2694SOL    HW110974   6.537   4.597   5.622 -0.0293 -0.4620  0.4536
 2694SOL    HW210975   6.646   4.657   5.709  0.1325 -1.1758  0.7562
 2695SOL     OW10976   1.396   2.625   5.937  0.0387 -0.4968 -0.2042
 2695SOL    HW110977   1.416   2.716   5.961 -1.9009 -0.0687 -0.0673
 2695SOL    HW210978   1.481   2.588   5.911  1.0250  1.0597  0.6452
 2696SOL     OW10979   9.187   3.468   1.759 -0.0076  1.0362 -0.1116
 2696SOL    HW110980   9.117   3.503   1.813  0.0906  1.0702 -0.0053
 2696SOL    HW210981   9.151   3.388   1.722 -0.4775  1.6010 -0.9073
 2697SOL     OW10982   2.430   1.067   5.225  0.0638 -0.0032  0.4011
 2697SOL    HW110983   2.433   1.035   5.135 -2.7649  0.8763 -0.1121
 2697SOL    HW210984   2.383   1.000   5.273  0.8171 -0.0694  1.0741
 2698SOL     OW10985   0.870   6.936   4.494 -0.2590  0.0360  0.0605
 2698SOL    HW110986   0.832   6.849   4.477  0.7791 -0.4057 -0.0880
 2698SOL    HW210987   0.834   6.962   4.578 -0.8290 -0.4090 -0.0419
 2699SOL     OW10988   4.288   7.317   1.020  0.3865  0.6448  0.0393
 2699SOL    HW110989   4.372   7.296   0.978  0.8586  3.3242 -0.4977
 2699SOL    HW210990   4.259   7.233   1.056  3.3334 -0.3880  0.3413
 2700SOL     OW10991   1.307   7.617   1.218  0.2788 -0.1215  0.5459
 2700SOL    HW110992   1.325   7.528   1.246  0.6593  0.0453  0.8301
 2700SOL    HW210993   1.217   7.614   1.185 -0.4680 -0.1580  2.4716
 2701SOL     OW10994   0.876   7.071   7.960 -0.6487 -0.1116  0.2926
 2701SOL    HW110995   0.813   7.022   7.907 -0.8358 -0.3108  0.6944
 2701SOL    HW210996   0.866   7.035   8.048  1.5418 -1.7148 -0.0288
 2702SOL     OW10997   3.786   2.173   8.512  0.8217  0.0607 -0.5120
 2702SOL    HW110998   3.718   2.185   8.578  0.0264  0.3267 -1.3568
 2702SOL    HW210999   3.782   2.079   8.491  1.0752 -0.0237 -0.1846
 2703SOL     OW11000   5.516   5.079   5.286  0.1575 -0.1885 -0.1947
 2703SOL    HW111001   5.525   5.068   5.381  0.3512 -0.9028 -0.2895
 2703SOL    HW211002   5.526   4.991   5.251  0.2580  0.0974 -0.8958
 2704SOL     OW11003   0.481   3.281   1.245  0.4035  0.1065  0.2308
 2704SOL    HW111004   0.510   3.275   1.154  0.2118  1.8674  0.0179
 2704SOL    HW211005   0.428   3.361   1.248  0.7865  0.3414  1.9849
 2705SOL     OW11006   5.557   9.128   2.932  0.1351  0.4075  0.2853
 2705SOL    HW111007   5.577   9.035   2.930 -1.5875 -0.0057 -0.2382
 2705SOL    HW211008   5.562   9.155   2.840  2.5462  1.3371  0.6258
 2706SOL     OW11009   1.937   3.878   4.589  0.3828  0.2819  0.2655
 2706SOL    HW111010   1.954   3.872   4.683 -0.5205 -0.6555  0.3943
 2706SOL    HW211011   1.842   3.891   4.582  0.1435 -1.5372 -0.5329
 2707SOL     OW11012   5.085   2.888   1.135 -1.1112  0.2193  0.3061
 2707SOL    HW111013   5.069   2.982   1.131  1.6182  0.7271 -0.5444
 2707SOL    HW211014   5.094   2.861   1.043  1.0795 -0.2215  0.5957
 2708SOL     OW11015   8.686   0.049   9.239  0.1599  0.1051  0.0683
 2708SOL    HW111016   8.739   0.060   9.319  2.1454  0.6512 -1.2436
 2708SOL    HW211017   8.599   0.025   9.271  0.4013  2.0268  2.4732
 2709SOL     OW11018   2.114   2.808   0.525 -0.2285 -0.0567 -0.3714
 2709SOL    HW111019   2.178   2.838   0.461 -0.2737  1.0732  0.0944
 2709SOL    HW211020   2.038   2.865   0.512 -0.2678  0.1349  0.6236
 2710SOL     OW11021   7.483   4.450   8.519  0.2845  0.1809 -0.1778
 2710SOL    HW111022   7.413   4.420   8.461 -0.8461 -0.3172  1.3600
 2710SOL    HW211023   7.478   4.545   8.516  0.5319  0.1729 -1.2077
 2711SOL     OW11024   1.617   1.352   5.356 -0.7742 -0.4587 -0.0356
 2711SOL    HW111025   1.600   1.358   5.262  0.0326  2.9754 -0.1050
 2711SOL    HW211026   1.579   1.432   5.392  0.3982 -0.8695  2.3059
 2712SOL     OW11027   3.227   8.223   1.788 -0.1716 -0.0126 -0.0376
 2712SOL    HW111028   3.247   8.197   1.698  1.2755 -0.5596  0.3984
 2712SOL    HW211029   3.260   8.312   1.794 -0.9539  0.2903 -0.2605
 2713SOL     OW11030   7.371   7.736   3.714 -0.1374 -0.9965 -0.1652
 2713SOL    HW111031   7.322   7.815   3.691  1.1890 -0.3308 -0.7393
 2713SOL    HW211032   7.359   7.728   3.809 -0.7097 -0.4129 -0.1790
 2714SOL     OW11033   3.911   3.740   2.297  0.0304  0.3387  0.4327
 2714SOL    HW111034   3.824   3.700   2.293  0.0211  0.3354  0.6606
 2714SOL    HW211035   3.920   3.769   2.387  0.6144 -0.4520  0.6403
 2715SOL     OW11036   4.189   9.519   3.227  0.5035 -0.3631  0.2759
 2715SOL    HW111037   4.283   9.534   3.222  0.4450 -0.2920 -1.2338
 2715SOL    HW211038   4.161   9.563   3.307  1.1430  3.2979 -1.3114
 2716SOL     OW11039   2.521   8.641   0.336  0.1731  0.0176  0.0643
 2716SOL    HW111040   2.471   8.569   0.298  1.5941 -0.6651 -0.5848
 2716SOL    HW211041   2.613   8.618   0.320  0.7885  0.5275  2.4765
 2717SOL     OW11042   4.769   2.041   1.695 -0.2852  0.0802 -0.1364
 2717SOL    HW111043   4.751   1.985   1.770  1.5844  1.4804  1.4645
 2717SOL    HW211044   4.848   2.089   1.719  0.0733  0.9937 -2.7988
 2718SOL     OW11045   3.260   2.637   6.818  0.5742  0.2658 -0.0776
 2718SOL    HW111046   3.345   2.594   6.805  0.8125  0.6117  0.3259
 2718SOL    HW211047   3.195   2.568   6.800  0.9137  0.2228 -1.2393
 2719SOL     OW11048   6.033   2.887   7.261  0.1293 -0.2279 -0.0993
 2719SOL    HW111049   6.088   2.950   7.214  0.2378 -0.8620 -0.8363
 2719SOL    HW211050   5.975   2.851   7.194  0.0193 -0.8580  0.3280
 2720SOL     OW11051   9.556   0.368   6.903 -0.5940  0.0451 -0.0551
 2720SOL    HW111052   9.493   0.299   6.880  0.3918 -0.8383 -0.1685
 2720SOL    HW211053   9.577   0.411   6.820 -0.5209 -0.1113 -0.1165
 2721SOL     OW11054   4.038   6.788   5.231 -0.0364 -0.5494  0.0634
 2721SOL    HW111055   4.052   6.707   5.279 -2.0472 -0.7663  0.3857
 2721SOL    HW211056   4.093   6.853   5.275  1.0762 -1.5786  0.2178
 2722SOL     OW11057   3.688   5.961   4.167  0.5923 -0.1565  0.7389
 2722SOL    HW111058   3.642   5.899   4.224  0.9173 -0.3567  0.7868
 2722SOL    HW211059   3.709   6.035   4.224 -2.0224  1.1671  0.1214
 2723SOL     OW11060   4.911   2.045   9.298 -0.1158 -0.2172  0.0596
 2723SOL    HW111061   4.954   1.980   9.242  1.0554  1.1232 -0.6777
 2723SOL    HW211062   4.877   2.110   9.237  0.7554  1.0226  0.8454
 2724SOL     OW11063   5.817   3.763   3.819 -0.7354  0.0290 -0.0729
 2724SOL    HW111064   5.796   3.799   3.733 -0.5865 -1.4549 -0.7639
 2724SOL    HW211065   5.913   3.763   3.822 -0.7321  1.3819  0.6963
 2725SOL     OW11066   9.137   3.728   4.653 -0.9789 -0.2841  0.1606
 2725SOL    HW111067   9.106   3.743   4.564 -0.4256 -0.5582 -0.0800
 2725SOL    HW211068   9.068   3.765   4.709 -2.6967 -2.5732 -0.3269
 2726SOL     OW11069   6.268   7.923   1.931 -0.3070  0.0076 -0.5146
 2726SOL    HW111070   6.330   7.995   1.946  0.7147 -1.4641  3.8117
 2726SOL    HW211071   6.315   7.861   1.876  2.0389 -0.7887  2.1732
 2727SOL     OW11072   4.398   5.589   9.331 -0.2864  0.9033 -0.2265
 2727SOL    HW111073   4.423   5.661   9.390  0.6017  0.0993  0.4153
 2727SOL    HW211074   4.406   5.626   9.243  1.4076  1.2442  0.0291
 2728SOL     OW11075   5.215   7.888   8.884 -0.1105  0.4973 -0.2826
 2728SOL    HW111076   5.253   7.912   8.968  0.0526  1.0807 -0.5251
 2728SOL    HW211077   5.204   7.792   8.889  1.2191  0.3450 -0.1447
 2729SOL     OW11078   8.003   7.139   8.095  0.2442  0.0862  0.2434
 2729SOL    HW111079   8.046   7.223   8.110 -0.9993  0.7889  0.0032
 2729SOL    HW211080   8.074   7.076   8.092  1.3473  1.3132 -0.9653
 2730SOL     OW11081   0.543   1.248   8.379  0.1803 -0.7227 -0.2293
 2730SOL    HW111082   0.629   1.243   8.422  0.5853 -0.3224 -0.9677
 2730SOL    HW211083   0.529   1.342   8.364 -1.1410 -0.6307  1.3487
 2731SOL     OW11084   2.628   3.195   6.275  0.1574 -0.3942 -0.6084
 2731SOL    HW111085   2.724   3.201   6.271  0.0347  3.0648 -1.5095
 2731SOL    HW211086   2.598   3.257   6.209 -2.7567 -1.2785 -0.2281
 2732SOL     OW11087   0.800   9.562   3.013  0.1437 -0.3379 -0.0262
 2732SOL    HW111088   0.828   9.641   2.967 -3.7476  1.7774  0.8646
 2732SOL    HW211089   0.873   9.543   3.073  1.3987  2.2869 -0.5692
 2733SOL     OW11090   0.589   9.056   4.526 -0.3524  0.2520 -0.2976
 2733SOL    HW111091   0.575   9.048   4.621 -0.1651 -0.1316 -0.2978
 2733SOL    HW211092   0.679   9.086   4.518 -0.8237  1.7330 -0.3214
 2734SOL     OW11093   6.399   7.093   3.724 -0.0865  0.3034  0.2802
 2734SOL    HW111094   6.410   7.036   3.648 -0.0585  0.2487  0.3246
 2734SOL    HW211095   6.489   7.115   3.750 -0.0213 -1.0609  1.3363
 2735SOL     OW11096   3.720   5.490   0.583  0.1241 -0.0052 -1.0481
 2735SOL    HW111097   3.746   5.410   0.537  0.1322 -0.0312 -0.9985
 2735SOL    HW211098   3.782   5.498   0.655  0.8084  0.6507 -1.7015
 2736SOL     OW11099   5.740   4.598   8.165  0.3147 -0.6262  0.1878
 2736SOL    HW111100   5.825   4.642   8.168 -0.8559  1.8494 -0.3511
 2736SOL    HW211101   5.723   4.587   8.072  0.1758 -1.4442  0.3046
 2737SOL     OW11102   2.892   2.961   0.106 -0.1902  0.0771  0.2199
 2737SOL    HW111103   2.975   2.927   0.071 -0.4846 -1.5615  1.0427
 2737SOL    HW211104   2.904   3.056   0.107  1.0993 -0.0277 -1.0997
 2738SOL     OW11105   6.482   4.483   2.226 -0.0409 -0.0102  0.0124
 2738SOL    HW111106   6.555   4.457   2.169  0.7300 -0.0727  1.0068
 2738SOL    HW211107   6.500   4.439   2.309 -1.9938 -1.2192 -0.1404
 2739SOL     OW11108   8.616   3.380   7.535  0.0536 -0.0390  0.3800
 2739SOL    HW111109   8.542   3.434   7.507  0.4660  1.1861  1.5483
 2739SOL    HW211110   8.693   3.433   7.513  0.5806 -1.1174 -0.4348
 2740SOL     OW11111   4.250   3.657   5.832  0.1029 -0.5190  0.3664
 2740SOL    HW111112   4.168   3.688   5.794  2.0426  2.0855 -2.2472
 2740SOL    HW211113   4.263   3.713   5.909 -0.3350 -0.5933  0.4964
 2741SOL     OW11114   0.006   5.617   5.093 -0.1203 -0.5549 -0.4543
 2741SOL    HW111115   0.045   5.697   5.059  0.6725 -1.5340 -1.9733
 2741SOL    HW211116   0.044   5.547   5.040 -2.8283 -1.7260 -1.0518
 2742SOL     OW11117   1.263   0.982   9.512 -0.3342 -0.0842 -0.0517
 2742SOL    HW111118   1.180   1.029   9.509 -0.4694 -0.3362 -0.2670
 2742SOL    HW211119   1.326   1.041   9.470 -0.0324  0.8463  1.6354
 2743SOL     OW11120   4.368   8.055   9.410  0.1555 -0.2156 -0.3831
 2743SOL    HW111121   4.336   8.037   9.322 -0.8288 -1.3212  0.1702
 2743SOL    HW211122   4.463   8.041   9.405  0.1764  0.1932 -1.3517
 2744SOL     OW11123   6.599   4.840   0.175 -0.0827  0.1343 -0.2653
 2744SOL    HW111124   6.618   4.922   0.128  1.4781  0.4691  0.8368
 2744SOL    HW211125   6.657   4.843   0.252 -1.1286 -1.2948  0.6322
 2745SOL     OW11126   6.285   8.137   7.017 -0.1077  0.3888  0.3881
 2745SOL    HW111127   6.192   8.134   6.995 -0.3485 -1.2420  1.5027
 2745SOL    HW211128   6.330   8.129   6.933 -0.9237  2.0676 -0.2644
 2746SOL     OW11129   4.623   2.556   3.484 -0.2357  0.0746 -0.2077
 2746SOL    HW111130   4.702   2.604   3.507  0.6169 -0.0260 -2.5894
 2746SOL    HW211131   4.605   2.581   3.393 -0.8485 -2.6085 -0.9198
 2747SOL     OW11132   6.577   3.514   0.570 -0.4865 -0.0765  0.4301
 2747SOL    HW111133   6.521   3.546   0.500 -0.7537  1.0468  1.1258
 2747SOL    HW211134   6.538   3.431   0.596 -0.2281 -0.6380 -0.9124
 2748SOL     OW11135   2.397   7.861   3.399  0.1015  0.3127 -0.6782
 2748SOL    HW111136   2.430   7.796   3.336  1.3615  0.7324 -0.4796
 2748SOL    HW211137   2.316   7.894   3.358  0.2448 -0.2925 -1.4924
 2749SOL     OW11138   0.475   2.198   6.631 -0.1708 -0.3802  0.0132
 2749SOL    HW111139   0.466   2.175   6.539 -1.8891 -0.3068  0.1262
 2749SOL    HW211140   0.492   2.114   6.675 -4.9400 -1.5496  0.2396
 2750SOL     OW11141   6.224   3.902   5.797 -0.5931 -0.3882 -0.3530
 2750SOL    HW111142   6.244   3.945   5.714 -2.0696 -1.6404 -1.4110
 2750SOL    HW211143   6.284   3.828   5.801 -0.2056 -0.0601 -0.0735
 2751SOL     OW11144   3.756   8.380   9.169  0.1509 -0.2026  0.2746
 2751SOL    HW111145   3.711   8.424   9.241 -0.8735 -0.8509  0.0517
 2751SOL    HW211146   3.705   8.300   9.155  1.1852 -0.7878 -0.2178
 2752SOL     OW11147   7.599   5.424   1.880 -0.1543  0.3739 -0.1821
 2752SOL    HW111148   7.653   5.355   1.841 -1.1591 -0.5249 -0.0300
 2752SOL    HW211149   7.659   5.473   1.936  0.3562 -1.0520  0.5471
 2753SOL     OW11150   0.201   0.013   6.567 -0.0822  0.4750 -0.2195
 2753SOL    HW111151   0.180   0.097   6.526 -3.2613 -1.1898 -2.4550
 2753SOL    HW211152   0.156   0.015   6.651 -0.8675  0.7292 -0.6342
 2754SOL     OW11153   8.866   5.233   4.876  0.3503  0.1094 -0.0021
 2754SOL    HW111154   8.826   5.293   4.812 -1.0638 -0.0476  0.6871
 2754SOL    HW211155   8.808   5.237   4.952  0.4880 -1.7394  0.2590
 2755SOL     OW11156   3.946   7.888   1.711  0.4197 -0.3677  0.1269
 2755SOL    HW111157   4.031   7.918   1.678  0.4690 -0.3412  0.2772
 2755SOL    HW211158   3.959   7.795   1.729  0.5727 -0.2524  0.6455
 2756SOL     OW11159   4.110   1.324   0.445  0.3840 -0.0049 -0.1563
 2756SOL    HW111160   4.021   1.322   0.409  0.7213  0.8697 -1.1058
 2756SOL    HW211161   4.162   1.277   0.380  1.0420  1.7706 -0.9762
 2757SOL     OW11162   1.911   8.840   7.769 -0.0489  0.4650  0.1517
 2757SOL    HW111163   1.961   8.788   7.706 -1.7080 -1.3646  0.2515
 2757SOL    HW211164   1.956   8.925   7.771  1.0397  0.0247 -2.2067
 2758SOL     OW11165   7.642   4.730   6.519 -0.1805  0.7482  0.1687
 2758SOL    HW111166   7.612   4.653   6.471 -0.0928 -0.1308  1.4638
 2758SOL    HW211167   7.668   4.696   6.605  1.3621  1.9859  0.2371
 2759SOL     OW11168   2.115   5.550   3.823  0.2067 -0.0265  0.2721
 2759SOL    HW111169   2.174   5.479   3.849 -0.1748 -0.7422 -0.7266
 2759SOL    HW211170   2.136   5.565   3.731 -0.6692  0.2006  0.1021
 2760SOL     OW11171   5.750   1.104   3.539  0.1589 -0.0241 -0.2433
 2760SOL    HW111172   5.675   1.151   3.502  0.3308 -0.2429 -0.8943
 2760SOL    HW211173   5.776   1.157   3.614  0.1041  0.7201 -0.7298
 2761SOL     OW11174   7.855   8.464   7.189 -0.0932  0.0190  0.3110
 2761SOL    HW111175   7.824   8.520   7.118  1.6423 -1.4844 -1.7771
 2761SOL    HW211176   7.802   8.385   7.183 -0.3001  0.0872  1.0814
 2762SOL     OW11177   6.620   9.252   6.612 -0.1232  0.0446 -0.2204
 2762SOL    HW111178   6.662   9.191   6.672 -0.4347 -0.0515 -0.0960
 2762SOL    HW211179   6.652   9.338   6.638  0.3106 -0.0675 -0.3921
 2763SOL     OW11180   9.327   8.190   2.226 -0.5311  0.2017 -0.0450
 2763SOL    HW111181   9.414   8.159   2.200 -0.2538  0.0409  1.0466
 2763SOL    HW211182   9.325   8.281   2.196  0.1828  0.3386  0.3013
 2764SOL     OW11183   0.760   7.582   4.735 -0.1108 -0.2386  0.1492
 2764SOL    HW111184   0.763   7.614   4.825 -0.3633 -2.1696  0.8881
 2764SOL    HW211185   0.721   7.495   4.741  1.6012 -1.2192 -1.5748
 2765SOL     OW11186   1.493   8.249   4.047 -0.0974 -0.2564 -0.5406
 2765SOL    HW111187   1.523   8.338   4.032 -0.1758 -0.0723  0.3186
 2765SOL    HW211188   1.569   8.204   4.084  0.5395 -1.0889 -2.6984
 2766SOL     OW11189   4.143   0.831   0.117  0.5240  0.1482  0.5449
 2766SOL    HW111190   4.233   0.814   0.145  0.0880 -0.6521  1.5539
 2766SOL    HW211191   4.112   0.746   0.085  0.5116  0.7035 -0.9611
 2767SOL     OW11192   4.090   1.690   6.427  0.5969 -0.2571  0.3296
 2767SOL    HW111193   4.182   1.694   6.452  0.0804 -1.2636  2.6415
 2767SOL    HW211194   4.082   1.605   6.383  0.6439 -0.5056  0.7927
 2768SOL     OW11195   1.133   5.749   8.852 -0.2031 -0.0392 -0.4400
 2768SOL    HW111196   1.137   5.657   8.824  1.6462 -0.0635 -0.2105
 2768SOL    HW211197   1.202   5.792   8.802 -0.9826  1.2240 -0.4648
 2769SOL     OW11198   1.551   4.623   3.047 -0.3205  0.3158 -0.4078
 2769SOL    HW111199   1.489   4.689   3.016  0.3769  0.3498 -1.7663
 2769SOL    HW211200   1.570   4.569   2.971  1.0056  0.0528  0.0818
 2770SOL     OW11201   5.407   1.073   6.428  0.2497 -0.1512 -0.1764
 2770SOL    HW111202   5.382   1.094   6.338  1.1548  0.2972 -0.3316
 2770SOL    HW211203   5.443   1.155   6.462 -2.7210  0.5831  1.5662
 2771SOL     OW11204   5.822   0.848   7.360 -0.0630 -0.0978 -0.7681
 2771SOL    HW111205   5.826   0.823   7.452  1.1823  0.5505 -0.6216
 2771SOL    HW211206   5.827   0.764   7.313 -0.5782 -0.4215 -0.2523
 2772SOL     OW11207   7.175   6.942   7.499  0.4276  0.4578 -0.3102
 2772SOL    HW111208   7.178   6.884   7.575 -0.2554  0.8822  0.0537
 2772SOL    HW211209   7.090   6.985   7.506  0.8120  1.2994 -0.7183
 2773SOL     OW11210   6.204   0.398   7.800 -0.6265  0.5554  0.0453
 2773SOL    HW111211   6.201   0.316   7.850 -1.5728  0.7386  0.3066
 2773SOL    HW211212   6.223   0.465   7.865 -3.0007  0.9556  0.4318
 2774SOL     OW11213   4.264   7.321   6.646 -0.3755  0.0223  0.9029
 2774SOL    HW111214   4.233   7.380   6.576  1.1822 -0.4266 -0.2184
 2774SOL    HW211215   4.184   7.282   6.681 -1.3201  1.4951  0.5025
 2775SOL     OW11216   8.938   6.698   6.754  0.3482  0.1090 -0.0289
 2775SOL    HW111217   8.928   6.684   6.848  0.0830  0.1617 -0.0468
 2775SOL    HW211218   8.851   6.725   6.725  0.7573  1.5400 -0.0379
 2776SOL     OW11219   3.587   8.350   2.432  0.2208 -0.1137  0.3537
 2776SOL    HW111220   3.520   8.416   2.412 -0.3645 -0.8152 -0.0700
 2776SOL    HW211221   3.543   8.289   2.491  1.4459  1.0707  2.6227
 2777SOL     OW11222   4.879   7.792   7.874  0.5705 -0.0719  0.6783
 2777SOL    HW111223   4.881   7.758   7.963  0.5253 -0.9952  0.3319
 2777SOL    HW211224   4.913   7.721   7.820 -0.6872 -0.0315 -0.2036
 2778SOL     OW11225   4.021   5.507   7.310 -0.4232 -0.5194 -0.1025
 2778SOL    HW111226   3.937   5.546   7.284 -0.1216  1.2743  1.3840
 2778SOL    HW211227   4.040   5.442   7.242 -3.3071 -1.4491 -0.1717
 2779SOL     OW11228   8.062   7.733   8.880 -0.0456 -0.2101  0.3684
 2779SOL    HW111229   8.075   7.825   8.856  0.2634  0.0212  1.3784
 2779SOL    HW211230   8.018   7.694   8.804 -0.3550  0.8190  0.0068
 2780SOL     OW11231   7.240   2.132   1.020 -0.3073 -0.0979  0.1415
 2780SOL    HW111232   7.153   2.159   1.050  0.9052  1.1507  2.9641
 2780SOL    HW211233   7.259   2.053   1.071  1.0728  0.9658  1.3610
 2781SOL     OW11234   8.714   1.953   2.554  0.0189 -0.2932 -0.2807
 2781SOL    HW111235   8.779   1.972   2.486  0.2557 -0.8309 -0.2138
 2781SOL    HW211236   8.765   1.909   2.623 -0.1346  0.6158  0.4310
 2782SOL     OW11237   4.616   7.904   3.189  0.0636  0.2785 -0.0819
 2782SOL    HW111238   4.651   7.863   3.109 -0.5881 -0.5675  0.0537
 2782SOL    HW211239   4.531   7.940   3.162  0.8414  2.0309 -0.3261
 2783SOL     OW11240   5.094   0.421   8.726  0.7915 -0.0992  0.3000
 2783SOL    HW111241   5.028   0.417   8.657  2.1597 -1.5038 -1.0141
 2783SOL    HW211242   5.113   0.514   8.736 -0.2309  0.2066 -0.4120
 2784SOL     OW11243   9.034   7.179   7.687  0.0420 -0.4714 -0.6807
 2784SOL    HW111244   9.004   7.264   7.719  0.8810 -0.3296 -0.2467
 2784SOL    HW211245   9.031   7.187   7.592 -2.9323 -1.0510 -0.7490
 2785SOL     OW11246   6.832   7.424   9.338 -0.1844 -0.2701  0.0009
 2785SOL    HW111247   6.790   7.468   9.412 -2.7952 -1.2825 -0.7542
 2785SOL    HW211248   6.925   7.422   9.360 -0.3660  2.7136  1.5050
 2786SOL     OW11249   0.110   4.086   0.155  0.4041  0.3201  0.3037
 2786SOL    HW111250   0.047   4.061   0.223  0.6397  0.2425  0.4950
 2786SOL    HW211251   0.107   4.181   0.153  1.7042  0.4294  1.6917
 2787SOL     OW11252   5.886   5.115   6.710 -0.1945  0.5083 -0.1194
 2787SOL    HW111253   5.794   5.137   6.698  0.5440  3.1629 -1.7265
 2787SOL    HW211254   5.885   5.026   6.746 -3.3349  0.3530 -0.3228
 2788SOL     OW11255   7.145   8.628   5.589 -0.3008  0.2143 -0.0070
 2788SOL    HW111256   7.212   8.693   5.608  2.3918 -1.5307 -2.5851
 2788SOL    HW211257   7.101   8.662   5.511  0.1523 -0.3623 -0.5209
 2789SOL     OW11258   5.748   6.646   2.793  0.1906 -0.1175 -0.3057
 2789SOL    HW111259   5.777   6.595   2.717 -0.3859  0.1387 -0.7001
 2789SOL    HW211260   5.658   6.670   2.773 -1.1505 -2.7991  1.8669
 2790SOL     OW11261   9.048   8.311   1.012 -0.1496  0.8124  0.1426
 2790SOL    HW111262   8.991   8.249   0.967  1.4340 -0.2134 -0.5533
 2790SOL    HW211263   9.032   8.394   0.969 -1.1327  0.5537 -0.0093
 2791SOL     OW11264   7.697   5.752   6.566 -0.7508 -0.2803 -0.4247
 2791SOL    HW111265   7.724   5.681   6.625 -2.0327 -0.6781 -0.2920
 2791SOL    HW211266   7.602   5.758   6.577 -0.7351  1.0843 -0.8648
 2792SOL     OW11267   7.423   9.547   8.905  0.2864  0.2477 -0.3505
 2792SOL    HW111268   7.425   9.493   8.826 -1.3715  0.1522 -0.3800
 2792SOL    HW211269   7.401   9.485   8.975  0.2335  0.5780 -0.0718
 2793SOL     OW11270   8.268   5.395   4.362  0.0922  0.2421 -0.2869
 2793SOL    HW111271   8.346   5.374   4.313  1.6537  1.2531  1.6032
 2793SOL    HW211272   8.263   5.491   4.360  0.5203  0.3755  1.8138
 2794SOL     OW11273   1.217   1.479   6.338 -0.0887  0.5400 -0.2572
 2794SOL    HW111274   1.253   1.545   6.279  0.4787  0.0396 -0.4838
 2794SOL    HW211275   1.190   1.408   6.280  0.1939  0.1744  0.0520
 2795SOL     OW11276   8.728   8.097   4.959  0.6005 -0.6401  1.0343
 2795SOL    HW111277   8.730   8.179   5.007 -2.0398  0.7493 -0.9289
 2795SOL    HW211278   8.759   8.120   4.871 -2.1952 -1.1436 -0.1740
 2796SOL     OW11279   6.500   4.038   0.924 -0.1373 -0.8044 -0.4939
 2796SOL    HW111280   6.500   4.067   1.015 -1.7036 -0.4399 -0.5865
 2796SOL    HW211281   6.444   3.960   0.924  0.7511 -1.4613 -0.9654
 2797SOL     OW11282   0.274   0.921   6.868  0.2813 -0.4514 -0.4704
 2797SOL    HW111283   0.243   0.951   6.953  1.7959  1.1573 -0.4197
 2797SOL    HW211284   0.337   0.852   6.888 -0.7098 -1.3613 -0.4107
 2798SOL     OW11285   7.146   1.932   9.306  0.1700  0.3231  0.5016
 2798SOL    HW111286   7.118   1.917   9.397  0.6172 -1.7344  0.3478
 2798SOL    HW211287   7.132   1.848   9.263  1.2455  0.8820 -1.0011
 2799SOL     OW11288   6.726   8.916   4.801  0.1510 -0.0401 -0.0817
 2799SOL    HW111289   6.795   8.851   4.812  1.0712  1.1971  2.4215
 2799SOL    HW211290   6.722   8.931   4.707  0.3930 -3.1093 -0.6866
 2800SOL     OW11291   8.571   9.241   8.660  0.9356  0.2228 -0.2160
 2800SOL    HW111292   8.526   9.300   8.721  1.2699 -0.5550  0.7900
 2800SOL    HW211293   8.501   9.211   8.601  0.5546  0.7350 -0.0344
 2801SOL     OW11294   8.919   1.845   2.812  0.2434  0.2599 -0.3706
 2801SOL    HW111295   9.014   1.843   2.825  0.2713 -0.0624 -0.6132
 2801SOL    HW211296   8.892   1.753   2.817  0.2703  0.0789 -2.6527
 2802SOL     OW11297   3.101   3.762   1.966 -0.2115  0.1288  0.2311
 2802SOL    HW111298   3.055   3.830   1.918  2.8644  0.9040 -1.9692
 2802SOL    HW211299   3.093   3.788   2.058 -1.2947  2.0190 -0.3481
 2803SOL     OW11300   3.891   0.967   4.739  0.2338  0.2828  0.6235
 2803SOL    HW111301   3.857   1.004   4.820  2.8665  2.4491  0.8836
 2803SOL    HW211302   3.982   0.946   4.758  0.3100 -1.2960 -1.1669
 2804SOL     OW11303   6.137   9.460   4.245  0.5830  0.7006 -0.0800
 2804SOL    HW111304   6.214   9.478   4.192  1.0145  1.7352  0.8464
 2804SOL    HW211305   6.167   9.470   4.335 -0.5209  0.6666  0.3096
 2805SOL     OW11306   9.162   6.868   6.785  0.6094  0.3170  0.8572
 2805SOL    HW111307   9.122   6.782   6.773 -1.1714  0.9227  1.9153
 2805SOL    HW211308   9.240   6.867   6.730 -0.5906 -1.1700 -0.9518
 2806SOL     OW11309   9.381   5.561   1.408 -0.4608 -0.7671  0.0364
 2806SOL    HW111310   9.411   5.593   1.323  1.6558 -4.0706 -0.6723
 2806SOL    HW211311   9.305   5.615   1.429 -0.9415  0.3750 -3.8194
 2807SOL     OW11312   5.113   3.388   5.598 -0.3752  0.8800  0.2556
 2807SOL    HW111313   5.169   3.391   5.521  0.3928 -1.4615  0.6287
 2807SOL    HW211314   5.036   3.338   5.570  0.4561 -1.0811  1.2183
 2808SOL     OW11315   4.801   8.221   7.149  0.6129  0.2024 -0.2723
 2808SOL    HW111316   4.796   8.275   7.228  1.2438 -0.4654  0.2374
 2808SOL    HW211317   4.759   8.274   7.081 -0.8813  0.3608  0.7308
 2809SOL     OW11318   4.616   0.174   0.615  0.1929 -0.4554  0.0437
 2809SOL    HW111319   4.646   0.208   0.531  0.5213  0.1010  0.3791
 2809SOL    HW211320   4.531   0.135   0.596  0.0274  0.1290 -0.4529
 2810SOL     OW11321   9.558   1.045   2.633 -0.2845  0.0981  0.3832
 2810SOL    HW111322   9.577   1.118   2.692  0.6357  0.6918 -0.6189
 2810SOL    HW211323   9.467   1.059   2.606 -0.6285 -0.0405  1.4500
 2811SOL     OW11324   3.723   7.278   8.956 -0.0324  0.7483 -0.2754
 2811SOL    HW111325   3.740   7.199   9.007  0.4816  1.5078  0.7565
 2811SOL    HW211326   3.653   7.323   9.003 -0.9106  0.5195 -1.3110
 2812SOL     OW11327   2.263   9.379   8.125  0.2073  0.5187 -0.2994
 2812SOL    HW111328   2.294   9.418   8.207 -1.2805 -2.3516  1.8196
 2812SOL    HW211329   2.320   9.303   8.111 -1.4670 -0.8453 -0.0870
 2813SOL     OW11330   7.423   3.738   2.586  0.2156  0.4237 -0.1095
 2813SOL    HW111331   7.398   3.717   2.676 -3.3470  3.0779 -0.2505
 2813SOL    HW211332   7.394   3.663   2.535  0.1456 -0.1325  0.7237
 2814SOL     OW11333   4.586   6.958   7.973  0.1278  0.0472 -0.1897
 2814SOL    HW111334   4.625   6.977   7.887 -0.6771 -1.0216 -0.8147
 2814SOL    HW211335   4.661   6.958   8.033  0.6567  1.2369 -0.7955
 2815SOL     OW11336   8.415   7.665   4.953  0.0796  0.1250 -0.6481
 2815SOL    HW111337   8.453   7.585   4.990 -0.9202  0.6600  1.7693
 2815SOL    HW211338   8.468   7.736   4.990  1.6062  0.6416 -3.5705
 2816SOL     OW11339   3.492   6.048   5.324 -0.1678  0.2080 -0.1635
 2816SOL    HW111340   3.557   5.995   5.369  1.2812  1.7018 -0.4167
 2816SOL    HW211341   3.410   6.000   5.335  0.5575 -0.6487  2.0437
 2817SOL     OW11342   2.352   8.182   1.220 -0.5217  0.0765  0.4913
 2817SOL    HW111343   2.445   8.186   1.196 -0.8418  1.2579 -0.6453
 2817SOL    HW211344   2.336   8.090   1.237  0.7158 -0.2274  0.1183
 2818SOL     OW11345   6.433   3.589   9.443 -0.5656  0.5824  0.1361
 2818SOL    HW111346   6.523   3.559   9.429 -0.2625  1.6281 -0.3085
 2818SOL    HW211347   6.379   3.512   9.428  0.1102  0.4455 -1.8791
 2819SOL     OW11348   0.864   0.712   3.984  0.4122  0.0582  0.1890
 2819SOL    HW111349   0.826   0.799   3.968 -0.4682 -0.3118  0.2295
 2819SOL    HW211350   0.949   0.730   4.024  2.0282  1.0339 -3.2169
 2820SOL     OW11351   0.417   5.995   5.085 -0.5008  0.0256  0.3406
 2820SOL    HW111352   0.331   5.965   5.112 -2.1510  3.2757 -0.8413
 2820SOL    HW211353   0.428   5.959   4.996 -2.4591  2.5545 -1.0692
 2821SOL     OW11354   6.045   9.009   9.566  0.5816 -0.3922 -0.1333
 2821SOL    HW111355   6.104   9.065   9.514 -0.6540  0.5593 -0.5700
 2821SOL    HW211356   6.005   8.951   9.501 -1.0366  0.8621 -0.3022
 2822SOL     OW11357   2.410   3.759   7.800 -0.0219  0.0963  0.8890
 2822SOL    HW111358   2.491   3.801   7.771 -0.4844  0.3081 -0.1364
 2822SOL    HW211359   2.355   3.832   7.829 -0.5143  0.1423 -0.1183
 2823SOL     OW11360   4.889   8.015   6.017  0.6948  0.1311  0.0952
 2823SOL    HW111361   4.888   7.927   6.055 -1.5984  0.1463  0.2226
 2823SOL    HW211362   4.861   8.002   5.926  0.3789  0.7186  0.1031
 2824SOL     OW11363   4.594   1.773   8.178  0.0577 -0.6306 -0.1442
 2824SOL    HW111364   4.579   1.743   8.268  1.4428 -3.3401 -0.7023
 2824SOL    HW211365   4.685   1.747   8.160  0.8295  2.5464 -1.3736
 2825SOL     OW11366   4.458   5.898   0.021 -0.3973 -0.3674 -0.1691
 2825SOL    HW111367   4.379   5.904   0.075 -1.4402 -1.3722 -1.4986
 2825SOL    HW211368   4.526   5.868   0.081 -0.9305  0.8434  1.0808
 2826SOL     OW11369   5.450   2.110   8.065  0.1658  0.2027 -0.0489
 2826SOL    HW111370   5.409   2.154   8.140  1.0786 -0.1867  0.7014
 2826SOL    HW211371   5.438   2.017   8.083 -1.0004  0.1082 -1.1978
 2827SOL     OW11372   0.729   5.205   5.291  0.4788  0.1128 -0.2351
 2827SOL    HW111373   0.634   5.200   5.292  0.4463  0.3811 -1.0375
 2827SOL    HW211374   0.756   5.185   5.381 -0.2421 -1.5940 -0.3650
 2828SOL     OW11375   8.459   1.973   6.979  0.3136  0.2332  0.1316
 2828SOL    HW111376   8.439   2.065   6.962 -0.3406  0.1371  0.3368
 2828SOL    HW211377   8.373   1.931   6.986  0.5963 -0.2433  0.8710
 2829SOL     OW11378   4.241   8.639   0.914 -0.4626 -0.1663  0.1145
 2829SOL    HW111379   4.249   8.619   1.007  0.1029 -0.1903  0.0614
 2829SOL    HW211380   4.283   8.724   0.904  1.3482 -1.0734 -0.4633
 2830SOL     OW11381   7.563   3.925   9.040 -0.5200  0.3292 -0.3164
 2830SOL    HW111382   7.567   3.911   8.946  0.4268  1.9008 -0.5455
 2830SOL    HW211383   7.653   3.917   9.070 -0.5561  1.4360  0.1703
 2831SOL     OW11384   6.329   6.680   2.431  0.2541  0.3961 -0.0219
 2831SOL    HW111385   6.304   6.608   2.373 -0.2595 -0.1210  0.8312
 2831SOL    HW211386   6.344   6.754   2.371  0.1167 -0.2267 -0.8460
 2832SOL     OW11387   8.983   4.565   9.245  0.2254 -0.2781  0.1499
 2832SOL    HW111388   9.068   4.601   9.220 -0.2054  1.0448  0.4862
 2832SOL    HW211389   8.927   4.642   9.255 -0.9842 -1.1208  0.0394
 2833SOL     OW11390   6.862   1.624   5.398 -0.3945 -0.6045  0.3572
 2833SOL    HW111391   6.928   1.652   5.333  0.0155  0.8232  1.3263
 2833SOL    HW211392   6.912   1.576   5.463 -0.1943  0.7736  1.2724
 2834SOL     OW11393   5.277   0.106   3.156 -0.3735 -0.2718  0.3796
 2834SOL    HW111394   5.213   0.172   3.181  0.0695  0.1687  0.3808
 2834SOL    HW211395   5.318   0.080   3.239  0.1695  0.2143  0.2710
 2835SOL     OW11396   6.920   1.401   6.790  0.3368  0.1187 -0.0233
 2835SOL    HW111397   6.925   1.491   6.824  1.0109  0.8212 -1.8272
 2835SOL    HW211398   6.856   1.406   6.719 -1.5719 -1.4511  1.5188
 2836SOL     OW11399   4.425   2.267   0.689 -0.1238 -0.2190 -0.0378
 2836SOL    HW111400   4.380   2.185   0.707 -0.8703  0.6510  2.5935
 2836SOL    HW211401   4.509   2.260   0.735 -0.5125  0.7213  0.8641
 2837SOL     OW11402   5.667   4.766   3.603  0.2045 -0.4139  0.6228
 2837SOL    HW111403   5.719   4.845   3.617 -0.4921 -0.2192  2.3703
 2837SOL    HW211404   5.578   4.792   3.626 -0.0209 -1.7220  1.2773
 2838SOL     OW11405   0.779   6.940   1.665  0.0857  0.7624  0.0995
 2838SOL    HW111406   0.802   6.970   1.753  0.2435 -0.2688  0.4241
 2838SOL    HW211407   0.863   6.929   1.620  0.1043 -0.3524  0.3862
 2839SOL     OW11408   0.156   9.393   3.455 -0.1046 -0.0341  0.6018
 2839SOL    HW111409   0.098   9.460   3.492  0.7674  1.1377 -0.0902
 2839SOL    HW211410   0.098   9.319   3.436 -0.6310 -0.7918  4.3377
 2840SOL     OW11411   5.170   8.036   1.979 -0.8177 -0.1718  0.2922
 2840SOL    HW111412   5.247   7.993   2.017 -2.8576 -1.2850  3.5613
 2840SOL    HW211413   5.202   8.073   1.896  3.2351 -0.3958  1.5377
 2841SOL     OW11414   2.159   7.904   5.394  0.9231  0.1555 -0.3079
 2841SOL    HW111415   2.131   7.814   5.378 -1.5035  0.5936  0.9183
 2841SOL    HW211416   2.143   7.950   5.312  1.2518 -0.3151 -0.6391
 2842SOL     OW11417   0.887   4.364   5.138 -0.0805 -0.8768 -0.7418
 2842SOL    HW111418   0.898   4.419   5.216 -1.2077 -2.3581  0.5214
 2842SOL    HW211419   0.793   4.370   5.118 -0.8435 -4.2974  1.0570
 2843SOL     OW11420   2.519   3.367   6.071  0.6375  0.3335  0.1470
 2843SOL    HW111421   2.532   3.440   6.010 -0.1598  0.1601 -0.2298
 2843SOL    HW211422   2.490   3.408   6.152  2.2540  0.6222  0.6318
 2844SOL     OW11423   7.544   5.568   2.823 -0.5785 -0.1457 -0.3587
 2844SOL    HW111424   7.630   5.573   2.866 -0.5193 -0.2020 -0.4720
 2844SOL    HW211425   7.482   5.587   2.893 -0.3893  1.7866 -0.6705
 2845SOL     OW11426   3.500   8.213   4.324 -0.0997 -0.6343 -0.5218
 2845SOL    HW111427   3.586   8.226   4.283 -0.2422  2.3285 -0.0547
 2845SOL    HW211428   3.439   8.207   4.250  0.3202 -1.4248 -0.8226
 2846SOL     OW11429   0.177   6.773   2.576  0.2337 -0.9768 -0.5663
 2846SOL    HW111430   0.173   6.855   2.528  1.4742 -1.8234 -2.2003
 2846SOL    HW211431   0.127   6.790   2.656 -1.5371  0.6307 -1.9203
 2847SOL     OW11432   2.939   8.537   4.266  0.1658 -0.5302 -0.1565
 2847SOL    HW111433   2.860   8.491   4.293 -0.7347  1.3053  0.4779
 2847SOL    HW211434   3.009   8.496   4.317 -0.6158 -1.1298  0.4576
 2848SOL     OW11435   9.352   1.800   4.372  0.3378  0.7595  0.4687
 2848SOL    HW111436   9.325   1.869   4.311  0.8962 -0.4921 -1.2892
 2848SOL    HW211437   9.424   1.755   4.327 -1.3992 -2.3385  0.4778
 2849SOL     OW11438   3.603   4.878   3.632 -0.4821  0.5101 -0.7308
 2849SOL    HW111439   3.688   4.922   3.629  0.3599 -0.4628  3.3046
 2849SOL    HW211440   3.598   4.830   3.550  3.4042 -0.2596 -0.6797
 2850SOL     OW11441   7.855   8.632   1.060 -0.3215 -0.0724  0.1646
 2850SOL    HW111442   7.798   8.676   0.997  0.6217  0.8169 -0.1021
 2850SOL    HW211443   7.812   8.549   1.078  0.2347 -1.2264 -3.0745
 2851SOL     OW11444   2.221   8.609   1.863  0.1686  0.3814  0.4323
 2851SOL    HW111445   2.159   8.563   1.806 -2.0246  1.6693  1.6293
 2851SOL    HW211446   2.287   8.643   1.804 -0.4030 -0.8043 -0.9591
 2852SOL     OW11447   0.497   3.794   7.331 -0.0639  0.3115  0.1344
 2852SOL    HW111448   0.514   3.831   7.417  0.4453 -0.8385  0.5496
 2852SOL    HW211449   0.482   3.701   7.347  0.4117  0.0081 -1.0492
 2853SOL     OW11450   4.507   7.540   1.885 -0.0327 -0.1567 -0.0976
 2853SOL    HW111451   4.523   7.473   1.951 -0.1691 -0.0450  0.0493
 2853SOL    HW211452   4.434   7.591   1.919  0.3647  0.3516  0.0131
 2854SOL     OW11453   7.210   1.530   8.408  0.2063  0.1215  0.1739
 2854SOL    HW111454   7.275   1.583   8.454  0.8093  0.0313 -0.5491
 2854SOL    HW211455   7.193   1.457   8.467  0.5208  0.3201  0.5168
 2855SOL     OW11456   5.647   6.168   6.461 -0.1015  0.0946  0.1963
 2855SOL    HW111457   5.709   6.099   6.438  1.0649  0.5300  1.8158
 2855SOL    HW211458   5.647   6.226   6.386 -1.0753 -1.6014 -1.1863
 2856SOL     OW11459   0.763   3.856   0.399  0.2523 -0.1623  0.2204
 2856SOL    HW111460   0.714   3.915   0.456  1.4425  1.6151 -0.5158
 2856SOL    HW211461   0.795   3.787   0.458  1.2578  1.4874  1.7055
 2857SOL     OW11462   2.072   9.417   8.419  0.2398 -0.0261 -0.0015
 2857SOL    HW111463   2.083   9.329   8.382  0.0035 -0.6906  1.4522
 2857SOL    HW211464   2.029   9.467   8.349  1.3145 -0.7579 -1.2344
 2858SOL     OW11465   5.594   0.983   3.239  0.4130  0.1564  0.1573
 2858SOL    HW111466   5.606   0.904   3.291 -0.6198  1.0784  1.8965
 2858SOL    HW211467   5.638   0.965   3.156  1.7700 -1.5220  1.1973
 2859SOL     OW11468   8.130   9.219   7.344  0.1366 -0.4402 -0.0939
 2859SOL    HW111469   8.142   9.202   7.250  1.7710 -1.3579  0.2429
 2859SOL    HW211470   8.117   9.314   7.350  2.5227  0.0148 -1.0708
 2860SOL     OW11471   4.446   3.404   0.434  0.0364 -0.0727 -0.2009
 2860SOL    HW111472   4.412   3.483   0.391  0.2476 -0.0228 -0.2784
 2860SOL    HW211473   4.534   3.394   0.399  0.6320  0.5956  1.0552
 2861SOL     OW11474   8.886   6.523   0.021 -0.9547 -0.3511  0.0792
 2861SOL    HW111475   8.848   6.594  -0.030  0.9265  1.0493  0.5395
 2861SOL    HW211476   8.820   6.505   0.089 -1.5740  0.7703 -0.1965
 2862SOL     OW11477   0.091   3.703   2.202 -0.3736 -0.0887 -0.6805
 2862SOL    HW111478   0.005   3.744   2.210  0.5730  1.7528  1.1296
 2862SOL    HW211479   0.102   3.655   2.284  0.1107 -0.7637 -1.1331
 2863SOL     OW11480   3.080   5.425   2.984 -0.9956  0.1714 -0.1294
 2863SOL    HW111481   3.008   5.488   2.986 -0.7885  0.4124 -0.2607
 2863SOL    HW211482   3.068   5.372   3.063  0.5493  2.2884  1.6383
 2864SOL     OW11483   5.432   2.637   0.459  0.1235  0.7375  0.5731
 2864SOL    HW111484   5.498   2.704   0.472 -0.1851  1.3990 -0.9704
 2864SOL    HW211485   5.456   2.595   0.376  0.3370 -1.1144  1.5288
 2865SOL     OW11486   0.869   3.355   5.086  0.1495  0.5664 -0.0805
 2865SOL    HW111487   0.903   3.291   5.149  0.2698 -0.1924 -0.8916
 2865SOL    HW211488   0.946   3.398   5.051  0.0263  1.7866  1.0823
 2866SOL     OW11489   3.781   1.025   6.023  0.0284 -0.6276 -0.6172
 2866SOL    HW111490   3.704   1.073   5.992 -1.5816 -0.7031  2.8518
 2866SOL    HW211491   3.850   1.090   6.028 -0.6532  0.1333 -0.9522
 2867SOL     OW11492   6.672   7.176   8.722  0.2222 -0.5074  0.2785
 2867SOL    HW111493   6.640   7.088   8.738  3.1060 -1.4274  1.7643
 2867SOL    HW211494   6.616   7.232   8.775 -2.3692 -1.2055 -1.5549
 2868SOL     OW11495   4.563   7.859   7.425 -0.3712 -0.2466 -0.5748
 2868SOL    HW111496   4.603   7.876   7.510  1.8818  0.3447 -1.6839
 2868SOL    HW211497   4.634   7.823   7.372 -1.8610 -1.0806 -2.0783
 2869SOL     OW11498   0.358   0.669   1.572 -0.4659  0.0504  0.4194
 2869SOL    HW111499   0.347   0.650   1.665 -0.1712  0.9338  0.6426
 2869SOL    HW211500   0.436   0.619   1.546 -0.0203  0.5022  0.8672
 2870SOL     OW11501   0.893   3.029   8.947  0.0442  0.5176 -0.1139
 2870SOL    HW111502   0.894   2.986   8.861 -2.1049  0.9424 -0.4081
 2870SOL    HW211503   0.867   3.119   8.929 -1.4334  0.3578  1.0484
 2871SOL     OW11504   3.509   9.250   2.713  0.0914  0.2345  0.1975
 2871SOL    HW111505   3.506   9.336   2.671 -0.4102  0.5770  0.9141
 2871SOL    HW211506   3.576   9.259   2.781  0.3740 -0.0879 -0.0377
 2872SOL     OW11507   9.045   4.384   4.528  0.3880  0.9539 -0.0503
 2872SOL    HW111508   9.128   4.366   4.571  0.1481  0.9151  0.4086
 2872SOL    HW211509   8.979   4.350   4.589 -0.0185  2.2160  0.2451
 2873SOL     OW11510   1.793   1.606   4.874 -0.7506 -0.4743 -0.0125
 2873SOL    HW111511   1.723   1.620   4.811 -0.3529 -3.6848 -1.3422
 2873SOL    HW211512   1.757   1.636   4.957 -2.7684  0.1911 -1.0550
 2874SOL     OW11513   1.519   2.676   5.477 -0.4499 -0.7274 -0.3181
 2874SOL    HW111514   1.438   2.723   5.499 -1.9287 -1.8551 -2.8165
 2874SOL    HW211515   1.574   2.685   5.554 -2.1546  1.7993  0.7415
 2875SOL     OW11516   4.269   6.914   4.555 -0.6013  0.0724  0.1148
 2875SOL    HW111517   4.196   6.857   4.528  1.1526 -1.0123 -2.8140
 2875SOL    HW211518   4.330   6.854   4.597  0.9614 -0.2703 -2.4041
 2876SOL     OW11519   1.892   8.015   2.739  0.2541 -0.2097 -0.5272
 2876SOL    HW111520   1.841   7.985   2.664  0.0495  0.7357 -0.7787
 2876SOL    HW211521   1.849   8.096   2.767  1.0138  0.0652 -0.1144
 2877SOL     OW11522   1.990   7.776   5.916  0.4080  0.0305 -0.4792
 2877SOL    HW111523   2.074   7.820   5.920  0.0065  0.6827  1.5381
 2877SOL    HW211524   1.993   7.710   5.985 -1.1954  0.9680  0.5588
 2878SOL     OW11525   3.624   0.260   9.618 -0.3225 -0.0094  0.3660
 2878SOL    HW111526   3.539   0.285   9.655 -0.8447 -1.2836  0.0830
 2878SOL    HW211527   3.682   0.251   9.694 -0.6400  0.1451  0.6269
 2879SOL     OW11528   6.463   3.053   2.876 -0.2582 -0.6503 -0.3962
 2879SOL    HW111529   6.387   3.097   2.914 -0.6328 -0.6854 -1.0884
 2879SOL    HW211530   6.538   3.104   2.905 -0.4609 -1.1289  1.0293
 2880SOL     OW11531   5.842   8.293   5.591  0.0199 -0.5094  0.5402
 2880SOL    HW111532   5.900   8.342   5.533 -0.1636 -0.2098  0.6088
 2880SOL    HW211533   5.755   8.330   5.575 -0.2444 -1.3449  0.0277
 2881SOL     OW11534   1.360   5.536   5.479 -0.2908  0.5436  0.1459
 2881SOL    HW111535   1.358   5.441   5.486 -1.2946  0.4718 -0.8032
 2881SOL    HW211536   1.279   5.558   5.433  0.3410  1.7873 -0.4100
 2882SOL     OW11537   3.829   7.299   4.577  0.0021 -0.1726 -0.4968
 2882SOL    HW111538   3.888   7.251   4.634  2.0894 -0.7441 -2.9750
 2882SOL    HW211539   3.793   7.369   4.633  1.0994 -1.2925  1.7304
 2883SOL     OW11540   4.946   2.028   6.920  0.1827  0.3161 -0.3123
 2883SOL    HW111541   4.906   2.039   6.834 -2.0457 -1.6652  0.3712
 2883SOL    HW211542   5.040   2.039   6.904 -0.2458  1.1566 -2.7469
 2884SOL     OW11543   0.351   9.347   9.332  0.1320 -0.1181 -0.2941
 2884SOL    HW111544   0.441   9.372   9.351 -0.9053  1.9928  2.6536
 2884SOL    HW211545   0.321   9.410   9.267  0.1751  0.6327  0.3962
 2885SOL     OW11546   5.610   8.228   9.072  0.0831 -0.1686 -0.2197
 2885SOL    HW111547   5.565   8.262   9.150 -0.2094  0.5349 -0.6806
 2885SOL    HW211548   5.539   8.215   9.008  0.4150  0.0132 -0.6263
 2886SOL     OW11549   6.325   0.405   1.257  0.3365  0.1697  0.2318
 2886SOL    HW111550   6.247   0.353   1.275  1.4873 -2.4590 -1.5369
 2886SOL    HW211551   6.382   0.390   1.332 -0.0925  0.5045  0.6292
 2887SOL     OW11552   3.434   3.581   7.490 -0.2769  0.2513  0.0734
 2887SOL    HW111553   3.485   3.655   7.459  0.6639 -0.4822 -0.1782
 2887SOL    HW211554   3.372   3.619   7.553 -1.0625  1.5108 -1.3768
 2888SOL     OW11555   8.208   2.628   4.241  0.2812  0.4459  0.8631
 2888SOL    HW111556   8.222   2.554   4.182 -3.4405  1.4617 -1.6867
 2888SOL    HW211557   8.232   2.595   4.328  3.7051 -1.9452 -0.7626
 2889SOL     OW11558   7.476   9.517   8.102  0.5210 -0.1110 -0.5581
 2889SOL    HW111559   7.396   9.566   8.119  0.5027 -0.0351 -0.8565
 2889SOL    HW211560   7.472   9.442   8.161  0.6591  0.3701  0.0715
 2890SOL     OW11561   5.182   0.335   1.881  0.2321 -0.4516  0.3311
 2890SOL    HW111562   5.261   0.358   1.832 -1.1081 -0.1551 -1.8100
 2890SOL    HW211563   5.204   0.253   1.926  0.8616 -2.0045 -2.5802
 2891SOL     OW11564   3.878   0.632   3.512 -0.3350 -0.5651 -0.6215
 2891SOL    HW111565   3.894   0.724   3.535 -2.0017  0.6390 -3.7186
 2891SOL    HW211566   3.953   0.607   3.458  0.7787 -1.5391  1.2876
 2892SOL     OW11567   1.880   7.180   4.983 -0.0120  0.5069  0.4213
 2892SOL    HW111568   1.917   7.237   5.049  0.3318  2.1025 -1.0768
 2892SOL    HW211569   1.786   7.183   4.998 -0.0939  2.2982 -0.2180
 2893SOL     OW11570   7.820   5.383   1.259 -0.5543 -0.3020  0.0697
 2893SOL    HW111571   7.742   5.416   1.303 -0.1195  1.0188 -0.1042
 2893SOL    HW211572   7.790   5.360   1.171 -0.5441  1.4007 -0.4251
 2894SOL     OW11573   1.297   0.111   8.336  0.2920  0.3811 -0.5030
 2894SOL    HW111574   1.376   0.103   8.389  0.5262  1.7808 -0.6033
 2894SOL    HW211575   1.329   0.124   8.247 -0.0504  0.5688 -0.6036
 2895SOL     OW11576   0.436   1.365   3.101  0.7030 -0.3124 -0.3673
 2895SOL    HW111577   0.435   1.332   3.011 -0.9182  0.0870 -0.5251
 2895SOL    HW211578   0.424   1.288   3.155 -0.7838 -0.2843 -0.6270
 2896SOL     OW11579   3.120   9.562   2.683 -0.3740  0.0196  0.1314
 2896SOL    HW111580   3.174   9.516   2.619 -0.1937 -1.3757  1.2427
 2896SOL    HW211581   3.050   9.603   2.630  0.9627  0.7219 -1.1627
 2897SOL     OW11582   7.676   1.450   2.864 -0.4706  0.2178 -0.1461
 2897SOL    HW111583   7.593   1.411   2.894 -0.6749  0.6243 -0.1681
 2897SOL    HW211584   7.702   1.397   2.789 -1.4383  0.9205 -1.0085
 2898SOL     OW11585   8.228   0.150   9.373  0.7645  0.1209  0.1283
 2898SOL    HW111586   8.283   0.077   9.345  1.7400 -0.6375  3.5331
 2898SOL    HW211587   8.284   0.227   9.365  1.0847 -0.1097  0.1340
 2899SOL     OW11588   1.248   3.460   3.140 -0.0359  0.0328  0.4669
 2899SOL    HW111589   1.215   3.495   3.057  0.9720 -0.9071 -0.3649
 2899SOL    HW211590   1.267   3.538   3.193 -1.6664  0.6218  0.2291
 2900SOL     OW11591   4.053   1.589   3.999  0.0982  0.6996  0.2647
 2900SOL    HW111592   4.098   1.627   3.924  2.3010 -0.1442  1.0890
 2900SOL    HW211593   4.107   1.514   4.025 -1.6606 -0.2273  1.5031
 2901SOL     OW11594   6.904   1.683   6.847 -0.1329  0.0997  0.7451
 2901SOL    HW111595   6.834   1.687   6.782  0.7269 -0.6711 -0.2787
 2901SOL    HW211596   6.949   1.766   6.839 -0.5726  0.3650  0.9961
 2902SOL     OW11597   7.410   8.811   9.161 -0.3215  0.8074 -0.1542
 2902SOL    HW111598   7.483   8.783   9.107 -0.1953  2.4144 -0.8693
 2902SOL    HW211599   7.415   8.906   9.162 -1.2055  0.8857  1.4751
 2903SOL     OW11600   3.780   7.121   0.751 -0.5693  0.2914 -0.4794
 2903SOL    HW111601   3.812   7.091   0.836 -2.1429  0.7004  0.2904
 2903SOL    HW211602   3.787   7.216   0.755 -0.3505  0.2957 -0.9393
 2904SOL     OW11603   0.233   1.648   2.008 -0.2653  0.0186  0.1541
 2904SOL    HW111604   0.284   1.697   2.071  0.3191 -0.6312  0.1964
 2904SOL    HW211605   0.205   1.713   1.944  0.4678  0.4138  0.2258
 2905SOL     OW11606   4.906   0.200   1.098 -0.1820  0.0396  0.6567
 2905SOL    HW111607   4.948   0.286   1.092  1.0205 -0.5773 -0.1203
 2905SOL    HW211608   4.928   0.168   1.185  2.1159 -0.8057 -0.1626
 2906SOL     OW11609   8.658   3.648   3.394 -0.9696  0.1251 -0.4036
 2906SOL    HW111610   8.677   3.707   3.467 -0.7248 -0.4837  0.0405
 2906SOL    HW211611   8.743   3.612   3.369 -0.9130  1.0553 -1.6543
 2907SOL     OW11612   1.580   5.289   2.512  0.8923  0.1451  0.3203
 2907SOL    HW111613   1.516   5.353   2.545  0.1980  0.5254 -1.6433
 2907SOL    HW211614   1.628   5.336   2.445  1.6501 -0.8594  0.1380
 2908SOL     OW11615   1.043   8.036   0.408  0.6274  0.4490 -0.3881
 2908SOL    HW111616   0.996   8.107   0.451  0.0644  0.4359 -0.9690
 2908SOL    HW211617   0.992   8.018   0.329  0.8169 -0.5246 -0.3004
 2909SOL     OW11618   9.524   8.618   4.680 -1.0004  0.4245 -0.6691
 2909SOL    HW111619   9.488   8.543   4.632  1.0593 -1.7385  0.9603
 2909SOL    HW211620   9.600   8.645   4.628 -0.5462  0.0373 -0.2141
 2910SOL     OW11621   7.896   6.309   5.488  0.2754 -0.1640 -0.1037
 2910SOL    HW111622   7.985   6.342   5.500 -0.3492  2.7116 -2.2222
 2910SOL    HW211623   7.900   6.258   5.407  0.0591 -0.2853 -0.0398
 2911SOL     OW11624   8.229   9.226   3.140 -0.4829 -0.0845  0.1221
 2911SOL    HW111625   8.229   9.212   3.234 -1.9841 -0.5884  0.0694
 2911SOL    HW211626   8.137   9.219   3.114 -0.2755  1.3397 -1.1889
 2912SOL     OW11627   1.644   0.936   1.708 -0.8372 -0.3389 -0.2250
 2912SOL    HW111628   1.678   0.908   1.623  1.5596 -0.2933  0.6334
 2912SOL    HW211629   1.627   1.030   1.697 -3.1128 -0.8140 -1.3567
 2913SOL     OW11630   9.022   5.007   4.801  0.4287  0.4272 -0.2273
 2913SOL    HW111631   8.950   4.947   4.819  0.6052 -0.0177 -0.9884
 2913SOL    HW211632   8.982   5.094   4.804 -0.0958  0.1947 -0.4159
 2914SOL     OW11633   5.949   8.229   9.287  0.1208  0.5643  0.9488
 2914SOL    HW111634   6.040   8.254   9.299  0.9215 -1.3496 -0.4754
 2914SOL    HW211635   5.923   8.271   9.205  0.7335 -1.2075 -0.2196
 2915SOL     OW11636   2.001   0.620   8.959 -0.3211 -0.3052 -0.0698
 2915SOL    HW111637   1.920   0.574   8.978 -0.4602 -1.2200 -2.5401
 2915SOL    HW211638   2.069   0.570   9.005 -0.8154 -1.2794 -0.3920
 2916SOL     OW11639   7.390   1.123   9.300  0.3085 -0.3483 -0.4852
 2916SOL    HW111640   7.468   1.074   9.327  0.3619 -0.4813 -0.8791
 2916SOL    HW211641   7.322   1.095   9.362 -0.0397 -2.0005 -1.5360
 2917SOL     OW11642   4.896   6.093   6.613  0.4096 -0.4525  0.2281
 2917SOL    HW111643   4.861   6.180   6.594  1.6325  0.2412  1.0053
 2917SOL    HW211644   4.975   6.110   6.665  2.7169 -1.8062 -2.5095
 2918SOL     OW11645   9.074   3.474   9.349  0.6174  0.5820 -0.1479
 2918SOL    HW111646   9.102   3.511   9.265 -0.2101 -0.7956 -1.0629
 2918SOL    HW211647   9.138   3.405   9.367  0.9198  1.0176  0.4803
 2919SOL     OW11648   8.056   6.493   3.270 -0.8108 -0.4949  0.1188
 2919SOL    HW111649   8.112   6.491   3.348 -1.0954 -0.3643  0.3306
 2919SOL    HW211650   8.010   6.409   3.272 -2.2336  0.2664  1.1567
 2920SOL     OW11651   5.058   2.878   1.500 -0.1958 -0.5296  0.9440
 2920SOL    HW111652   5.031   2.792   1.468  0.1010 -0.6231  0.9449
 2920SOL    HW211653   4.988   2.937   1.471 -0.0736 -0.6592  0.3732
 2921SOL     OW11654   8.701   7.722   5.530 -0.6225  0.0212 -0.3254
 2921SOL    HW111655   8.662   7.645   5.572 -2.2974  0.9564 -0.0772
 2921SOL    HW211656   8.793   7.720   5.558 -1.4853  0.3183  3.0778
 2922SOL     OW11657   3.040   3.485   6.953 -0.2183  0.6268  0.0105
 2922SOL    HW111658   3.122   3.526   6.982  0.3994  1.6226 -2.8378
 2922SOL    HW211659   2.980   3.498   7.026  2.4625 -1.5037  2.9004
 2923SOL     OW11660   9.548   4.618   1.826 -0.8403 -0.1048  0.1618
 2923SOL    HW111661   9.607   4.615   1.751 -0.0304  0.0482  0.7866
 2923SOL    HW211662   9.580   4.691   1.879 -1.0248 -0.5952  0.9658
 2924SOL     OW11663   4.223   5.045   9.161  0.2302 -0.4102 -0.2267
 2924SOL    HW111664   4.192   5.116   9.105 -0.7936 -1.4899 -1.0904
 2924SOL    HW211665   4.243   5.087   9.244  1.0509  1.1193 -1.1296
 2925SOL     OW11666   0.403   1.831   0.930  0.3340  0.1211  0.2130
 2925SOL    HW111667   0.444   1.908   0.889  1.3587 -0.7914 -0.5554
 2925SOL    HW211668   0.383   1.859   1.019  2.2073  0.7957  0.4770
 2926SOL     OW11669   8.357   0.857   0.410  0.4889  0.2125  0.7062
 2926SOL    HW111670   8.399   0.940   0.384 -0.9665  0.6195 -0.4944
 2926SOL    HW211671   8.263   0.874   0.400  0.0767 -1.0463  2.1708
 2927SOL     OW11672   3.184   3.246   9.517  0.1238  0.5930  0.2578
 2927SOL    HW111673   3.152   3.221   9.603 -2.1081 -0.9166 -0.9168
 2927SOL    HW211674   3.268   3.201   9.508 -0.1741 -0.1760  1.2194
 2928SOL     OW11675   8.251   9.587   6.908 -1.1112  0.0958  0.1763
 2928SOL    HW111676   8.321   9.631   6.956 -0.6933 -1.6311  1.2450
 2928SOL    HW211677   8.244   9.636   6.825 -0.5269  1.9546  1.1673
 2929SOL     OW11678   6.011   0.977   3.013 -0.4922 -0.1115  0.1453
 2929SOL    HW111679   6.055   0.914   3.070  0.7402  0.9516  0.4125
 2929SOL    HW211680   5.918   0.951   3.016  0.0081 -2.0737 -0.0022
 2930SOL     OW11681   7.436   4.908   8.217 -0.1288 -0.2745  0.3023
 2930SOL    HW111682   7.369   4.870   8.160  0.5923  0.4352 -1.0731
 2930SOL    HW211683   7.509   4.928   8.158  1.1816 -0.7516  1.7191
 2931SOL     OW11684   9.550   2.877   9.451 -0.4254 -0.7044 -0.8332
 2931SOL    HW111685   9.486   2.906   9.387 -1.3774  0.4839  0.5893
 2931SOL    HW211686   9.502   2.817   9.508  0.1765 -1.0987 -0.7244
 2932SOL     OW11687   5.678   4.850   9.643  0.1868 -0.1020 -0.7306
 2932SOL    HW111688   5.653   4.918   9.580  0.7852  1.5832  0.7941
 2932SOL    HW211689   5.765   4.823   9.615  1.5200  2.3815  0.6488
 2933SOL     OW11690   0.140   0.014   4.350 -0.2511 -0.3967 -0.0746
 2933SOL    HW111691   0.099   0.067   4.281 -1.2025 -0.0768  0.6985
 2933SOL    HW211692   0.220   0.061   4.373 -0.1635 -0.2644 -0.6532
 2934SOL     OW11693   5.163   2.772   0.882  0.1437  0.2228 -0.2428
 2934SOL    HW111694   5.195   2.685   0.858 -2.1855 -0.8223  0.2041
 2934SOL    HW211695   5.141   2.814   0.799 -1.2835 -0.6884 -0.3450
 2935SOL     OW11696   3.895   3.069   7.716 -0.7040  0.2680 -0.7569
 2935SOL    HW111697   3.804   3.056   7.740 -0.2990 -2.4822 -0.4289
 2935SOL    HW211698   3.896   3.152   7.668 -2.9180  1.6528  1.3827
 2936SOL     OW11699   2.340   9.497   1.340  0.4979 -0.4722  0.4194
 2936SOL    HW111700   2.338   9.449   1.258  1.0708  0.7026 -0.3096
 2936SOL    HW211701   2.261   9.551   1.338  0.7674 -0.0745  0.4009
 2937SOL     OW11702   3.380   7.672   0.808  0.1278  0.1511 -0.3483
 2937SOL    HW111703   3.327   7.660   0.729 -0.8310  1.1379  0.1101
 2937SOL    HW211704   3.358   7.760   0.838  1.5480  0.3183  0.2461
 2938SOL     OW11705   1.202   0.555   9.407  0.7872  0.4305  0.0371
 2938SOL    HW111706   1.278   0.569   9.465  0.6060  1.8059 -0.0342
 2938SOL    HW211707   1.174   0.643   9.382 -0.5707 -0.0748 -0.3017
 2939SOL     OW11708   6.230   2.161   5.324 -0.8812  0.1956 -1.1442
 2939SOL    HW111709   6.153   2.117   5.359 -1.5664 -0.2386 -3.0526
 2939SOL    HW211710   6.267   2.209   5.398 -2.2754 -0.5737  0.0919
 2940SOL     OW11711   5.716   8.968   5.488 -0.0701  0.5115 -0.2268
 2940SOL    HW111712   5.641   8.989   5.433 -1.4148 -0.0871  1.3066
 2940SOL    HW211713   5.759   8.895   5.444 -1.1298  0.0222 -0.4616
 2941SOL     OW11714   7.127   0.145   1.305  0.0127 -0.3619  0.4222
 2941SOL    HW111715   7.076   0.221   1.277  0.1536 -0.3912  0.0842
 2941SOL    HW211716   7.214   0.180   1.325  0.2658 -0.5298 -0.3487
 2942SOL     OW11717   2.412   8.011   9.472  0.2923  0.0642 -0.3155
 2942SOL    HW111718   2.380   7.931   9.514  1.2612 -0.2946 -0.2429
 2942SOL    HW211719   2.498   8.026   9.511  0.2068  1.0338 -0.4797
 2943SOL     OW11720   7.027   4.855   2.376 -0.2850 -0.5984 -0.5057
 2943SOL    HW111721   6.972   4.777   2.366 -0.0935 -0.5583 -2.1401
 2943SOL    HW211722   7.105   4.825   2.420 -0.8718 -1.0132  0.2673
 2944SOL     OW11723   6.617   4.673   0.910 -0.5610 -0.3900 -0.3565
 2944SOL    HW111724   6.673   4.628   0.847  0.0117 -1.9816  1.2250
 2944SOL    HW211725   6.578   4.603   0.962 -1.3798  0.8583  0.7813
 2945SOL     OW11726   9.446   8.834   6.463  0.0474 -0.1275 -0.1532
 2945SOL    HW111727   9.412   8.796   6.544  0.1897  1.7758  0.8508
 2945SOL    HW211728   9.368   8.858   6.414 -0.0676 -2.2394 -1.1465
 2946SOL     OW11729   7.461   5.995   2.286 -0.8169 -0.0181 -0.4211
 2946SOL    HW111730   7.519   5.923   2.260 -1.3199 -0.8010  0.5634
 2946SOL    HW211731   7.485   6.067   2.227  1.2208 -0.2721  0.0101
 2947SOL     OW11732   2.587   8.616   8.458 -0.8707  0.1274  0.2159
 2947SOL    HW111733   2.552   8.696   8.497 -2.0499 -0.3296  0.1239
 2947SOL    HW211734   2.526   8.547   8.484  0.1399 -0.7616  0.3163
 2948SOL     OW11735   5.777   1.753   1.862 -0.5364  0.1321  0.6057
 2948SOL    HW111736   5.715   1.694   1.903 -1.3021  0.8943  0.5776
 2948SOL    HW211737   5.861   1.735   1.905 -0.2265 -2.5136 -0.9371
 2949SOL     OW11738   9.626   2.356   3.036  0.4049 -0.5008 -0.0829
 2949SOL    HW111739   9.544   2.405   3.045 -0.2452 -1.4807 -0.4147
 2949SOL    HW211740   9.601   2.278   2.987  0.9993 -2.0346  1.9037
 2950SOL     OW11741   1.747   1.944   5.240 -0.3592 -0.6226  0.1302
 2950SOL    HW111742   1.805   1.891   5.184 -0.7184 -0.2221 -0.6378
 2950SOL    HW211743   1.679   1.976   5.180 -0.0210  0.9076  0.5393
 2951SOL     OW11744   6.118   0.133   9.018 -0.4924 -0.8553  0.3192
 2951SOL    HW111745   6.165   0.161   8.939 -1.3500 -0.3459 -0.0240
 2951SOL    HW211746   6.178   0.151   9.089  0.3870 -1.5231 -0.2288
 2952SOL     OW11747   9.567   1.825   2.184  0.3541 -0.0287  0.2469
 2952SOL    HW111748   9.570   1.805   2.090  0.6260 -0.9161  0.4356
 2952SOL    HW211749   9.474   1.829   2.205  0.1891  2.9034 -0.5953
 2953SOL     OW11750   0.241   2.180   8.209  0.5101 -0.0236  0.2251
 2953SOL    HW111751   0.153   2.201   8.176  0.7461  0.3689 -0.1717
 2953SOL    HW211752   0.289   2.149   8.132  0.8552  0.2031  0.3458
 2954SOL     OW11753   1.141   4.912   3.134  0.1949 -0.7134  0.8097
 2954SOL    HW111754   1.088   4.988   3.159 -1.8581 -2.4929  2.1785
 2954SOL    HW211755   1.138   4.912   3.038  0.4286  1.0003  0.7610
 2955SOL     OW11756   8.284   6.244   8.801 -0.2036 -0.5922  0.0452
 2955SOL    HW111757   8.326   6.326   8.775  1.2804 -1.4687 -0.4454
 2955SOL    HW211758   8.201   6.244   8.754  0.3311  0.0569 -0.9295
 2956SOL     OW11759   8.100   6.527   6.296 -0.2948  0.1679 -0.4711
 2956SOL    HW111760   8.014   6.485   6.299 -0.2990  0.1673 -0.5964
 2956SOL    HW211761   8.083   6.618   6.320 -0.4044  0.2852 -0.9930
 2957SOL     OW11762   5.101   3.218   3.693 -0.4691 -0.0159  0.1554
 2957SOL    HW111763   5.124   3.139   3.742  1.4676 -0.4575 -1.3506
 2957SOL    HW211764   5.164   3.284   3.723  0.0290  0.0111 -0.9249
 2958SOL     OW11765   5.524   3.777   4.371  0.3697 -0.2164  0.2222
 2958SOL    HW111766   5.517   3.873   4.374 -0.1204 -0.2755  1.3641
 2958SOL    HW211767   5.593   3.756   4.434  1.1412 -0.5716 -0.7204
 2959SOL     OW11768   3.334   5.448   2.427 -0.4016 -0.1793 -0.0760
 2959SOL    HW111769   3.257   5.499   2.402 -0.6690 -0.7164 -0.3817
 2959SOL    HW211770   3.395   5.512   2.462 -1.1855  0.1920  0.6544
 2960SOL     OW11771   3.686   8.824   6.982  0.2802  0.0334 -0.4554
 2960SOL    HW111772   3.672   8.872   7.064  0.8717  1.2693 -1.0644
 2960SOL    HW211773   3.613   8.761   6.979  1.3933 -1.5410  2.0560
 2961SOL     OW11774   8.554   0.748   1.306 -0.4960  0.4737 -0.4703
 2961SOL    HW111775   8.623   0.690   1.276  1.9328  2.6791  0.5279
 2961SOL    HW211776   8.510   0.699   1.376  1.7101 -0.0497  0.6095
 2962SOL     OW11777   9.582   7.633   9.049 -0.1793  0.1041 -0.1707
 2962SOL    HW111778   9.654   7.640   8.985 -1.1883 -0.6848 -1.4319
 2962SOL    HW211779   9.505   7.666   9.002 -1.0041 -0.7815  0.5265
 2963SOL     OW11780   3.842   9.166   0.092  0.7067 -0.2195  0.1162
 2963SOL    HW111781   3.778   9.231   0.062  2.1456  1.9327  1.4541
 2963SOL    HW211782   3.853   9.107   0.017 -2.2389 -0.2554 -0.4054
 2964SOL     OW11783   9.284   2.683   4.274 -0.0857 -0.1938  0.1344
 2964SOL    HW111784   9.215   2.722   4.327 -1.3142 -1.0008 -0.7976
 2964SOL    HW211785   9.243   2.668   4.189  2.2549  2.6067 -1.6904
 2965SOL     OW11786   0.129   6.527   7.272  0.4319  0.6323  0.0358
 2965SOL    HW111787   0.211   6.544   7.318 -0.2985  0.4058  1.4725
 2965SOL    HW211788   0.072   6.488   7.338 -0.4237 -0.3984 -1.2503
 2966SOL     OW11789   4.938   9.486   4.825 -0.3142 -0.0274 -0.0038
 2966SOL    HW111790   4.990   9.518   4.751 -0.2052 -1.8828 -0.7725
 2966SOL    HW211791   5.002   9.474   4.896  0.2719 -1.8154 -0.7902
 2967SOL     OW11792   6.864   6.942   9.626  0.1816  0.4778 -0.2888
 2967SOL    HW111793   6.944   6.889   9.617 -0.7111 -1.0474  0.3546
 2967SOL    HW211794   6.891   7.018   9.678  1.6587  1.0876 -1.8421
 2968SOL     OW11795   4.809   1.992   7.674  0.3257  0.6758 -0.1480
 2968SOL    HW111796   4.807   1.900   7.699  0.7576  0.7591  0.2043
 2968SOL    HW211797   4.822   1.992   7.580 -0.1031  0.3720 -0.2084
 2969SOL     OW11798   5.487   7.962   1.424  0.1836 -0.2791  0.5017
 2969SOL    HW111799   5.490   8.040   1.480 -0.3541 -0.0544  0.2245
 2969SOL    HW211800   5.396   7.955   1.397  0.4974 -0.1924 -0.6228
 2970SOL     OW11801   0.019   2.744   9.094 -0.1485  0.3871 -0.0680
 2970SOL    HW111802  -0.056   2.802   9.080 -1.1070 -0.8897 -0.3369
 2970SOL    HW211803   0.008   2.674   9.030  1.3955  0.2607 -0.2506
 2971SOL     OW11804   2.161   0.443   5.067  0.0013  0.4980  0.1033
 2971SOL    HW111805   2.118   0.528   5.057 -0.3235  0.2486 -0.7342
 2971SOL    HW211806   2.210   0.450   5.149  0.8941  1.8891 -0.5164
 2972SOL     OW11807   1.724   7.834   3.332 -0.2922  0.1166  0.0934
 2972SOL    HW111808   1.792   7.900   3.340 -1.3922  1.5918 -1.8453
 2972SOL    HW211809   1.678   7.837   3.416  0.3084  1.1017  0.4080
 2973SOL     OW11810   3.637   8.559   1.981  0.2142 -0.1508 -0.3008
 2973SOL    HW111811   3.663   8.577   1.891  1.1266  3.7886  0.5580
 2973SOL    HW211812   3.562   8.617   1.997  2.3195  2.1679  2.3751
 2974SOL     OW11813   5.204   8.384   6.139 -0.0089 -0.3225 -0.3630
 2974SOL    HW111814   5.292   8.388   6.101 -0.2829 -0.2692 -1.0108
 2974SOL    HW211815   5.204   8.304   6.193 -0.2024 -1.5136 -2.0445
 2975SOL     OW11816   0.434   7.801   3.775 -0.2480  0.0656 -0.3091
 2975SOL    HW111817   0.405   7.829   3.688  2.4640  1.3119 -0.9472
 2975SOL    HW211818   0.375   7.846   3.836  0.7408  3.2695 -1.4753
 2976SOL     OW11819   4.714   5.355   5.866  0.5771 -0.8289  0.1044
 2976SOL    HW111820   4.748   5.290   5.928  0.5933  0.6569  1.7050
 2976SOL    HW211821   4.791   5.405   5.839  0.1506  0.6100  1.4286
 2977SOL     OW11822   6.900   8.528   3.001  0.0419 -0.4240  0.1566
 2977SOL    HW111823   6.934   8.550   2.914 -0.5831 -0.4642 -0.0986
 2977SOL    HW211824   6.805   8.523   2.989  0.0640 -2.0699  0.4562
 2978SOL     OW11825   5.969   7.434   3.011 -0.2370  0.1135  0.5295
 2978SOL    HW111826   5.899   7.471   3.066 -1.0061  1.2835 -1.1346
 2978SOL    HW211827   5.982   7.500   2.943  0.1692 -1.5914 -1.0989
 2979SOL     OW11828   6.145   4.140   5.949  0.1128 -0.5657  0.0043
 2979SOL    HW111829   6.154   4.045   5.944 -1.2250 -0.8791  2.1694
 2979SOL    HW211830   6.168   4.171   5.861  0.6883 -2.8568 -0.7231
 2980SOL     OW11831   6.875   5.920   4.709  0.1391 -0.1675 -0.1705
 2980SOL    HW111832   6.795   5.874   4.734  0.0559 -0.4544 -0.9408
 2980SOL    HW211833   6.874   5.920   4.613  1.1347 -0.3092 -0.1885
 2981SOL     OW11834   0.178   7.186   5.202  0.4196  0.1770  0.1395
 2981SOL    HW111835   0.131   7.128   5.263 -0.2575 -1.2891 -1.6577
 2981SOL    HW211836   0.140   7.272   5.217 -3.9338 -1.0668 -1.9595
 2982SOL     OW11837   5.690   8.156   8.471  0.3373  0.3021 -0.2453
 2982SOL    HW111838   5.653   8.223   8.528  0.2810  0.0060  0.0651
 2982SOL    HW211839   5.726   8.205   8.397 -1.7909  0.5100 -1.1913
 2983SOL     OW11840   2.783   1.256   3.926  0.4199  0.2175 -0.0108
 2983SOL    HW111841   2.766   1.174   3.973 -1.8699 -0.4200 -1.7744
 2983SOL    HW211842   2.835   1.230   3.850  0.0165  0.4496 -0.3704
 2984SOL     OW11843   8.659   3.269   9.407  0.1002  0.1046 -0.2002
 2984SOL    HW111844   8.580   3.308   9.444  0.7612  0.0041  1.4269
 2984SOL    HW211845   8.728   3.293   9.468  1.2382 -0.2811 -1.2949
 2985SOL     OW11846   0.946   1.245   1.058  0.2097  0.4425  0.0842
 2985SOL    HW111847   0.961   1.285   1.144  0.0100 -1.1306  0.8898
 2985SOL    HW211848   0.852   1.256   1.043  0.2312  0.6560  0.1104
 2986SOL     OW11849   7.930   1.889   0.219 -0.0703 -0.0662 -0.7144
 2986SOL    HW111850   8.024   1.874   0.210  0.0611 -0.3233  0.8408
 2986SOL    HW211851   7.910   1.957   0.154  2.0515  3.1888  1.7227
 2987SOL     OW11852   4.652   4.132   0.146 -0.0960 -0.5843  0.1436
 2987SOL    HW111853   4.573   4.131   0.091 -0.1965  1.6038  0.1361
 2987SOL    HW211854   4.724   4.114   0.086 -0.3734 -0.0590 -0.3543
 2988SOL     OW11855   0.325   7.885   3.542  0.8444 -0.1849 -0.6677
 2988SOL    HW111856   0.348   7.909   3.453 -0.4322 -0.1615 -1.0087
 2988SOL    HW211857   0.241   7.929   3.558  1.2955  0.2155  0.7195
 2989SOL     OW11858   2.118   0.712   6.923  0.0675 -0.2354 -0.3273
 2989SOL    HW111859   2.151   0.799   6.901 -0.2578 -0.2782 -0.9931
 2989SOL    HW211860   2.048   0.695   6.860 -2.1784  0.3943  1.8398
 2990SOL     OW11861   1.822   1.357   8.493  0.4718  0.0187 -0.1700
 2990SOL    HW111862   1.797   1.372   8.584  1.6209  1.0684 -0.0020
 2990SOL    HW211863   1.740   1.337   8.448  0.2306 -4.1608  1.7135
 2991SOL     OW11864   7.939   9.266   2.861  0.4575 -0.1472  0.3067
 2991SOL    HW111865   7.957   9.220   2.943  1.6030 -0.8983 -0.3363
 2991SOL    HW211866   7.876   9.210   2.815  1.0527 -0.5721 -0.0148
 2992SOL     OW11867   2.248   4.124   6.315 -0.7648 -0.6975  0.0052
 2992SOL    HW111868   2.268   4.217   6.326 -3.1975 -0.0425 -0.4753
 2992SOL    HW211869   2.273   4.105   6.225 -0.5667 -0.4265  0.0008
 2993SOL     OW11870   5.940   1.014   3.874  0.0082  0.6307  0.2473
 2993SOL    HW111871   6.035   1.016   3.864  0.0491  1.6435  0.7703
 2993SOL    HW211872   5.919   1.094   3.921 -1.1996  0.8606 -0.6407
 2994SOL     OW11873   3.334   8.076   3.707 -0.7003  0.3578  0.1846
 2994SOL    HW111874   3.315   8.165   3.677  2.3962  0.9777 -0.3463
 2994SOL    HW211875   3.302   8.019   3.636 -0.2973  1.2767 -0.7657
 2995SOL     OW11876   7.307   1.858   8.212  0.4490 -0.5195  0.3258
 2995SOL    HW111877   7.364   1.782   8.208  2.8536  1.0905  1.5936
 2995SOL    HW211878   7.248   1.840   8.286  1.6269 -0.7925  1.2334
 2996SOL     OW11879   5.468   0.739   3.374 -0.2720 -0.4631 -0.3288
 2996SOL    HW111880   5.387   0.739   3.426 -0.1195  1.2624 -0.0272
 2996SOL    HW211881   5.505   0.652   3.388 -0.6861 -0.3649  1.7880
 2997SOL     OW11882   2.911   6.295   5.609 -0.2498 -0.3505  0.5029
 2997SOL    HW111883   2.849   6.222   5.611 -1.3760  0.6012  2.4000
 2997SOL    HW211884   2.925   6.317   5.701 -0.7802  2.5068 -0.0129
 2998SOL     OW11885   3.447   7.352   7.899 -0.3786 -0.0773 -0.1058
 2998SOL    HW111886   3.447   7.328   7.992 -0.2103  0.6060  0.0787
 2998SOL    HW211887   3.462   7.269   7.853 -1.1619 -0.5345  0.4388
 2999SOL     OW11888   2.543   2.404   4.991  0.8562 -0.2481 -0.1916
 2999SOL    HW111889   2.555   2.467   4.920  0.4871 -2.1610 -2.0661
 2999SOL    HW211890   2.449   2.406   5.008  0.7647 -0.6298 -0.6200
 3000SOL     OW11891   4.312   9.503   8.007  0.2359  0.1194  0.5724
 3000SOL    HW111892   4.332   9.419   8.049 -0.0027 -0.2676 -0.0714
 3000SOL    HW211893   4.216   9.505   8.001  0.3017 -0.4473 -1.1463
 3001SOL     OW11894   5.546   4.903   2.454  0.5506  0.2744  0.1528
 3001SOL    HW111895   5.523   4.963   2.383 -1.4242 -0.8223 -0.1996
 3001SOL    HW211896   5.641   4.910   2.461  0.6302  1.5976 -1.5200
 3002SOL     OW11897   0.686   7.265   1.820  0.6936 -0.0735  0.2067
 3002SOL    HW111898   0.735   7.326   1.765 -0.7417 -1.6311 -3.0267
 3002SOL    HW211899   0.752   7.207   1.858  1.6458  0.2241 -0.9655
 3003SOL     OW11900   9.062   1.187   6.458 -0.2469  0.2156  0.0595
 3003SOL    HW111901   9.080   1.189   6.552 -0.2574  0.7080  0.0562
 3003SOL    HW211902   9.067   1.279   6.432  0.1094  0.0420 -0.4886
 3004SOL     OW11903   1.274   9.362   5.956  0.2698 -0.1685 -0.5022
 3004SOL    HW111904   1.266   9.456   5.945 -1.3379 -0.2552 -0.3820
 3004SOL    HW211905   1.276   9.327   5.867 -0.5445 -0.0896 -0.5626
 3005SOL     OW11906   1.079   8.283   0.753  0.3707  0.1063 -0.0131
 3005SOL    HW111907   1.156   8.233   0.727 -0.4631 -1.0555 -0.3013
 3005SOL    HW211908   1.017   8.270   0.682  0.1346  1.5952 -0.1103
 3006SOL     OW11909   5.016   2.812   4.514 -0.0412 -0.0268  0.4096
 3006SOL    HW111910   4.958   2.770   4.578 -0.7209  0.5227  0.1725
 3006SOL    HW211911   5.100   2.769   4.526 -0.5098 -0.8882  0.7250
 3007SOL     OW11912   7.575   9.608   4.800  0.4936  0.0015  0.3372
 3007SOL    HW111913   7.597   9.528   4.848  0.9670  0.2435  0.5295
 3007SOL    HW211914   7.490   9.589   4.760  0.3099 -0.3755  0.8874
 3008SOL     OW11915   5.616   9.312   2.410 -0.4460  0.2576 -0.0886
 3008SOL    HW111916   5.707   9.334   2.424 -0.3687  0.0370 -0.2264
 3008SOL    HW211917   5.568   9.361   2.477 -0.4123  1.8249 -1.1701
 3009SOL     OW11918   4.939   8.565   2.743  0.4303  0.2264 -0.1598
 3009SOL    HW111919   4.951   8.520   2.826 -1.9361  0.0376  0.1497
 3009SOL    HW211920   4.993   8.644   2.750  1.8333 -0.7664  0.7093
 3010SOL     OW11921   2.008   0.938   2.701  0.2648  0.1472 -0.1126
 3010SOL    HW111922   2.039   1.002   2.637 -2.0323  1.3798 -0.1271
 3010SOL    HW211923   1.956   0.991   2.763  0.4893 -1.3486  1.4206
 3011SOL     OW11924   8.841   6.815   7.235  0.2058  0.0019  0.3223
 3011SOL    HW111925   8.873   6.754   7.301 -1.2456 -1.3646 -0.1873
 3011SOL    HW211926   8.747   6.822   7.252 -0.0505  0.2780 -1.0774
 3012SOL     OW11927   8.762   1.364   5.625  0.4015  0.2756 -0.0609
 3012SOL    HW111928   8.692   1.334   5.683 -0.4456  2.0520 -0.0686
 3012SOL    HW211929   8.822   1.290   5.618 -0.5966 -0.7112  1.3306
 3013SOL     OW11930   0.088   4.211   9.116 -0.4972  0.0988  0.3068
 3013SOL    HW111931   0.019   4.152   9.086 -0.2708 -0.3069  0.5765
 3013SOL    HW211932   0.169   4.164   9.098 -0.2375  0.9089 -0.7669
 3014SOL     OW11933   9.361   5.612   3.386 -0.1394  0.2149  0.1654
 3014SOL    HW111934   9.393   5.686   3.436 -0.8242 -0.1612  1.1881
 3014SOL    HW211935   9.359   5.643   3.295 -1.0586  1.6544  0.6605
 3015SOL     OW11936   8.027   6.075   2.115  0.1521 -0.0423 -0.2019
 3015SOL    HW111937   8.087   6.003   2.137  0.6578 -0.1098 -1.6843
 3015SOL    HW211938   7.940   6.035   2.114  0.1861 -0.1729  0.9420
 3016SOL     OW11939   4.891   6.337   1.584 -0.8703 -0.0708  0.5719
 3016SOL    HW111940   4.900   6.411   1.644  0.0480  0.2236  0.0919
 3016SOL    HW211941   4.799   6.312   1.590 -0.6889 -0.4104  2.5076
 3017SOL     OW11942   3.930   5.157   6.383 -0.8526  0.3409  0.5851
 3017SOL    HW111943   3.945   5.205   6.302 -1.1249  1.3552  1.1080
 3017SOL    HW211944   3.918   5.066   6.356  1.5057  0.2150 -0.2684
 3018SOL     OW11945   4.711   7.870   2.417  0.4799 -0.3488  0.1772
 3018SOL    HW111946   4.797   7.911   2.423 -0.0439  0.8382 -0.2316
 3018SOL    HW211947   4.650   7.943   2.410 -0.5391 -1.1859  0.1412
 3019SOL     OW11948   6.919   3.765   6.814  0.2322  0.0210  0.3244
 3019SOL    HW111949   6.863   3.804   6.747  0.2175 -0.6046 -0.0387
 3019SOL    HW211950   6.880   3.680   6.832  0.5086 -0.0120  0.7842
 3020SOL     OW11951   0.577   6.348   9.607 -0.0759  0.3764 -0.0433
 3020SOL    HW111952   0.486   6.372   9.623  0.0639  2.1853 -1.7158
 3020SOL    HW211953   0.619   6.353   9.694 -1.4658 -0.1433  0.6802
 3021SOL     OW11954   9.024   9.153   4.737  0.4057  0.0837 -0.1038
 3021SOL    HW111955   9.055   9.187   4.654 -1.5051 -1.0692 -1.3674
 3021SOL    HW211956   8.967   9.222   4.771 -0.3450 -0.2274 -0.7171
 3022SOL     OW11957   6.078   7.988   9.513 -0.0864  0.1834  0.3712
 3022SOL    HW111958   6.161   8.012   9.472  0.0942 -2.0128 -0.6950
 3022SOL    HW211959   6.102   7.954   9.599 -0.3886  3.9313  2.1341
 3023SOL     OW11960   6.340   1.488   0.502  0.6304  0.1353 -0.2884
 3023SOL    HW111961   6.377   1.406   0.534  0.6759  0.1137 -0.3963
 3023SOL    HW211962   6.380   1.555   0.556 -0.6999 -0.0433  0.9759
 3024SOL     OW11963   7.796   4.981   2.551  0.3098  1.0387 -0.3367
 3024SOL    HW111964   7.757   5.065   2.576 -0.5551  0.2072  1.3347
 3024SOL    HW211965   7.723   4.932   2.513  0.3953  0.4956  0.1744
 3025SOL     OW11966   5.768   8.155   9.516 -0.2070  0.3098  0.0109
 3025SOL    HW111967   5.752   8.237   9.562  1.6263  1.0990 -0.6497
 3025SOL    HW211968   5.822   8.180   9.441  0.5119 -1.5030 -0.1281
 3026SOL     OW11969   6.340   2.062   0.917  0.1777  0.1551  0.2721
 3026SOL    HW111970   6.253   2.031   0.891 -0.5036  1.1355  1.2844
 3026SOL    HW211971   6.400   1.996   0.882 -0.8722  0.0022 -1.3706
 3027SOL     OW11972   0.888   2.661   6.477  0.1520 -0.3577 -0.1684
 3027SOL    HW111973   0.826   2.734   6.474  0.9989  0.3500 -1.0701
 3027SOL    HW211974   0.880   2.619   6.391  1.6056  0.3344 -0.6603
 3028SOL     OW11975   5.524   0.742   8.913 -0.0762  0.2173 -0.2567
 3028SOL    HW111976   5.597   0.763   8.971 -0.4590 -0.9360  0.6915
 3028SOL    HW211977   5.448   0.783   8.954 -0.4312 -1.0090  0.3476
 3029SOL     OW11978   2.038   3.039   2.488  0.2532 -0.0267  0.0031
 3029SOL    HW111979   2.057   3.092   2.564 -0.2115  0.2633 -0.0739
 3029SOL    HW211980   1.949   3.006   2.503  0.9550 -1.7708  0.6124
 3030SOL     OW11981   1.804   6.993   1.781 -0.1178 -0.1196  0.2873
 3030SOL    HW111982   1.757   7.020   1.860 -1.2597  1.9396 -1.0145
 3030SOL    HW211983   1.888   6.961   1.813 -1.3467 -1.4032  2.4827
 3031SOL     OW11984   8.293   3.871   6.380 -0.0802  0.3244 -0.0218
 3031SOL    HW111985   8.377   3.911   6.357 -0.1939  0.3136 -0.4730
 3031SOL    HW211986   8.316   3.785   6.416  0.1000  0.3153 -0.1591
 3032SOL     OW11987   8.989   9.164   3.899  0.5736  0.0915  0.3859
 3032SOL    HW111988   8.986   9.156   3.804  1.8207 -0.0817  0.3418
 3032SOL    HW211989   8.937   9.090   3.931  0.0497  0.2214 -0.1553
 3033SOL     OW11990   3.163   4.598   6.746  0.4584 -0.1301 -0.5158
 3033SOL    HW111991   3.248   4.638   6.764 -0.0560 -0.5302  3.9705
 3033SOL    HW211992   3.141   4.550   6.826 -3.6754 -0.6571 -1.6941
 3034SOL     OW11993   6.642   0.442   4.372 -0.4887 -0.2372 -0.6572
 3034SOL    HW111994   6.638   0.391   4.290 -0.3215 -1.6039  0.1436
 3034SOL    HW211995   6.696   0.518   4.350  1.4269 -1.6899 -1.3049
 3035SOL     OW11996   0.285   4.229   9.417  0.3978 -0.5341 -0.3935
 3035SOL    HW111997   0.215   4.167   9.436  0.2877  0.0923  1.4630
 3035SOL    HW211998   0.336   4.188   9.347 -1.6327 -1.1278 -1.5907
 3036SOL     OW11999   4.859   8.911   4.986  0.4701  0.3226  0.8244
 3036SOL    HW112000   4.890   8.841   4.929 -2.3368 -0.9151  0.6873
 3036SOL    HW212001   4.937   8.965   5.001  1.5405  0.5320 -3.7899
 3037SOL     OW12002   0.070   2.934   7.880 -0.1281  0.5157  0.3708
 3037SOL    HW112003  -0.008   2.950   7.934  1.3842  1.8003  2.3383
 3037SOL    HW212004   0.080   2.839   7.880 -1.5533  0.3453  0.2542
 3038SOL     OW12005   9.104   6.741   3.430 -0.2027 -0.7443  0.4805
 3038SOL    HW112006   9.059   6.738   3.345  0.0630 -0.5357  0.3302
 3038SOL    HW212007   9.197   6.739   3.407 -0.0876  0.9636  0.6811
 3039SOL     OW12008   4.184   7.989   8.135 -0.7967 -0.0958 -0.2836
 3039SOL    HW112009   4.276   8.014   8.130 -0.2882 -1.4948  1.3244
 3039SOL    HW212010   4.152   8.033   8.214 -0.7876 -1.6960  0.6396
 3040SOL     OW12011   3.647   5.584   6.293 -0.4545 -0.1554 -0.6539
 3040SOL    HW112012   3.663   5.498   6.254  0.1216 -0.8263  0.9740
 3040SOL    HW212013   3.566   5.573   6.343 -0.5337  0.3312 -0.6718
 3041SOL     OW12014   0.171   4.253   5.743 -0.1471 -0.6268 -0.5754
 3041SOL    HW112015   0.118   4.245   5.822 -0.2237  2.2134 -0.2229
 3041SOL    HW212016   0.108   4.249   5.671 -0.6287  0.7650 -0.2564
 3042SOL     OW12017   0.929   8.256   8.066 -0.3985  0.1418 -0.1755
 3042SOL    HW112018   0.936   8.161   8.051  0.9474 -0.0104  1.1436
 3042SOL    HW212019   0.940   8.265   8.161 -3.6129  1.3924  0.2015
 3043SOL     OW12020   7.374   4.610   6.907 -0.1488  0.4860  0.2890
 3043SOL    HW112021   7.326   4.559   6.842  0.0465  0.6724 -0.0014
 3043SOL    HW212022   7.399   4.546   6.974  0.3175  0.1470 -0.1983
 3044SOL     OW12023   3.412   1.027   9.040 -0.2762 -0.0177  0.2559
 3044SOL    HW112024   3.376   1.011   9.127 -1.7869  1.0989 -0.1198
 3044SOL    HW212025   3.420   1.122   9.034  1.4566 -0.1606 -0.2103
 3045SOL     OW12026   7.477   4.260   4.842 -0.2661 -0.2676  0.1739
 3045SOL    HW112027   7.425   4.299   4.772 -0.3234 -1.7626 -0.6605
 3045SOL    HW212028   7.538   4.329   4.867 -0.3753  0.3823 -1.2141
 3046SOL     OW12029   0.047   8.780   0.802  0.1642 -0.6891  0.0523
 3046SOL    HW112030   0.104   8.823   0.866 -0.1832 -2.2003  1.4604
 3046SOL    HW212031   0.075   8.689   0.803  0.8320 -0.5807 -2.7853
 3047SOL     OW12032   3.899   6.808   0.370 -0.0014 -0.0539  0.1469
 3047SOL    HW112033   3.914   6.839   0.280  0.0124 -0.6300 -0.0517
 3047SOL    HW212034   3.918   6.885   0.424 -0.3059  0.3893 -0.3564
 3048SOL     OW12035   4.225   9.204   5.279 -0.2037 -0.5068  0.0301
 3048SOL    HW112036   4.248   9.216   5.187  0.2312 -1.9851 -0.0743
 3048SOL    HW212037   4.182   9.118   5.282 -0.1361 -0.5146  1.2116
 3049SOL     OW12038   1.221   9.212   4.617  0.7335 -0.5662 -0.0206
 3049SOL    HW112039   1.253   9.132   4.574  3.1321 -1.5096  3.1159
 3049SOL    HW212040   1.185   9.181   4.700  1.7869  1.5535  1.3093
 3050SOL     OW12041   6.803   8.232   6.743 -0.0871 -0.3938 -0.3741
 3050SOL    HW112042   6.846   8.317   6.736  0.3431 -0.6665 -1.2712
 3050SOL    HW212043   6.803   8.212   6.837  0.4216  0.2831 -0.2253
 3051SOL     OW12044   7.446   0.523   5.570  0.5279  0.0969  0.2587
 3051SOL    HW112045   7.515   0.506   5.633  1.3121 -0.4873 -0.7288
 3051SOL    HW212046   7.473   0.475   5.491 -0.6460  0.4344 -0.3714
 3052SOL     OW12047   3.583   0.824   0.984  0.0963  0.1601  0.3315
 3052SOL    HW112048   3.570   0.746   0.929  1.9565 -0.0905  0.1998
 3052SOL    HW212049   3.588   0.790   1.073 -0.4684  0.3079  0.4283
 3053SOL     OW12050   8.691   1.247   4.563  0.3635  0.1103 -0.4090
 3053SOL    HW112051   8.749   1.263   4.637 -0.4738  2.2213 -0.1428
 3053SOL    HW212052   8.737   1.181   4.511  2.5160  0.9404  0.3122
 3054SOL     OW12053   4.885   2.705   8.246 -0.2232  0.1419  0.0247
 3054SOL    HW112054   4.799   2.673   8.219 -0.0324  0.1650 -0.6320
 3054SOL    HW212055   4.930   2.627   8.279  0.6473 -0.5763 -2.6198
 3055SOL     OW12056   3.883   7.229   1.754  0.2139 -0.7379  0.1775
 3055SOL    HW112057   3.925   7.177   1.822  1.4045 -1.2011 -0.8657
 3055SOL    HW212058   3.905   7.183   1.672  1.2015  1.3054 -0.7895
 3056SOL     OW12059   7.724   9.014   6.226 -0.6239 -0.4339 -0.2080
 3056SOL    HW112060   7.772   9.092   6.253 -1.3015 -0.7928  2.3464
 3056SOL    HW212061   7.727   9.015   6.131  0.8225  1.7854 -0.2032
 3057SOL     OW12062   4.109   5.567   9.295 -0.1128 -0.3347  0.5584
 3057SOL    HW112063   4.076   5.572   9.384  0.6487  1.7714  0.7899
 3057SOL    HW212064   4.192   5.519   9.302 -0.9165 -1.7364  0.6738
 3058SOL     OW12065   0.338   5.779   5.849  0.1321 -0.3271  0.0895
 3058SOL    HW112066   0.376   5.717   5.786  1.2333 -0.6283  0.9980
 3058SOL    HW212067   0.390   5.858   5.837  0.0128 -0.2221  0.2797
 3059SOL     OW12068   9.380   5.052   7.949  0.1190  0.2076 -0.2291
 3059SOL    HW112069   9.442   4.982   7.932  0.0648  0.2950 -0.8085
 3059SOL    HW212070   9.411   5.125   7.895 -1.5287 -0.3395 -2.0683
 3060SOL     OW12071   2.477   6.846   4.635 -0.3450  0.6211 -0.2026
 3060SOL    HW112072   2.409   6.797   4.589 -0.9830  0.3583  0.9817
 3060SOL    HW212073   2.430   6.916   4.680  0.1750  0.5228  0.5154
 3061SOL     OW12074   5.882   4.998   0.998  0.0459  0.0170  0.3969
 3061SOL    HW112075   5.915   4.912   1.021  0.3230 -0.4217 -1.5060
 3061SOL    HW212076   5.788   4.985   0.984  0.0555  0.0600  0.2883
 3062SOL     OW12077   3.731   1.631   3.005  0.4809 -0.3170  0.1478
 3062SOL    HW112078   3.677   1.693   3.055  1.0051  1.0302 -0.8700
 3062SOL    HW212079   3.673   1.556   2.989 -0.5970  0.4372  0.3784
 3063SOL     OW12080   0.013   2.028   4.321  0.0291  0.0381  0.4473
 3063SOL    HW112081  -0.005   2.122   4.319  3.3535  0.8106  0.8455
 3063SOL    HW212082  -0.012   1.997   4.234 -0.1365  1.5193 -0.0626
 3064SOL     OW12083   8.345   5.850   1.505  0.2622  0.2607  1.1246
 3064SOL    HW112084   8.355   5.923   1.566 -2.5841 -0.5011  2.6659
 3064SOL    HW212085   8.309   5.891   1.426  0.0434  0.7334  1.4604
 3065SOL     OW12086   2.063   5.608   6.292  0.5403  0.3612 -0.2062
 3065SOL    HW112087   2.003   5.538   6.319 -0.4037  1.1496 -0.2196
 3065SOL    HW212088   2.120   5.620   6.368  1.2904 -1.0144 -0.5231
 3066SOL     OW12089   5.657   8.133   5.877 -0.1624  0.2586  0.2430
 3066SOL    HW112090   5.591   8.141   5.807 -0.7533  1.2483  0.8890
 3066SOL    HW212091   5.729   8.187   5.848  0.2422 -0.5523 -0.3040
 3067SOL     OW12092   0.843   4.516   9.370 -0.4984 -0.1440  0.2137
 3067SOL    HW112093   0.858   4.610   9.362 -1.6111 -0.0720 -1.6978
 3067SOL    HW212094   0.824   4.502   9.462  0.5511  1.3500  0.6937
 3068SOL     OW12095   8.455   8.879   3.171  0.1359 -0.0190  0.1461
 3068SOL    HW112096   8.548   8.884   3.196  0.4362  2.4793 -1.1965
 3068SOL    HW212097   8.437   8.785   3.169  2.3849 -0.5653  1.2530
 3069SOL     OW12098   5.136   4.498   7.617 -0.5995 -0.1353 -0.3649
 3069SOL    HW112099   5.049   4.465   7.595 -0.2972  0.6599 -3.0788
 3069SOL    HW212100   5.192   4.466   7.547  1.4702 -1.0581  1.5866
 3070SOL     OW12101   8.273   9.380   7.919  0.6199 -0.3812 -0.1105
 3070SOL    HW112102   8.266   9.353   7.827 -0.6104  1.4023 -0.5880
 3070SOL    HW212103   8.364   9.359   7.942  1.0597 -0.5620 -1.8259
 3071SOL     OW12104   5.596   1.616   9.580 -0.4877 -0.2714  0.2334
 3071SOL    HW112105   5.588   1.590   9.672 -1.1877 -3.4470 -0.5895
 3071SOL    HW212106   5.544   1.551   9.533  2.5558 -0.8409 -2.7018
 3072SOL     OW12107   9.356   7.511   8.588 -0.6062 -0.2113 -0.5493
 3072SOL    HW112108   9.294   7.438   8.588 -0.7473 -0.1402 -2.6104
 3072SOL    HW212109   9.439   7.471   8.562 -0.5685  0.2482 -1.1630
 3073SOL     OW12110   0.945   2.263   1.138 -0.5813  0.2056 -0.3409
 3073SOL    HW112111   0.876   2.274   1.204  1.4094  1.2149  1.7200
 3073SOL    HW212112   0.981   2.176   1.157  0.2975  0.6861  0.2464
 3074SOL     OW12113   0.382   1.408   1.937  0.2410 -0.2730  0.3634
 3074SOL    HW112114   0.325   1.359   1.997  0.6638  0.0701  1.0530
 3074SOL    HW212115   0.349   1.497   1.941 -1.1778 -0.6545 -1.6731
 3075SOL     OW12116   9.048   7.980   3.174 -0.0789 -0.8291  0.6175
 3075SOL    HW112117   9.070   8.042   3.105 -0.3326 -0.8155  0.5454
 3075SOL    HW212118   9.131   7.939   3.197  0.5274  1.1667  2.2738
 3076SOL     OW12119   4.022   1.711   8.938 -0.2921 -0.4471 -0.3303
 3076SOL    HW112120   3.959   1.674   8.876  1.1153 -2.2929 -0.7662
 3076SOL    HW212121   3.978   1.708   9.022 -0.8290 -1.6731 -0.6238
 3077SOL     OW12122   2.380   7.342   1.397 -0.3517  0.2394 -0.0795
 3077SOL    HW112123   2.293   7.333   1.436  0.7963 -1.3601  2.4017
 3077SOL    HW212124   2.424   7.407   1.451  0.6280 -0.4581 -0.0164
 3078SOL     OW12125   4.709   6.367   3.094  0.4311  0.1089 -0.1153
 3078SOL    HW112126   4.636   6.408   3.047  0.1351 -1.0319 -0.7031
 3078SOL    HW212127   4.749   6.309   3.029 -0.4773 -2.1456  1.2277
 3079SOL     OW12128   7.626   1.098   0.759  0.3209 -0.5052  0.2175
 3079SOL    HW112129   7.653   1.023   0.811 -0.1624 -0.7192  0.1663
 3079SOL    HW212130   7.585   1.158   0.822  1.2592  0.0004  0.3644
 3080SOL     OW12131   3.385   5.874   1.777  0.4739 -0.3450  0.2019
 3080SOL    HW112132   3.446   5.805   1.751  0.4004 -0.8132  1.2261
 3080SOL    HW212133   3.390   5.938   1.707  1.1300 -1.0241 -0.3867
 3081SOL     OW12134   6.605   2.774   6.485  0.0578 -0.2930  0.4509
 3081SOL    HW112135   6.545   2.793   6.557 -0.0159  3.0485 -0.3589
 3081SOL    HW212136   6.681   2.829   6.502  0.4362 -0.1451 -1.5455
 3082SOL     OW12137   4.793   9.270   6.063  0.3360  0.1188 -0.2141
 3082SOL    HW112138   4.739   9.321   6.002  0.5156 -0.4849 -0.8852
 3082SOL    HW212139   4.881   9.307   6.055  0.5714 -0.6153 -1.0695
 3083SOL     OW12140   4.211   5.054   3.075 -0.8018 -0.1432 -0.7488
 3083SOL    HW112141   4.145   5.060   3.144  0.4208 -0.6159  0.5071
 3083SOL    HW212142   4.266   4.980   3.101  2.9972  2.8540  0.8029
 3084SOL     OW12143   2.908   3.829   9.143  0.1787 -0.0426  0.1647
 3084SOL    HW112144   2.869   3.811   9.057 -0.3193  0.0291  0.3779
 3084SOL    HW212145   2.891   3.750   9.194 -0.6483  0.4108  0.6056
 3085SOL     OW12146   9.179   4.035   8.200  0.0986 -0.0085 -0.0202
 3085SOL    HW112147   9.262   4.082   8.204 -0.1951  0.6646 -1.2079
 3085SOL    HW212148   9.161   4.026   8.107 -0.9207 -0.5807  0.2139
 3086SOL     OW12149   9.043   7.523   3.445 -0.3326  0.2746  0.0785
 3086SOL    HW112150   8.957   7.502   3.407  0.3192 -0.7388 -0.8690
 3086SOL    HW212151   9.106   7.482   3.387  0.7730  0.1377  1.3253
 3087SOL     OW12152   3.971   2.924   4.734  0.1984  0.4316  0.3949
 3087SOL    HW112153   4.013   3.010   4.735  1.1122 -0.0059  0.4199
 3087SOL    HW212154   4.020   2.872   4.797  0.8305 -0.6552 -0.9420
 3088SOL     OW12155   7.769   6.628   4.340  0.7078  0.2739  0.1948
 3088SOL    HW112156   7.730   6.651   4.424  0.8026  1.6371 -0.0964
 3088SOL    HW212157   7.862   6.645   4.351  0.8442 -0.4033  0.0863
 3089SOL     OW12158   9.051   5.799   6.506  0.4539  0.4590  0.4189
 3089SOL    HW112159   9.051   5.861   6.578 -0.8756 -0.5297  1.3339
 3089SOL    HW212160   8.982   5.736   6.529  0.3493 -0.1745 -1.4653
 3090SOL     OW12161   2.100   1.011   7.967 -0.0803 -0.3455  0.4888
 3090SOL    HW112162   2.059   1.022   8.052  0.2336 -0.5144  0.6647
 3090SOL    HW212163   2.186   1.053   7.977 -0.8122  1.4745 -0.3644
 3091SOL     OW12164   7.040   6.450   7.549  0.2022 -0.4318  0.3665
 3091SOL    HW112165   7.071   6.362   7.526 -0.1292 -0.4871  0.1248
 3091SOL    HW212166   7.096   6.509   7.497  2.3011 -0.3422  2.5652
 3092SOL     OW12167   7.753   0.129   3.141 -0.3365  0.3960 -0.3155
 3092SOL    HW112168   7.831   0.101   3.189  0.2863  0.2699 -1.3655
 3092SOL    HW212169   7.729   0.213   3.180 -0.2379 -0.0083  0.6409
 3093SOL     OW12170   8.615   4.420   8.531 -0.0653 -0.3502  0.4780
 3093SOL    HW112171   8.696   4.421   8.480  0.1013 -2.3873  0.6509
 3093SOL    HW212172   8.628   4.486   8.599  0.6657  0.6904 -0.6312
 3094SOL     OW12173   5.354   0.598   7.087  0.5351  0.3856 -0.6644
 3094SOL    HW112174   5.287   0.618   7.022  1.5911 -0.3457 -2.0418
 3094SOL    HW212175   5.329   0.511   7.120 -0.2199  0.9271  0.2181
 3095SOL     OW12176   5.437   3.549   6.801 -0.3274  0.6090 -0.1329
 3095SOL    HW112177   5.444   3.457   6.827 -2.3885 -0.1351 -1.8915
 3095SOL    HW212178   5.527   3.581   6.803  0.3101 -1.0655  1.6977
 3096SOL     OW12179   6.392   0.815   6.448  0.2060 -0.5323  0.4446
 3096SOL    HW112180   6.432   0.899   6.427  0.5436 -0.7503  0.2003
 3096SOL    HW212181   6.348   0.830   6.532 -0.7008  0.1982 -0.1352
 3097SOL     OW12182   1.702   8.660   2.458 -0.6351 -0.6252 -0.5493
 3097SOL    HW112183   1.744   8.576   2.437 -0.5290 -0.4832 -0.8915
 3097SOL    HW212184   1.609   8.638   2.467 -0.2894 -1.3755  2.3512
 3098SOL     OW12185   8.351   6.257   8.235 -0.4894  0.3385  0.3496
 3098SOL    HW112186   8.343   6.207   8.154 -1.5328  0.2476  0.4929
 3098SOL    HW212187   8.423   6.318   8.219  0.0454 -0.4324 -0.2327
 3099SOL     OW12188   9.384   3.211   5.448 -0.1629  0.9045 -0.2819
 3099SOL    HW112189   9.311   3.158   5.415 -0.0792  0.9391 -0.5252
 3099SOL    HW212190   9.439   3.225   5.371  1.8808 -1.9505  0.4837
 3100SOL     OW12191   3.813   4.958   2.181  0.0622  0.1875  0.1653
 3100SOL    HW112192   3.900   4.920   2.188  0.2047 -0.2996 -2.7641
 3100SOL    HW212193   3.798   5.002   2.264  1.6511 -2.6140  2.0807
 3101SOL     OW12194   7.130   6.884   2.186 -0.0965 -0.1055 -0.1483
 3101SOL    HW112195   7.200   6.896   2.122  0.4346  0.5438  0.5340
 3101SOL    HW212196   7.123   6.789   2.198 -1.2408 -0.3341 -2.2773
 3102SOL     OW12197   4.196   1.920   1.745  0.2811  0.3988  0.1052
 3102SOL    HW112198   4.262   1.990   1.748  0.5591  0.1014  1.6241
 3102SOL    HW212199   4.114   1.964   1.769  0.3792  0.2851  0.6482
 3103SOL     OW12200   1.933   8.683   1.644 -0.1376  0.7455  0.2004
 3103SOL    HW112201   1.966   8.615   1.585  0.0967 -1.9186  3.1609
 3103SOL    HW212202   1.846   8.653   1.670  0.8620  0.1377  3.3587
 3104SOL     OW12203   7.141   2.238   9.410 -0.5587 -0.0384 -0.1114
 3104SOL    HW112204   7.107   2.159   9.368  0.2636 -0.1934 -0.5013
 3104SOL    HW212205   7.091   2.246   9.491 -0.0628 -1.4429  0.3625
 3105SOL     OW12206   2.969   9.427   3.314 -0.2689  0.1581  0.1550
 3105SOL    HW112207   2.929   9.470   3.390  0.5194  0.4437  0.4310
 3105SOL    HW212208   2.905   9.436   3.244 -0.7928  0.3536  0.6528
 3106SOL     OW12209   3.821   2.741   1.235  0.2047  0.3045  0.5548
 3106SOL    HW112210   3.837   2.663   1.289  1.4516  1.7188  2.3834
 3106SOL    HW212211   3.907   2.782   1.227 -0.8812  3.5391  3.0690
 3107SOL     OW12212   5.903   9.473   0.518 -0.1411  0.5504 -0.1226
 3107SOL    HW112213   5.995   9.468   0.494 -0.4622 -2.0596 -1.1224
 3107SOL    HW212214   5.903   9.510   0.606  2.1814 -2.1753  1.1909
 3108SOL     OW12215   1.924   0.343   1.726  0.6780 -0.3338 -0.0812
 3108SOL    HW112216   1.838   0.322   1.763 -0.4069  0.6074 -1.9461
 3108SOL    HW212217   1.954   0.261   1.687 -0.3142 -0.1795 -1.1867
 3109SOL     OW12218   2.589   3.201   8.319  0.3980  0.1338  0.2115
 3109SOL    HW112219   2.608   3.134   8.253  3.0946  0.0517  0.9377
 3109SOL    HW212220   2.562   3.152   8.396 -2.3154  0.2106 -0.5779
 3110SOL     OW12221   3.889   8.208   0.496  0.2414 -0.4111 -0.5875
 3110SOL    HW112222   3.912   8.175   0.409  1.4285 -0.0055 -0.4459
 3110SOL    HW212223   3.973   8.215   0.542 -0.4579 -1.6156  0.9547
 3111SOL     OW12224   0.266   2.494   0.731 -0.0623 -0.8601  0.5135
 3111SOL    HW112225   0.177   2.500   0.696 -0.0365 -0.6076  0.4902
 3111SOL    HW212226   0.309   2.429   0.676  0.0350 -0.3299 -0.0407
 3112SOL     OW12227   7.642   5.472   3.982  0.3507  0.4242  0.4058
 3112SOL    HW112228   7.700   5.416   3.930  0.2157 -1.0546  1.7493
 3112SOL    HW212229   7.671   5.561   3.963  2.5915 -0.2368  0.4549
 3113SOL     OW12230   1.273   4.588   6.205 -0.0229  0.9179 -0.6923
 3113SOL    HW112231   1.343   4.527   6.180  1.1570  0.5760  2.8620
 3113SOL    HW212232   1.192   4.546   6.176  0.9828 -0.7164 -1.2507
 3114SOL     OW12233   4.392   6.573   7.882  0.0013  0.0276 -0.0666
 3114SOL    HW112234   4.454   6.505   7.857  0.0458  0.4496 -1.1358
 3114SOL    HW212235   4.376   6.623   7.802 -1.3045  0.2621  0.3077
 3115SOL     OW12236   1.487   4.802   6.114  0.8592 -0.0244 -0.0158
 3115SOL    HW112237   1.521   4.760   6.194  2.6693 -0.0402 -0.7482
 3115SOL    HW212238   1.424   4.739   6.079  0.8839 -0.5194  0.8003
 3116SOL     OW12239   8.280   1.699   8.367 -0.6717 -0.1626  0.0285
 3116SOL    HW112240   8.214   1.716   8.435 -0.5671  0.6095 -0.0456
 3116SOL    HW212241   8.353   1.757   8.390 -0.2402 -0.6094 -0.2007
 3117SOL     OW12242   0.967   8.750   3.636  0.1562  0.2404 -0.6874
 3117SOL    HW112243   0.974   8.674   3.693  0.8754  0.6368 -0.2314
 3117SOL    HW212244   0.948   8.713   3.549  0.1964 -0.4337 -0.4175
 3118SOL     OW12245   1.955   4.290   5.894  0.1319 -0.0073  1.2380
 3118SOL    HW112246   1.926   4.198   5.890  1.9077 -0.5984 -2.6281
 3118SOL    HW212247   1.878   4.340   5.865  0.4070 -0.8185 -1.1610
 3119SOL     OW12248   7.626   1.105   6.515 -0.3532  0.2918 -0.4141
 3119SOL    HW112249   7.646   1.140   6.428 -1.7546  0.7413 -0.5691
 3119SOL    HW212250   7.583   1.022   6.499  0.6033 -0.2781 -0.1012
 3120SOL     OW12251   0.199   5.302   8.254 -0.3218 -0.1723 -0.2911
 3120SOL    HW112252   0.264   5.237   8.227 -1.1490 -0.7757 -0.8581
 3120SOL    HW212253   0.115   5.256   8.251 -0.9107  0.8791 -0.5709
 3121SOL     OW12254   2.298   0.732   9.523 -0.1769  0.7865  0.0846
 3121SOL    HW112255   2.230   0.665   9.533  0.8932 -0.3192  0.1572
 3121SOL    HW212256   2.349   0.727   9.604  2.0960 -0.8418 -1.3503
 3122SOL     OW12257   3.607   1.528   3.287 -0.4667  0.7465 -0.0255
 3122SOL    HW112258   3.541   1.597   3.291 -0.5121  0.6997  0.0456
 3122SOL    HW212259   3.604   1.487   3.373 -0.0529  1.0119  0.1208
 3123SOL     OW12260   3.407   1.717   4.565 -0.3544 -0.0837 -0.4452
 3123SOL    HW112261   3.401   1.636   4.514  0.5277  0.5770 -1.6501
 3123SOL    HW212262   3.459   1.693   4.642 -1.3772 -1.0047 -0.0109
 3124SOL     OW12263   5.056   7.324   3.885  0.2210 -0.0157  0.3554
 3124SOL    HW112264   5.128   7.368   3.840 -0.5664 -0.5990 -1.5736
 3124SOL    HW212265   5.093   7.240   3.913  0.4356 -0.1083 -0.1975
 3125SOL     OW12266   8.727   7.033   2.765  0.4017  0.2275 -0.3634
 3125SOL    HW112267   8.664   7.019   2.835  0.2022 -0.5520 -0.6814
 3125SOL    HW212268   8.679   7.082   2.698  0.3219  0.1880 -0.3347
 3126SOL     OW12269   7.644   9.633   9.139  0.2723 -0.1612  0.0189
 3126SOL    HW112270   7.600   9.717   9.151 -0.0723 -0.3660  0.2044
 3126SOL    HW212271   7.688   9.617   9.223  1.0319  0.2293 -0.2941
 3127SOL     OW12272   4.911   4.137   8.066  0.3798  0.4515  0.4416
 3127SOL    HW112273   4.913   4.232   8.073  0.9568  0.5002 -0.2241
 3127SOL    HW212274   4.860   4.108   8.142 -1.1660  1.3728 -0.2049
 3128SOL     OW12275   7.681   4.291   3.668  0.2036  0.3326 -0.0130
 3128SOL    HW112276   7.710   4.245   3.747 -2.0746  1.2721  1.4700
 3128SOL    HW212277   7.589   4.267   3.659 -0.5654  3.1046 -0.2433
 3129SOL     OW12278   0.395   5.841   1.471  0.5520 -0.0919 -0.3215
 3129SOL    HW112279   0.424   5.754   1.496  1.1545  0.4107  0.8330
 3129SOL    HW212280   0.321   5.859   1.529 -0.3596 -0.2970 -1.3903
 3130SOL     OW12281   2.146   8.898   1.227  0.1656 -0.1556  0.0118
 3130SOL    HW112282   2.232   8.863   1.252 -0.8530 -1.7479  1.5983
 3130SOL    HW212283   2.089   8.874   1.301 -1.6746  0.6815 -1.0817
 3131SOL     OW12284   7.207   9.494   4.902 -0.2001  0.1694 -0.1753
 3131SOL    HW112285   7.233   9.581   4.871  0.6722 -0.1529 -0.3965
 3131SOL    HW212286   7.232   9.435   4.831 -1.3822 -0.1962 -0.2985
 3132SOL     OW12287   3.365   1.759   1.362 -0.4417  0.1896  0.0191
 3132SOL    HW112288   3.368   1.830   1.427  1.9239 -1.0064  1.3480
 3132SOL    HW212289   3.455   1.750   1.331 -0.8803 -1.5224 -0.9024
 3133SOL     OW12290   6.718   2.677   7.481  0.2321  0.1174 -0.0634
 3133SOL    HW112291   6.734   2.692   7.388  2.0861 -2.2253 -0.2307
 3133SOL    HW212292   6.728   2.764   7.521  2.6894  0.7122 -1.6989
 3134SOL     OW12293   6.641   8.700   9.042 -0.1652 -0.2736 -0.0921
 3134SOL    HW112294   6.602   8.653   9.116  1.2636  0.5367  1.2301
 3134SOL    HW212295   6.703   8.760   9.082 -0.7665  1.6139 -1.8432
 3135SOL     OW12296   7.470   9.491   3.717 -0.2799 -0.1385  0.1374
 3135SOL    HW112297   7.444   9.581   3.731  0.2594 -0.0341  0.5249
 3135SOL    HW212298   7.484   9.456   3.805  0.2786 -0.3627 -0.0346
 3136SOL     OW12299   5.802   5.818   0.560 -0.5291  0.8359  0.3869
 3136SOL    HW112300   5.834   5.809   0.649 -0.4211  1.0375  0.3695
 3136SOL    HW212301   5.878   5.796   0.505 -0.7832  0.0291  0.3377
 3137SOL     OW12302   2.111   6.255   7.208  0.1717 -0.3236 -0.3519
 3137SOL    HW112303   2.034   6.200   7.196 -0.0093 -0.0022 -0.6812
 3137SOL    HW212304   2.078   6.345   7.208  0.4876 -0.2013 -0.0156
 3138SOL     OW12305   6.350   7.197   4.048  0.1508 -0.3156 -0.4149
 3138SOL    HW112306   6.393   7.253   4.112  0.8676 -0.4523 -0.7671
 3138SOL    HW212307   6.406   7.119   4.042 -0.3152 -0.6402 -0.6434
 3139SOL     OW12308   0.210   4.338   0.081  0.1078  0.7195 -0.0316
 3139SOL    HW112309   0.228   4.340  -0.013  1.0999 -2.6451 -0.0362
 3139SOL    HW212310   0.287   4.297   0.119 -1.6737 -1.2317  1.7696
 3140SOL     OW12311   1.278   6.201   0.741 -0.7095  0.3473  0.7022
 3140SOL    HW112312   1.338   6.130   0.763 -2.7640 -1.4319  0.8722
 3140SOL    HW212313   1.209   6.159   0.690 -1.4263  2.4722 -0.1894
 3141SOL     OW12314   4.598   8.515   4.034  0.3748  0.2372  0.3901
 3141SOL    HW112315   4.552   8.572   4.095  0.5724 -0.1273  0.8815
 3141SOL    HW212316   4.597   8.429   4.076 -0.3949 -0.2518 -0.5785
 3142SOL     OW12317   3.991   5.262   7.981 -0.4355 -0.5900  0.9053
 3142SOL    HW112318   3.972   5.276   8.074 -0.6091 -0.1485  0.8065
 3142SOL    HW212319   3.917   5.210   7.949 -1.1326  0.5054  0.6880
 3143SOL     OW12320   0.816   1.450   4.277 -0.8248 -0.2528  0.1527
 3143SOL    HW112321   0.756   1.398   4.330 -1.9152  0.7799 -0.0415
 3143SOL    HW212322   0.780   1.447   4.189 -0.6941  0.5220  0.0674
 3144SOL     OW12323   9.249   6.461   5.582  0.7977 -0.0928 -0.6064
 3144SOL    HW112324   9.244   6.553   5.607 -0.0057 -0.3640  0.2693
 3144SOL    HW212325   9.189   6.416   5.642  2.5799 -1.4583  0.2283
 3145SOL     OW12326   8.533   5.855   5.596  0.3708 -0.7927 -0.0748
 3145SOL    HW112327   8.459   5.909   5.569  1.2844 -1.1106 -3.7833
 3145SOL    HW212328   8.496   5.768   5.608 -0.0208 -0.7872 -1.1404
 3146SOL     OW12329   4.573   8.987   2.307 -0.2762 -0.5489  0.2812
 3146SOL    HW112330   4.653   8.934   2.307 -0.7031 -1.2234  0.9159
 3146SOL    HW212331   4.602   9.074   2.280  0.4286 -1.1290 -0.9073
 3147SOL     OW12332   4.574   0.823   7.507  0.2395 -0.6097  0.0373
 3147SOL    HW112333   4.506   0.757   7.512 -1.3018  0.8112 -1.0455
 3147SOL    HW212334   4.527   0.906   7.498  2.0322  0.2795 -2.5114
 3148SOL     OW12335   8.899   8.276   8.580  0.1391 -0.4527 -0.4377
 3148SOL    HW112336   8.912   8.198   8.634 -1.7123  0.1562  0.9758
 3148SOL    HW212337   8.972   8.334   8.602  0.2084 -0.8146  0.2964
 3149SOL     OW12338   6.236   1.653   3.734  0.3918  0.1489 -0.1450
 3149SOL    HW112339   6.210   1.736   3.773  0.9053  0.5740 -0.6918
 3149SOL    HW212340   6.331   1.649   3.745  0.7194  0.7866 -2.2482
 3150SOL     OW12341   1.510   5.791   5.490 -0.7498  0.1900  0.1139
 3150SOL    HW112342   1.418   5.771   5.509 -0.5213 -0.4117  0.6154
 3150SOL    HW212343   1.507   5.846   5.412 -1.4857 -0.5314 -0.3805
 3151SOL     OW12344   6.000   6.879   4.389 -0.2299  0.3243  0.3289
 3151SOL    HW112345   5.968   6.809   4.445  0.6796  0.3511  0.9039
 3151SOL    HW212346   6.021   6.951   4.449 -1.2384  1.1511 -0.2554
 3152SOL     OW12347   8.275   9.210   1.356 -0.0109 -0.4396  0.0183
 3152SOL    HW112348   8.257   9.247   1.270 -0.3455  1.1158  0.7316
 3152SOL    HW212349   8.333   9.136   1.338  0.7238  0.4523 -1.4502
 3153SOL     OW12350   1.889   0.067   2.356  0.4662 -0.2526 -0.0706
 3153SOL    HW112351   1.906  -0.026   2.340 -0.1096 -0.5063  0.7150
 3153SOL    HW212352   1.968   0.111   2.327  0.4802 -0.9174 -1.1113
 3154SOL     OW12353   2.360   0.254   2.811 -0.0944 -0.1673 -0.1512
 3154SOL    HW112354   2.303   0.244   2.735  0.2326  0.4481 -0.4873
 3154SOL    HW212355   2.308   0.222   2.885 -1.0578  0.8234 -0.3760
 3155SOL     OW12356   2.886   7.509   3.443 -0.2318 -0.0379 -0.3703
 3155SOL    HW112357   2.938   7.429   3.432  0.8126  0.4515  0.8215
 3155SOL    HW212358   2.898   7.556   3.361  0.0602 -0.5864 -0.6524
 3156SOL     OW12359   2.944   1.260   3.070 -0.7834 -0.1237 -0.6223
 3156SOL    HW112360   2.921   1.167   3.074  0.4051 -0.4740 -1.3071
 3156SOL    HW212361   3.004   1.266   2.995  0.3265  0.9213  0.3039
 3157SOL     OW12362   2.895   0.752   5.898 -0.0175 -0.2841 -0.6822
 3157SOL    HW112363   2.950   0.819   5.940 -1.8626  0.4479  0.7192
 3157SOL    HW212364   2.829   0.802   5.850 -2.6731 -0.8977  2.0095
 3158SOL     OW12365   3.469   0.587   0.827 -0.2861  0.0825  0.5361
 3158SOL    HW112366   3.405   0.560   0.894  0.0737 -2.5003 -0.0805
 3158SOL    HW212367   3.417   0.636   0.764 -1.3976 -0.7573  0.7681
 3159SOL     OW12368   5.052   7.534   0.201  0.0916  0.0525  0.1265
 3159SOL    HW112369   5.021   7.493   0.281 -1.5213 -0.8814 -0.9177
 3159SOL    HW212370   5.078   7.622   0.227  1.3255 -0.8078  1.9775
 3160SOL     OW12371   7.236   9.221   2.921 -0.0461 -0.1193 -0.9023
 3160SOL    HW112372   7.224   9.132   2.887  0.6476 -0.0773 -1.2783
 3160SOL    HW212373   7.327   9.242   2.901  0.1999  0.1646  0.4165
 3161SOL     OW12374   6.777   5.334   2.781  0.4509 -0.7639  0.1522
 3161SOL    HW112375   6.682   5.338   2.794  0.4564  2.0233 -0.0884
 3161SOL    HW212376   6.788   5.290   2.696 -0.8674  1.6122 -1.3497
 3162SOL     OW12377   4.627   9.497   1.082 -0.2004  0.7948  0.1912
 3162SOL    HW112378   4.619   9.484   0.988 -2.9886 -1.6929  0.6195
 3162SOL    HW212379   4.589   9.583   1.098 -0.1701  1.0206 -0.8653
 3163SOL     OW12380   8.042   0.588   0.797 -0.0228  0.2688  0.6587
 3163SOL    HW112381   8.116   0.591   0.737  0.7657  3.0762  1.6308
 3163SOL    HW212382   8.040   0.497   0.828  1.8602 -0.3069 -0.7285
 3164SOL     OW12383   1.462   4.310   4.385  0.2870 -0.2701  0.3425
 3164SOL    HW112384   1.554   4.316   4.413 -0.0353  1.8183  1.1076
 3164SOL    HW212385   1.416   4.278   4.463  0.1724 -0.0178  0.3763
 3165SOL     OW12386   2.281   8.881   8.775 -0.1753 -0.1434  0.1456
 3165SOL    HW112387   2.283   8.921   8.688 -1.2434  1.3684  0.7637
 3165SOL    HW212388   2.240   8.948   8.831  0.2495 -1.1738  1.7575
 3166SOL     OW12389   8.725   4.660   6.570 -0.0387  0.0430 -0.0393
 3166SOL    HW112390   8.663   4.730   6.550  0.0318  0.3175  0.6771
 3166SOL    HW212391   8.804   4.706   6.600  0.2518 -0.3244 -0.2349
 3167SOL     OW12392   1.638   3.172   3.180 -0.1672  0.1593  0.3754
 3167SOL    HW112393   1.727   3.204   3.194  0.4339  1.5626 -4.5449
 3167SOL    HW212394   1.584   3.251   3.182 -0.5166 -0.0185 -0.8210
 3168SOL     OW12395   2.173   7.857   9.241 -0.5379 -0.2674 -0.4220
 3168SOL    HW112396   2.204   7.907   9.317 -0.0533 -0.4782 -0.4760
 3168SOL    HW212397   2.183   7.916   9.167 -1.5903  0.1595 -0.2471
 3169SOL     OW12398   9.351   0.110   7.384 -0.5925  0.1876 -1.0541
 3169SOL    HW112399   9.320   0.146   7.467 -0.9782 -0.6308 -0.8285
 3169SOL    HW212400   9.280   0.125   7.322 -0.6481  0.0441 -1.0253
 3170SOL     OW12401   6.725   0.038   6.960  0.1784  0.0858  0.0283
 3170SOL    HW112402   6.793   0.073   7.017  0.4639  2.3578 -1.5771
 3170SOL    HW212403   6.644   0.079   6.990  0.5662  2.7065 -2.0851
 3171SOL     OW12404   2.108   1.703   0.759 -0.3116  0.1551  0.4347
 3171SOL    HW112405   2.073   1.724   0.672  0.1627  2.1631  0.6717
 3171SOL    HW212406   2.056   1.757   0.819  0.4948  0.0922  1.2035
 3172SOL     OW12407   8.405   9.572   8.294 -0.5192 -0.2186 -0.0508
 3172SOL    HW112408   8.468   9.627   8.341  2.2475 -1.2391 -2.2400
 3172SOL    HW212409   8.447   9.485   8.292 -2.5231 -1.2337 -0.7367
 3173SOL     OW12410   3.538   5.617   0.760 -0.1527  0.6147 -0.0986
 3173SOL    HW112411   3.471   5.637   0.694  0.6784 -1.9218 -1.8902
 3173SOL    HW212412   3.593   5.551   0.718 -0.2750 -2.1518  3.5909
 3174SOL     OW12413   2.160   6.765   2.947  0.0110  0.5458  0.4283
 3174SOL    HW112414   2.214   6.840   2.923 -2.1818  1.9760 -0.3173
 3174SOL    HW212415   2.169   6.704   2.874  2.0708 -0.1187  1.1905
 3175SOL     OW12416   9.305   3.378   0.169  0.3725  0.4278  0.2989
 3175SOL    HW112417   9.349   3.345   0.247  0.2148  1.7106  0.9573
 3175SOL    HW212418   9.235   3.316   0.151 -0.1829  0.6140  1.7489
 3176SOL     OW12419   2.177   0.558   8.557 -0.8155  0.0351  0.2903
 3176SOL    HW112420   2.093   0.590   8.589 -0.3554  1.7920 -0.1459
 3176SOL    HW212421   2.232   0.553   8.635 -1.1106 -0.4080  0.4705
 3177SOL     OW12422   7.538   1.650   3.379  0.1454  0.3101 -0.1046
 3177SOL    HW112423   7.569   1.627   3.466  2.0259 -0.8139 -0.9956
 3177SOL    HW212424   7.587   1.728   3.355  2.7903 -1.6418 -1.6385
 3178SOL     OW12425   6.414   1.232   4.925 -0.0888 -0.4007 -0.2855
 3178SOL    HW112426   6.482   1.183   4.880 -0.8859 -1.4311 -0.4029
 3178SOL    HW212427   6.402   1.185   5.008 -1.8201 -1.2783 -0.9840
 3179SOL     OW12428   4.203   8.980   9.485 -0.0311 -0.6149 -0.2365
 3179SOL    HW112429   4.203   8.885   9.490 -0.0250 -0.5526  1.2751
 3179SOL    HW212430   4.114   9.005   9.509  0.3097 -0.2060  0.6551
 3180SOL     OW12431   2.996   7.415   2.811 -0.2363 -0.3520  0.4126
 3180SOL    HW112432   3.015   7.506   2.835 -1.0691 -0.5001  1.7360
 3180SOL    HW212433   2.952   7.421   2.726  2.5070  0.2235 -1.0761
 3181SOL     OW12434   7.546   6.727   0.455 -0.0074  0.7181  0.1630
 3181SOL    HW112435   7.556   6.702   0.363  1.6228  0.1935  0.4516
 3181SOL    HW212436   7.582   6.653   0.504 -1.4993  0.6709  1.2658
 3182SOL     OW12437   9.406   8.171   8.944  1.1289 -0.0597 -0.4299
 3182SOL    HW112438   9.314   8.197   8.938  0.8866 -0.0536  2.1272
 3182SOL    HW212439   9.410   8.088   8.897  0.2446  0.7672 -2.0827
 3183SOL     OW12440   7.020   7.629   7.825 -0.4082  0.5804  0.2212
 3183SOL    HW112441   7.013   7.677   7.908 -1.0338 -0.0758  0.5639
 3183SOL    HW212442   7.114   7.618   7.812 -0.2159  2.4293 -0.1990
 3184SOL     OW12443   5.055   6.175   0.419  0.0758 -0.1768  1.1200
 3184SOL    HW112444   4.971   6.143   0.451 -2.0803  2.1491 -1.6026
 3184SOL    HW212445   5.088   6.105   0.363 -1.9996  0.1848 -0.7077
 3185SOL     OW12446   6.621   6.658   7.981  0.1885 -0.0382 -0.4311
 3185SOL    HW112447   6.560   6.635   8.051  0.1246  1.4636  0.0359
 3185SOL    HW212448   6.566   6.686   7.909  0.2837  1.7000  0.1259
 3186SOL     OW12449   4.953   7.853   7.491  0.7025 -0.7117  0.1722
 3186SOL    HW112450   4.887   7.908   7.533  0.8387 -0.3678 -0.0607
 3186SOL    HW212451   4.908   7.814   7.416  1.1147  0.5494 -0.7573
 3187SOL     OW12452   1.363   7.017   2.358  0.2046  0.2707 -0.8869
 3187SOL    HW112453   1.342   7.109   2.376 -0.4119  0.4727 -2.4885
 3187SOL    HW212454   1.294   6.968   2.404 -0.1604  0.6597 -1.0119
 3188SOL     OW12455   3.522   1.351   9.438  0.3101 -0.0439  0.5658
 3188SOL    HW112456   3.575   1.428   9.459 -1.6555  1.0041  1.9877
 3188SOL    HW212457   3.517   1.302   9.519  0.0147 -0.7089  0.1562
 3189SOL     OW12458   8.324   0.503   5.291 -0.4250 -0.0519  0.2352
 3189SOL    HW112459   8.380   0.472   5.361 -0.9530  3.2917  2.3703
 3189SOL    HW212460   8.244   0.451   5.298 -0.4400  0.1693  2.1507
 3190SOL     OW12461   6.459   2.943   0.322  0.6116 -0.4550 -0.2016
 3190SOL    HW112462   6.541   2.989   0.341  0.2686 -0.0350  0.2885
 3190SOL    HW212463   6.393   3.013   0.315 -0.3556 -0.9515  2.7349
 3191SOL     OW12464   0.546   3.052   2.649 -0.3029  0.1621 -0.1101
 3191SOL    HW112465   0.578   3.075   2.736 -0.6735 -1.4709  0.4994
 3191SOL    HW212466   0.453   3.072   2.651  0.0689  2.1635 -0.8983
 3192SOL     OW12467   5.176   2.752   7.692 -0.5357 -0.4268 -0.6449
 3192SOL    HW112468   5.186   2.673   7.638  1.7843 -1.9628  1.8010
 3192SOL    HW212469   5.116   2.725   7.762 -0.7761  0.4101 -0.5232
 3193SOL     OW12470   4.185   2.067   0.980  0.2017  0.1883  0.6385
 3193SOL    HW112471   4.109   2.123   0.998 -0.4670 -0.6735  0.5823
 3193SOL    HW212472   4.261   2.123   0.995 -0.4205  1.9841 -2.1364
 3194SOL     OW12473   7.605   4.937   3.125  0.5197 -0.2655  0.0479
 3194SOL    HW112474   7.544   4.865   3.105 -0.4225  0.6019 -0.2984
 3194SOL    HW212475   7.689   4.907   3.090 -0.3830 -0.1987 -2.3806
 3195SOL     OW12476   3.016   0.167   4.937  0.4118 -0.2262 -0.2164
 3195SOL    HW112477   2.988   0.157   5.028 -1.1172 -0.4181 -0.6940
 3195SOL    HW212478   3.110   0.148   4.939  0.3704 -0.3605  1.2932
 3196SOL     OW12479   5.594   5.999   6.941  0.0063  0.6519 -0.0881
 3196SOL    HW112480   5.525   5.949   6.985 -0.7350  1.9677  0.2887
 3196SOL    HW212481   5.636   5.935   6.884 -0.6363 -0.5046  0.6848
 3197SOL     OW12482   4.630   1.870   5.591 -0.2074 -0.1830  0.0104
 3197SOL    HW112483   4.718   1.888   5.623  0.1228 -1.3336 -0.2154
 3197SOL    HW212484   4.584   1.954   5.599  0.3459 -0.0128  1.9122
 3198SOL     OW12485   1.371   1.217   5.759 -0.0829  0.4216  0.6763
 3198SOL    HW112486   1.432   1.228   5.832 -0.5568 -0.8223  1.2930
 3198SOL    HW212487   1.394   1.288   5.698  1.8910  0.0762  0.9302
 3199SOL     OW12488   6.380   3.030   0.641  0.2093  0.4858  0.5396
 3199SOL    HW112489   6.292   2.999   0.620  0.4749  0.4611 -0.5749
 3199SOL    HW212490   6.422   2.954   0.683  0.0480  0.1335  0.0768
 3200SOL     OW12491   3.817   4.277   5.532  0.2114 -0.3310  0.2193
 3200SOL    HW112492   3.790   4.187   5.549  0.4561 -0.3665  0.4288
 3200SOL    HW212493   3.843   4.277   5.440  1.9174 -0.9234  0.6553
 3201SOL     OW12494   9.156   9.469   4.296 -0.2212 -0.1498 -0.4805
 3201SOL    HW112495   9.245   9.486   4.263 -0.7183  1.7486 -0.9951
 3201SOL    HW212496   9.113   9.419   4.227  0.2536 -0.5200 -0.5099
 3202SOL     OW12497   3.125   3.769   5.460  0.1150  0.0847  0.1265
 3202SOL    HW112498   3.083   3.825   5.395 -1.1313 -0.6252  0.2698
 3202SOL    HW212499   3.052   3.731   5.509  0.9053 -1.6286  0.0483
 3203SOL     OW12500   1.220   1.682   5.704 -0.2015 -0.0159 -0.5714
 3203SOL    HW112501   1.160   1.681   5.778  0.3233  0.4937 -0.1250
 3203SOL    HW212502   1.209   1.597   5.662 -1.2021  0.0610 -0.4812
 3204SOL     OW12503   5.403   9.335   8.414  0.2817  0.0893  0.1568
 3204SOL    HW112504   5.343   9.345   8.339 -0.4471 -0.4539  0.6504
 3204SOL    HW212505   5.487   9.311   8.375 -0.0834 -0.1550 -0.4962
 3205SOL     OW12506   2.613   8.032   5.771  0.5528  0.0346  0.2363
 3205SOL    HW112507   2.581   7.943   5.756  2.1017 -0.5108  0.0841
 3205SOL    HW212508   2.671   8.050   5.697  1.0450  0.8011  0.7960
 3206SOL     OW12509   4.861   5.661   4.989 -0.3278 -0.1407  0.0067
 3206SOL    HW112510   4.773   5.626   5.001 -1.1975  0.9897 -2.3822
 3206SOL    HW212511   4.847   5.750   4.955  1.7181  0.0764 -0.4083
 3207SOL     OW12512   4.450   6.023   8.765 -0.2028  0.3983  0.0800
 3207SOL    HW112513   4.462   6.105   8.717 -1.8918  0.6007 -0.0568
 3207SOL    HW212514   4.420   6.051   8.851  1.4965 -0.0208  0.8509
 3208SOL     OW12515   6.290   0.231   5.913 -0.2947  0.6865  0.0131
 3208SOL    HW112516   6.317   0.141   5.935  0.6887  1.0831  0.4916
 3208SOL    HW212517   6.345   0.286   5.968  0.8376  1.6757 -1.9981
 3209SOL     OW12518   5.633   4.698   8.666  0.1289  0.4583  0.0838
 3209SOL    HW112519   5.689   4.692   8.744 -0.7506  2.5712  0.9686
 3209SOL    HW212520   5.688   4.742   8.601  1.0680 -1.8317 -0.7850
 3210SOL     OW12521   5.215   7.256   7.436  0.7425  0.3021 -0.0299
 3210SOL    HW112522   5.270   7.249   7.358 -0.2785 -1.6786 -0.6374
 3210SOL    HW212523   5.164   7.175   7.437 -0.9150  1.2937  1.4635
 3211SOL     OW12524   2.203   7.072   8.061 -0.4886  0.0835  0.4980
 3211SOL    HW112525   2.109   7.074   8.082 -0.2043  0.5780  1.8042
 3211SOL    HW212526   2.214   6.993   8.008 -1.9172  0.8911 -1.1051
 3212SOL     OW12527   6.350   9.344   8.977  0.0870  0.0082 -0.6031
 3212SOL    HW112528   6.406   9.269   8.957 -2.1449 -2.1651  0.7768
 3212SOL    HW212529   6.404   9.399   9.034  0.6864 -2.4253  1.4025
 3213SOL     OW12530   8.674   6.381   7.557 -0.3472 -0.6399  0.3796
 3213SOL    HW112531   8.646   6.314   7.619 -1.2275 -0.3400  0.3142
 3213SOL    HW212532   8.739   6.432   7.605  1.0345 -2.0691  0.1354
 3214SOL     OW12533   1.883   2.832   5.614 -0.4740 -0.1964  0.1568
 3214SOL    HW112534   1.910   2.798   5.529 -1.4736  0.3345 -0.3942
 3214SOL    HW212535   1.964   2.839   5.664 -0.1231 -2.4759 -0.0085
 3215SOL     OW12536   0.915   9.200   0.620 -0.7128 -0.1916 -0.3740
 3215SOL    HW112537   1.006   9.228   0.630 -1.5191  1.8108  2.5087
 3215SOL    HW212538   0.875   9.266   0.563 -0.8941  0.3553  0.3716
 3216SOL     OW12539   6.795   2.943   3.846 -0.0930 -0.0130  0.2963
 3216SOL    HW112540   6.740   3.016   3.875 -0.4048 -0.6290  1.3157
 3216SOL    HW212541   6.738   2.867   3.850 -0.2479 -0.1168 -2.3159
 3217SOL     OW12542   6.374   3.074   6.373 -0.1703  0.6434  0.0075
 3217SOL    HW112543   6.450   3.115   6.414  0.7319 -0.9444 -0.0167
 3217SOL    HW212544   6.399   3.065   6.281 -0.8587  1.1401 -0.2399
 3218SOL     OW12545   3.716   0.515   0.805 -0.6091  0.0815 -0.1932
 3218SOL    HW112546   3.623   0.539   0.799 -0.5301  0.7067  1.0034
 3218SOL    HW212547   3.715   0.426   0.840 -0.7371  0.4964  0.8832
 3219SOL     OW12548   1.214   4.973   7.035 -0.3814 -0.0546 -0.1717
 3219SOL    HW112549   1.216   4.878   7.044 -0.7836 -0.2610 -1.8132
 3219SOL    HW212550   1.125   4.997   7.060 -0.7774 -0.3308 -1.2361
 3220SOL     OW12551   5.170   6.910   5.427  0.0383  0.0847 -0.0791
 3220SOL    HW112552   5.127   6.827   5.445  1.0154 -0.5234 -0.4430
 3220SOL    HW212553   5.154   6.964   5.505 -0.7221 -0.3850  0.0939
 3221SOL     OW12554   7.064   8.031   3.277 -0.4108 -0.9044 -0.0030
 3221SOL    HW112555   6.983   8.073   3.250 -0.7908 -0.4886  1.6586
 3221SOL    HW212556   7.116   8.024   3.197 -0.8265  1.5882 -0.5663
 3222SOL     OW12557   8.098   1.691   4.353  0.2961  0.0666 -0.1988
 3222SOL    HW112558   8.015   1.663   4.313 -0.4460 -1.0619  1.9382
 3222SOL    HW212559   8.166   1.659   4.294 -0.6865 -2.8688  0.1132
 3223SOL     OW12560   6.152   4.917   6.924  0.0240 -0.5318 -0.4942
 3223SOL    HW112561   6.075   4.962   6.958  0.6991 -2.0580  3.5357
 3223SOL    HW212562   6.129   4.824   6.927  1.2033 -0.8879 -1.5610
 3224SOL     OW12563   8.267   3.909   3.531  0.0277 -0.3588  0.7008
 3224SOL    HW112564   8.309   3.993   3.551 -2.3021  0.6999  1.4421
 3224SOL    HW212565   8.335   3.844   3.548  2.7102  1.3893 -2.1349
 3225SOL     OW12566   4.680   0.704   8.705 -0.0638 -0.5687 -0.0364
 3225SOL    HW112567   4.656   0.776   8.764 -1.0134  0.2648 -1.3710
 3225SOL    HW212568   4.628   0.720   8.626  2.2870 -0.7260 -1.7351
 3226SOL     OW12569   1.345   7.036   0.511  0.5677 -0.1572 -0.2954
 3226SOL    HW112570   1.290   6.959   0.497 -1.3449  1.1398 -0.3259
 3226SOL    HW212571   1.409   7.009   0.577 -1.2294 -1.2457  1.0958
 3227SOL     OW12572   6.190   6.398   2.381  0.7008 -0.2505 -0.2952
 3227SOL    HW112573   6.255   6.376   2.448 -0.1672 -0.3080  0.5564
 3227SOL    HW212574   6.114   6.344   2.403 -0.0339  0.6328 -0.5926
 3228SOL     OW12575   9.529   2.525   0.243  0.8021 -0.0462  0.1705
 3228SOL    HW112576   9.440   2.559   0.234  0.3591 -0.9957  0.9109
 3228SOL    HW212577   9.573   2.555   0.163 -0.6057 -0.8647 -0.9601
 3229SOL     OW12578   4.689   9.610   2.546 -0.6480 -0.3676  0.4598
 3229SOL    HW112579   4.688   9.629   2.452 -2.4955 -0.1241  0.4978
 3229SOL    HW212580   4.713   9.692   2.587  0.0265 -0.4381  0.2162
 3230SOL     OW12581   4.596   3.168   3.465 -0.8039  0.0217  0.2774
 3230SOL    HW112582   4.582   3.075   3.447 -3.5573 -0.5975  4.3320
 3230SOL    HW212583   4.667   3.170   3.530 -1.4356  0.5941  0.9780
 3231SOL     OW12584   8.500   0.383   3.058 -0.3118 -0.1596  0.5834
 3231SOL    HW112585   8.488   0.478   3.053  0.1057 -0.1065  0.4774
 3231SOL    HW212586   8.431   0.347   3.002 -1.4463 -0.0042  1.8319
 3232SOL     OW12587   8.136   4.324   7.352 -0.4294  0.1020  0.4334
 3232SOL    HW112588   8.216   4.348   7.399 -0.6269 -1.1370  1.4652
 3232SOL    HW212589   8.078   4.291   7.421 -0.7558 -1.7305 -0.6639
 3233SOL     OW12590   4.274   8.297   2.922  0.3858  0.5104  0.2250
 3233SOL    HW112591   4.283   8.318   3.015  1.1619 -0.9306  0.5111
 3233SOL    HW212592   4.338   8.227   2.907  0.9421  1.3561 -1.6214
 3234SOL     OW12593   2.718   2.382   6.445 -0.1071 -0.0104 -0.1784
 3234SOL    HW112594   2.759   2.309   6.399  0.4592  0.1843  0.0090
 3234SOL    HW212595   2.638   2.399   6.396 -0.2064 -0.7072 -0.2681
 3235SOL     OW12596   8.385   0.320   6.190 -0.0850  0.4708 -0.1128
 3235SOL    HW112597   8.319   0.252   6.184  0.0004  0.3267  0.5181
 3235SOL    HW212598   8.467   0.277   6.163 -0.4422  0.9785 -2.1577
 3236SOL     OW12599   0.593   3.704   2.810 -0.4416 -0.4737 -0.2685
 3236SOL    HW112600   0.549   3.780   2.848  0.2629 -0.3451  0.3157
 3236SOL    HW212601   0.522   3.647   2.782 -0.9869 -0.1681  0.4462
 3237SOL     OW12602   3.276   6.935   6.277 -0.4404  0.2354 -0.4284
 3237SOL    HW112603   3.270   6.840   6.266  1.0018 -0.0440  0.8814
 3237SOL    HW212604   3.188   6.961   6.306 -0.0876 -1.2216  2.3455
 3238SOL     OW12605   0.119   8.163   5.895 -1.0867 -0.0305 -0.0719
 3238SOL    HW112606   0.150   8.148   5.806  0.1095 -0.6814  0.4237
 3238SOL    HW212607   0.172   8.104   5.949 -0.5844  1.5622  1.2542
 3239SOL     OW12608   3.684   2.270   4.962  0.3238 -0.0213  0.0839
 3239SOL    HW112609   3.770   2.288   5.001  0.2359 -0.2112  0.3680
 3239SOL    HW212610   3.704   2.243   4.872  0.4382  1.8236 -0.4777
 3240SOL     OW12611   2.457   8.659   7.156  0.4923 -0.6945  0.2347
 3240SOL    HW112612   2.485   8.750   7.163  1.4507 -0.8649 -1.0989
 3240SOL    HW212613   2.397   8.647   7.230  0.0757  1.1068  0.2409
 3241SOL     OW12614   6.970   9.626   5.081  0.6465  0.4133 -0.5098
 3241SOL    HW112615   7.006   9.543   5.050  1.8759  1.4348 -1.9510
 3241SOL    HW212616   7.005   9.636   5.169  1.0280 -0.2686 -0.5731
 3242SOL     OW12617   2.289   8.973   7.280  0.1188  0.3379 -0.2179
 3242SOL    HW112618   2.376   8.943   7.308 -0.3279 -0.4194  0.3947
 3242SOL    HW212619   2.301   8.997   7.188  1.7504  3.4371  0.6555
 3243SOL     OW12620   3.804   0.037   1.063 -0.0597  0.0381 -0.2764
 3243SOL    HW112621   3.828   0.119   1.106 -0.0991  0.4789 -1.0731
 3243SOL    HW212622   3.882  -0.019   1.072 -0.4525 -0.3178  1.3498
 3244SOL     OW12623   0.105   3.689   1.846  0.3300  0.0601 -0.7329
 3244SOL    HW112624   0.130   3.767   1.797 -2.2984  1.4250 -0.0911
 3244SOL    HW212625   0.017   3.708   1.879 -0.0455 -2.8203  0.2519
 3245SOL     OW12626   1.998   4.914   7.031  0.1718  0.5824  0.0411
 3245SOL    HW112627   1.936   4.913   6.958 -0.6633  0.2713  0.7482
 3245SOL    HW212628   1.944   4.928   7.108  0.7140 -1.6864  0.9165
 3246SOL     OW12629   8.627   3.814   8.224 -0.3888  0.5066  0.4038
 3246SOL    HW112630   8.625   3.905   8.255  2.7214  0.9699 -0.3722
 3246SOL    HW212631   8.660   3.821   8.134  1.5036 -1.4686  0.8712
 3247SOL     OW12632   2.638   5.947   2.987  0.0586 -0.1181  0.1463
 3247SOL    HW112633   2.664   6.026   3.034 -0.8257 -1.0123  2.2744
 3247SOL    HW212634   2.721   5.903   2.966  0.5745  1.4693 -1.3684
 3248SOL     OW12635   1.913   0.080   1.455 -0.0433  0.0659  0.1432
 3248SOL    HW112636   1.896   0.050   1.545 -1.0824  0.8559  0.2367
 3248SOL    HW212637   1.840   0.044   1.404  0.0046  0.4403 -0.1899
 3249SOL     OW12638   6.970   8.703   0.381  0.3227  0.3671 -0.2768
 3249SOL    HW112639   6.985   8.780   0.435 -0.0984  1.1198 -1.2139
 3249SOL    HW212640   7.048   8.649   0.394  0.5293  0.8400  0.5517
 3250SOL     OW12641   0.973   2.887   5.612 -0.5337  0.3198  0.7795
 3250SOL    HW112642   0.879   2.873   5.620  0.0866 -4.3668  4.5910
 3250SOL    HW212643   0.995   2.947   5.683 -0.6073  2.5120 -0.9376
 3251SOL     OW12644   9.583   2.960   7.218  0.2147 -0.0360  0.1829
 3251SOL    HW112645   9.647   2.898   7.183  0.9710  0.9869 -0.3244
 3251SOL    HW212646   9.550   3.006   7.140 -2.2300 -1.4806  0.2436
 3252SOL     OW12647   6.396   9.378   7.964 -0.7395  0.3525  0.4886
 3252SOL    HW112648   6.315   9.346   7.926 -2.9292  3.4227  2.1483
 3252SOL    HW212649   6.436   9.432   7.895 -0.5629 -0.4045 -0.0133
 3253SOL     OW12650   6.182   3.903   4.016  0.3645  0.0137  0.3493
 3253SOL    HW112651   6.250   3.912   4.083  1.9496 -0.6907 -1.0875
 3253SOL    HW212652   6.131   3.827   4.044  3.0160 -2.3813 -0.7734
 3254SOL     OW12653   8.084   1.500   0.936 -0.1475  0.2948 -0.3445
 3254SOL    HW112654   8.127   1.476   1.018  1.3146  0.0893 -1.1325
 3254SOL    HW212655   8.037   1.580   0.956 -1.1989 -0.6296  1.1140
 3255SOL     OW12656   7.855   3.020   4.081  0.1800 -0.1395  0.1334
 3255SOL    HW112657   7.792   2.965   4.035  0.0831  0.8228 -0.9134
 3255SOL    HW212658   7.928   2.960   4.100  0.2132 -0.5937 -1.2499
 3256SOL     OW12659   8.326   7.081   0.523  0.5605  0.3835  0.5286
 3256SOL    HW112660   8.355   7.142   0.455 -2.8541 -0.5572 -2.0856
 3256SOL    HW212661   8.241   7.115   0.552  0.2721 -1.1793  1.6692
 3257SOL     OW12662   7.498   6.919   5.090  0.2478  0.0795  0.3123
 3257SOL    HW112663   7.425   6.896   5.032 -0.0338  0.1385  0.6422
 3257SOL    HW212664   7.565   6.954   5.031 -0.6112  1.5822  0.1637
 3258SOL     OW12665   6.792   3.080   4.974 -0.0298 -0.2216  0.0469
 3258SOL    HW112666   6.797   3.065   4.879 -0.3748 -0.3041  0.0405
 3258SOL    HW212667   6.721   3.023   5.004  0.6448 -0.8459  0.4907
 3259SOL     OW12668   3.551   3.977   9.244 -0.2457 -0.2318 -0.3053
 3259SOL    HW112669   3.456   3.966   9.243 -0.1817 -0.8821 -0.0879
 3259SOL    HW212670   3.579   3.957   9.155 -0.1494 -1.8258  0.0429
 3260SOL     OW12671   0.749   6.166   5.351  0.0812 -0.5560  0.3643
 3260SOL    HW112672   0.807   6.090   5.356 -2.0684 -2.3967 -0.9577
 3260SOL    HW212673   0.774   6.211   5.270  2.0861  0.8881  1.6911
 3261SOL     OW12674   6.278   2.752   2.227  0.5458 -0.8371  0.2035
 3261SOL    HW112675   6.292   2.658   2.241 -1.2962 -1.1737  0.0714
 3261SOL    HW212676   6.198   2.772   2.275  1.4880  0.9501  1.1477
 3262SOL     OW12677   4.312   8.347   0.768  0.1312  0.2512 -0.4622
 3262SOL    HW112678   4.294   8.373   0.678 -1.3175  1.6228  0.1787
 3262SOL    HW212679   4.245   8.392   0.820 -0.1773 -1.8954  1.1290
 3263SOL     OW12680   4.568   5.083   7.505  0.0804 -0.1921 -0.0172
 3263SOL    HW112681   4.581   5.174   7.477 -0.5213 -0.4817 -1.2888
 3263SOL    HW212682   4.560   5.034   7.423 -1.5185 -1.1083  0.6508
 3264SOL     OW12683   3.753   0.706   5.597  0.3847 -0.1841  0.1621
 3264SOL    HW112684   3.817   0.729   5.529  0.0507  0.9117  0.2049
 3264SOL    HW212685   3.805   0.697   5.676  0.6709 -0.7150 -0.0770
 3265SOL     OW12686   1.255   2.577   5.086 -0.2172  0.1719 -0.7268
 3265SOL    HW112687   1.304   2.649   5.047 -0.3842  1.0370  0.5962
 3265SOL    HW212688   1.165   2.610   5.092 -0.6812 -0.8372 -1.7452
 3266SOL     OW12689   6.262   1.784   3.225  0.4754  0.1334 -0.3548
 3266SOL    HW112690   6.216   1.868   3.212 -0.4517 -0.4947 -1.3710
 3266SOL    HW212691   6.354   1.809   3.236  0.0349  1.3683  0.7713
 3267SOL     OW12692   4.228   8.477   5.449 -0.3763 -0.0876 -0.4199
 3267SOL    HW112693   4.278   8.397   5.440  0.2353  0.3785 -1.2884
 3267SOL    HW212694   4.171   8.461   5.524  1.2277 -0.5379  0.7512
 3268SOL     OW12695   4.388   3.176   9.275  0.5281 -0.6496 -0.3854
 3268SOL    HW112696   4.310   3.131   9.309 -0.9659  0.6617 -1.9422
 3268SOL    HW212697   4.436   3.202   9.354 -2.3086  1.4382  0.8353
 3269SOL     OW12698   6.227   3.551   0.994  0.1163  0.0151 -0.0767
 3269SOL    HW112699   6.285   3.498   1.049  0.3306  0.2042 -0.1217
 3269SOL    HW212700   6.182   3.487   0.940  0.4395 -0.1189 -0.1914
 3270SOL     OW12701   2.968   6.145   0.633 -0.2336 -0.1513  0.1941
 3270SOL    HW112702   2.970   6.225   0.581  1.0827  0.7576  1.5386
 3270SOL    HW212703   2.878   6.113   0.625 -1.2113  2.2481  0.7446
 3271SOL     OW12704   8.469   4.778   4.934  0.1370  0.1869  0.5253
 3271SOL    HW112705   8.409   4.783   5.008 -0.1596 -0.7007  0.3501
 3271SOL    HW212706   8.536   4.715   4.961  0.1438  0.0191  0.1271
 3272SOL     OW12707   9.180   3.770   2.874 -0.1068 -0.0279 -0.3125
 3272SOL    HW112708   9.093   3.809   2.888 -0.3736 -0.9117  0.5674
 3272SOL    HW212709   9.175   3.730   2.787 -0.3870  0.4210 -0.5062
 3273SOL     OW12710   2.436   1.327   8.757  0.2799  0.0257  0.2194
 3273SOL    HW112711   2.395   1.404   8.796  2.3258  0.8199  0.8892
 3273SOL    HW212712   2.404   1.254   8.809  0.0509  0.6590  0.9862
 3274SOL     OW12713   4.630   6.870   8.420 -0.6456  0.1829  0.1015
 3274SOL    HW112714   4.675   6.802   8.371  0.9446  1.6775 -0.6462
 3274SOL    HW212715   4.569   6.909   8.358  0.0201  0.8435 -0.1562
 3275SOL     OW12716   1.200   4.874   9.525  0.0787 -0.5032  0.2443
 3275SOL    HW112717   1.278   4.914   9.565 -0.9753 -1.1874  3.1896
 3275SOL    HW212718   1.158   4.946   9.478  0.8381  0.6464  1.2672
 3276SOL     OW12719   0.568   8.487   3.438  0.0738 -0.1839 -0.8088
 3276SOL    HW112720   0.626   8.510   3.511 -0.1549 -0.4284 -0.5428
 3276SOL    HW212721   0.620   8.427   3.384  0.8013  1.2122 -1.7081
 3277SOL     OW12722   7.445   4.150   7.249  0.2317  0.0375  0.0746
 3277SOL    HW112723   7.500   4.147   7.170 -0.9778  1.6916 -0.9089
 3277SOL    HW212724   7.470   4.073   7.299  1.2573 -0.9236 -1.8033
 3278SOL     OW12725   5.977   7.084   8.687  0.3242 -0.4772  0.1752
 3278SOL    HW112726   6.051   7.145   8.685 -0.4363  0.5557  1.5161
 3278SOL    HW212727   5.901   7.140   8.703 -0.5201 -1.6823  0.5063
 3279SOL     OW12728   6.597   7.586   6.590  0.3132 -0.5035 -0.7696
 3279SOL    HW112729   6.504   7.597   6.570 -0.2848  3.5871  2.8164
 3279SOL    HW212730   6.642   7.623   6.514 -1.0162 -0.6260 -1.6536
 3280SOL     OW12731   2.096   1.908   3.482  0.0351 -0.3803 -0.1982
 3280SOL    HW112732   2.172   1.861   3.517 -0.7199 -1.3064  0.2536
 3280SOL    HW212733   2.096   1.886   3.388 -0.2719 -1.2496 -0.0051
 3281SOL     OW12734   5.408   3.149   8.724 -0.0924  0.6364  0.1440
 3281SOL    HW112735   5.422   3.055   8.734  1.3523  1.0340  2.9325
 3281SOL    HW212736   5.313   3.158   8.713 -0.0104 -1.2676 -3.9866
 3282SOL     OW12737   7.903   5.019   3.411  0.3703  0.0831 -0.4811
 3282SOL    HW112738   7.986   4.991   3.450  2.0063  2.3638 -2.0050
 3282SOL    HW212739   7.836   4.965   3.452  2.3757 -0.3793  2.4216
 3283SOL     OW12740   7.870   1.890   0.830 -0.3981  0.4813  0.5046
 3283SOL    HW112741   7.893   1.854   0.745 -0.2185 -1.7725  1.4361
 3283SOL    HW212742   7.880   1.984   0.820 -1.2221  0.3529 -2.1869
 3284SOL     OW12743   6.437   8.599   3.562  0.0213  0.0565 -0.0090
 3284SOL    HW112744   6.470   8.652   3.489 -1.4657  0.6259 -0.3092
 3284SOL    HW212745   6.502   8.530   3.573  1.2387  1.0662 -0.6130
 3285SOL     OW12746   0.733   1.379   7.302  0.0164 -0.6187  0.1289
 3285SOL    HW112747   0.731   1.320   7.226 -0.5330 -3.0336  1.8826
 3285SOL    HW212748   0.660   1.440   7.288  0.6896 -0.2172 -1.8312
 3286SOL     OW12749   6.803   6.765   4.542 -0.1622 -0.0185  0.0723
 3286SOL    HW112750   6.862   6.708   4.591 -0.1168 -0.3001 -0.3010
 3286SOL    HW212751   6.768   6.708   4.473 -1.0468  0.0753  0.4254
 3287SOL     OW12752   0.283   5.521   3.592  0.0943  0.1982 -0.1943
 3287SOL    HW112753   0.336   5.470   3.530 -0.4673  0.8063 -1.1923
 3287SOL    HW212754   0.193   5.504   3.565 -0.2311 -0.4432  1.1929
 3288SOL     OW12755   1.205   8.326   8.813  0.1331 -0.1991  0.5372
 3288SOL    HW112756   1.284   8.273   8.811  1.3644  1.5092  1.5557
 3288SOL    HW212757   1.231   8.410   8.775 -1.9318 -0.4561 -1.6932
 3289SOL     OW12758   5.309   4.640   0.745 -0.2153  0.0677  0.6929
 3289SOL    HW112759   5.385   4.698   0.753  0.4824 -0.8957  1.2011
 3289SOL    HW212760   5.294   4.633   0.651 -0.5927  1.4145  0.6319
 3290SOL     OW12761   4.785   5.405   7.909 -0.0810  0.4157 -0.2059
 3290SOL    HW112762   4.817   5.405   7.999  1.0784 -0.0425 -0.5969
 3290SOL    HW212763   4.711   5.345   7.910  0.4434 -0.2407  0.2831
 3291SOL     OW12764   0.465   4.027   7.191 -0.2397 -0.0457  0.4682
 3291SOL    HW112765   0.470   3.952   7.250 -0.8646  1.3998  2.4798
 3291SOL    HW212766   0.547   4.024   7.142 -0.4357 -2.2445  0.1740
 3292SOL     OW12767   7.024   7.605   6.718  0.0970  0.1513 -0.5221
 3292SOL    HW112768   7.119   7.590   6.719  0.1372  0.4013  0.5050
 3292SOL    HW212769   6.994   7.562   6.638  1.1819  0.7334 -1.2696
 3293SOL     OW12770   7.036   5.311   1.574 -0.0498 -0.0492  0.4385
 3293SOL    HW112771   7.055   5.353   1.490 -0.9820 -1.7458 -0.6868
 3293SOL    HW212772   7.092   5.357   1.637  1.9818  0.1637 -1.3853
 3294SOL     OW12773   5.696   7.842   4.532 -0.8150  0.1178 -0.2533
 3294SOL    HW112774   5.664   7.755   4.506 -1.2127 -0.4057  1.7840
 3294SOL    HW212775   5.617   7.890   4.556 -0.4434  0.2601  0.7437
 3295SOL     OW12776   2.077   5.673   2.997 -0.2414 -0.2283  0.0156
 3295SOL    HW112777   2.147   5.690   3.060  1.6745 -0.8495 -1.8181
 3295SOL    HW212778   2.023   5.605   3.038 -0.2435  0.7856  1.7876
 3296SOL     OW12779   5.954   4.718   7.283 -0.5063  0.2596  0.0342
 3296SOL    HW112780   5.976   4.629   7.311 -0.3577  0.7651  1.6601
 3296SOL    HW212781   5.859   4.716   7.268 -0.2806 -0.5229 -1.4414
 3297SOL     OW12782   3.504   5.022   1.051  0.0375  0.0947  0.1751
 3297SOL    HW112783   3.558   4.974   1.114 -0.0083 -0.4203 -0.1721
 3297SOL    HW212784   3.557   5.026   0.972 -0.4732 -0.5152 -0.2072
 3298SOL     OW12785   1.281   8.614   2.067 -0.4053 -0.1847 -0.2456
 3298SOL    HW112786   1.308   8.540   2.012 -0.4507 -0.3701 -0.0235
 3298SOL    HW212787   1.355   8.626   2.127 -1.1330 -1.2265  0.9115
 3299SOL     OW12788   7.256   7.924   3.403  0.3702 -0.0506 -0.3765
 3299SOL    HW112789   7.255   7.957   3.493  0.4684  0.9329 -0.7229
 3299SOL    HW212790   7.186   7.972   3.359  0.3533 -0.4926 -0.8316
 3300SOL     OW12791   7.317   0.129   4.566 -0.3313  0.1247  0.4407
 3300SOL    HW112792   7.400   0.176   4.577 -1.1177  1.6694  0.1235
 3300SOL    HW212793   7.294   0.100   4.654  0.4033 -0.0623  0.5724
 3301SOL     OW12794   9.543   8.195   5.080 -0.2821 -0.2646 -0.5095
 3301SOL    HW112795   9.562   8.191   4.987 -1.3817 -1.4916 -0.7196
 3301SOL    HW212796   9.478   8.265   5.088  1.1565  1.1091 -0.3668
 3302SOL     OW12797   2.320   2.232   6.023  0.0730 -0.1936 -0.1576
 3302SOL    HW112798   2.285   2.151   6.060 -0.5597  0.2161  0.1562
 3302SOL    HW212799   2.374   2.203   5.949  0.6501 -0.9619  0.5496
 3303SOL     OW12800   7.167   8.290   0.742  0.2628  0.2604 -0.6471
 3303SOL    HW112801   7.242   8.273   0.798  0.0437 -0.4077 -0.5528
 3303SOL    HW212802   7.137   8.204   0.714 -0.6029  0.4979 -0.5054
 3304SOL     OW12803   3.874   0.813   5.828  0.1331 -0.2111  0.7407
 3304SOL    HW112804   3.881   0.885   5.766  0.5529  0.4486  1.5389
 3304SOL    HW212805   3.824   0.849   5.901 -2.4241 -1.6509 -0.1618
 3305SOL     OW12806   0.925   1.643   0.754 -0.2405 -0.0997 -0.1316
 3305SOL    HW112807   0.838   1.672   0.780  0.0947  0.3466  0.5063
 3305SOL    HW212808   0.928   1.550   0.776  0.6538  0.6039  3.2109
 3306SOL     OW12809   4.337   6.155   8.982 -0.0053  0.2945 -0.0833
 3306SOL    HW112810   4.302   6.156   9.071 -1.3074  1.1690 -0.5822
 3306SOL    HW212811   4.320   6.243   8.948 -0.1988 -0.2487 -1.4520
 3307SOL     OW12812   6.845   3.886   0.110 -0.2050 -0.0916  0.5191
 3307SOL    HW112813   6.849   3.937   0.191  0.7244  0.9131 -0.1276
 3307SOL    HW212814   6.766   3.832   0.120  0.5069 -0.8496  2.5679
 3308SOL     OW12815   8.781   6.535   9.240 -0.7011  0.0392 -0.7141
 3308SOL    HW112816   8.692   6.565   9.256 -0.7222  0.2737 -1.2598
 3308SOL    HW212817   8.832   6.615   9.229 -0.3313 -0.0833  0.0730
 3309SOL     OW12818   1.928   9.476   3.574  0.1703  0.5719 -0.2451
 3309SOL    HW112819   1.917   9.571   3.580  1.4173  0.7478 -0.5845
 3309SOL    HW212820   1.843   9.444   3.543 -0.4915  1.4896  0.5729
 3310SOL     OW12821   6.061   1.236   0.204  0.0496 -0.0313  0.1271
 3310SOL    HW112822   6.051   1.141   0.212  0.3767 -0.1036 -0.2941
 3310SOL    HW212823   6.041   1.270   0.291  1.2912 -0.5927  0.6496
 3311SOL     OW12824   9.168   5.190   1.759  0.0998  0.3173 -0.5295
 3311SOL    HW112825   9.171   5.106   1.712  0.8962 -1.2599  2.1439
 3311SOL    HW212826   9.260   5.217   1.765  0.4417 -1.1530  2.7046
 3312SOL     OW12827   6.049   1.107   2.170  0.1926 -0.3201 -0.6089
 3312SOL    HW112828   5.969   1.158   2.177 -0.7301 -1.9311  1.7315
 3312SOL    HW212829   6.085   1.105   2.259  1.6959 -1.3819 -1.1915
 3313SOL     OW12830   0.627   1.226   4.247 -0.4880 -0.5402  0.0896
 3313SOL    HW112831   0.598   1.183   4.166 -0.9919 -0.7120  0.3551
 3313SOL    HW212832   0.681   1.159   4.291 -1.0053 -0.7900  0.3491
 3314SOL     OW12833   7.346   5.672   8.200 -0.6634  0.5489  0.4527
 3314SOL    HW112834   7.359   5.703   8.111 -0.2574 -0.3545  0.1862
 3314SOL    HW212835   7.256   5.639   8.202 -0.1577 -0.9193 -0.0952
 3315SOL     OW12836   7.116   0.839   9.447 -0.1296  0.5211 -0.0858
 3315SOL    HW112837   7.040   0.828   9.391 -0.9724 -1.7808  1.4104
 3315SOL    HW212838   7.190   0.814   9.392 -0.9387 -1.7175 -0.2323
 3316SOL     OW12839   3.032   0.935   6.067  0.1623  0.2103 -0.8458
 3316SOL    HW112840   3.008   0.934   6.159 -0.7059  0.9979 -1.0510
 3316SOL    HW212841   3.061   1.024   6.050 -3.4952  1.3416 -2.2207
 3317SOL     OW12842   5.836   0.590   3.767 -0.2932 -0.3464  0.2725
 3317SOL    HW112843   5.743   0.588   3.789 -0.5414 -0.4779 -0.7454
 3317SOL    HW212844   5.853   0.679   3.736 -0.5045 -0.8055 -1.2375
 3318SOL     OW12845   7.594   5.241   6.424 -0.4603  0.5280 -0.5410
 3318SOL    HW112846   7.507   5.257   6.462 -0.3845 -0.1651 -0.0598
 3318SOL    HW212847   7.626   5.163   6.469  0.6704  1.1182 -0.2774
 3319SOL     OW12848   4.796   6.194   4.335 -0.5026 -0.0134 -0.2621
 3319SOL    HW112849   4.833   6.268   4.382 -1.3887  0.2405  0.0390
 3319SOL    HW212850   4.752   6.232   4.259 -2.2359 -0.0583  0.6706
 3320SOL     OW12851   6.975   4.381   5.219  0.1754 -0.4928 -0.1159
 3320SOL    HW112852   6.994   4.470   5.248 -1.9882 -0.4763  1.5451
 3320SOL    HW212853   6.987   4.384   5.124  4.5630  0.2840  0.2400
 3321SOL     OW12854   5.198   6.901   3.321 -0.1319 -0.1411  0.6555
 3321SOL    HW112855   5.118   6.954   3.319 -0.5384 -0.7652 -0.4077
 3321SOL    HW212856   5.220   6.888   3.229  0.8941 -0.4452  0.9329
 3322SOL     OW12857   8.292   3.561   3.031 -0.3187 -0.6922  0.0005
 3322SOL    HW112858   8.211   3.612   3.026  1.3522  2.0004 -2.0798
 3322SOL    HW212859   8.338   3.595   3.107  1.0656  1.5284 -1.7240
 3323SOL     OW12860   3.347   7.641   6.608  0.3970 -0.0076  0.2173
 3323SOL    HW112861   3.266   7.590   6.612  0.1346  0.4346  0.7871
 3323SOL    HW212862   3.318   7.732   6.606  0.8526  0.1205 -1.1807
 3324SOL     OW12863   1.903   1.369   5.844 -0.4757  0.3631  0.0224
 3324SOL    HW112864   1.824   1.316   5.852 -0.7813  0.8860  0.5928
 3324SOL    HW212865   1.951   1.352   5.925 -1.1947  1.9186  0.8245
 3325SOL     OW12866   4.201   1.918   5.691 -0.2010 -0.0816  0.0102
 3325SOL    HW112867   4.231   1.924   5.601 -1.9821  1.3000 -0.5433
 3325SOL    HW212868   4.143   1.841   5.692 -1.5277  0.8806 -0.4814
 3326SOL     OW12869   7.930   7.852   4.901 -0.1599 -0.5634  0.3828
 3326SOL    HW112870   7.970   7.873   4.817 -2.6163 -1.6935 -1.1985
 3326SOL    HW212871   8.003   7.830   4.958  1.8005  2.6970 -0.6222
 3327SOL     OW12872   9.000   2.956   7.614  0.8326 -0.3739 -0.4331
 3327SOL    HW112873   8.986   3.007   7.533  2.2223 -0.4896 -0.7642
 3327SOL    HW212874   8.925   2.979   7.669  0.4263  0.5517 -1.3276
 3328SOL     OW12875   3.185   7.600   9.582  0.1052 -0.4056 -0.1468
 3328SOL    HW112876   3.244   7.540   9.629  0.9911 -0.6472 -1.5087
 3328SOL    HW212877   3.172   7.559   9.497 -0.0537  0.8679 -0.7562
 3329SOL     OW12878   9.242   4.250   2.706 -0.6295 -0.1405 -0.0883
 3329SOL    HW112879   9.265   4.343   2.707 -1.5110  0.0837  1.0299
 3329SOL    HW212880   9.313   4.207   2.753  0.3328 -0.2055 -1.5201
 3330SOL     OW12881   2.211   1.999   8.964  0.0499 -0.1338 -0.1448
 3330SOL    HW112882   2.239   1.912   8.993  0.3156  0.0744  0.2294
 3330SOL    HW212883   2.293   2.044   8.940 -0.0783  0.0414 -0.2541
 3331SOL     OW12884   1.146   0.105   9.140 -0.0026  0.0400  0.1420
 3331SOL    HW112885   1.118   0.195   9.119 -1.0601 -0.5285 -1.0365
 3331SOL    HW212886   1.175   0.110   9.231 -0.9606  1.3864  0.4218
 3332SOL     OW12887   3.471   1.785   6.241  0.1041  0.0599 -0.3973
 3332SOL    HW112888   3.539   1.849   6.264  1.2419 -0.7517 -1.4118
 3332SOL    HW212889   3.401   1.838   6.204 -0.4872  1.0730  1.9648
 3333SOL     OW12890   1.332   8.952   7.348 -0.9040  0.4033  0.3831
 3333SOL    HW112891   1.284   8.963   7.265 -0.5564 -0.2093  0.0959
 3333SOL    HW212892   1.265   8.924   7.410 -0.7863 -1.4456 -0.2513
 3334SOL     OW12893   3.958   4.128   2.711  0.0123  0.9754  0.6002
 3334SOL    HW112894   3.886   4.065   2.706 -0.0608  1.1338 -1.2261
 3334SOL    HW212895   4.030   4.080   2.751 -0.0026 -0.3404 -0.8662
 3335SOL     OW12896   5.345   0.689   4.566 -0.3676 -0.4779  0.1583
 3335SOL    HW112897   5.400   0.749   4.516  0.1482 -0.3554  0.8564
 3335SOL    HW212898   5.363   0.603   4.527  0.0610 -0.3899  0.1493
 3336SOL     OW12899   6.028   1.332   5.970  0.0993  0.7366  0.0306
 3336SOL    HW112900   6.040   1.294   6.056  0.5904  0.0633 -0.3311
 3336SOL    HW212901   6.000   1.259   5.915 -0.8929  1.2983 -0.2327
 3337SOL     OW12902   4.010   2.370   4.365 -0.3718  0.5806 -0.4142
 3337SOL    HW112903   3.966   2.406   4.442  2.9119  1.5880  1.1627
 3337SOL    HW212904   3.966   2.411   4.291 -1.3227  2.4310  1.0819
 3338SOL     OW12905   5.377   6.526   1.469  0.2874 -0.3236  0.3391
 3338SOL    HW112906   5.463   6.539   1.509  0.5793  0.2158 -0.4373
 3338SOL    HW212907   5.321   6.591   1.511  1.2092  2.1306 -1.8997
 3339SOL     OW12908   5.475   6.055   1.644  0.4541 -0.3364  0.3059
 3339SOL    HW112909   5.486   6.129   1.583  2.3226 -0.1578  0.7898
 3339SOL    HW212910   5.443   5.984   1.589  1.6364 -0.0422 -0.8313
 3340SOL     OW12911   8.074   2.157   5.205  0.2538  0.3050 -0.3232
 3340SOL    HW112912   8.118   2.089   5.154  0.3134  1.5059 -1.9563
 3340SOL    HW212913   8.030   2.211   5.139  1.4096  2.7184  0.7822
 3341SOL     OW12914   3.473   4.638   0.822  0.2546  0.2222  0.0176
 3341SOL    HW112915   3.481   4.724   0.781  2.6026 -0.0807 -0.2891
 3341SOL    HW212916   3.563   4.607   0.830 -0.5355 -2.2793 -0.0069
 3342SOL     OW12917   4.398   2.754   3.495  0.3419 -0.4979 -0.2192
 3342SOL    HW112918   4.391   2.777   3.588 -1.9410  1.2570 -0.7412
 3342SOL    HW212919   4.354   2.669   3.489 -1.5473  0.4177  0.0111
 3343SOL     OW12920   0.969   6.368   5.726  0.3158  0.0047  0.1511
 3343SOL    HW112921   1.044   6.330   5.770  0.6645 -0.0549 -0.4737
 3343SOL    HW212922   0.958   6.455   5.766  0.2658 -0.2689  0.7380
 3344SOL     OW12923   4.949   0.727   6.329 -0.6535 -0.1556 -0.5336
 3344SOL    HW112924   4.865   0.757   6.365  0.5994  2.3170  0.5415
 3344SOL    HW212925   5.014   0.752   6.395  1.3171  1.1937 -2.8098
 3345SOL     OW12926   7.187   4.706   6.052 -0.1504 -0.2213 -0.8512
 3345SOL    HW112927   7.219   4.733   6.138 -0.6546  0.4048 -0.8495
 3345SOL    HW212928   7.264   4.672   6.006  0.4638  1.0366 -0.7760
 3346SOL     OW12929   0.142   1.297   1.356 -0.0203  0.2056 -0.4008
 3346SOL    HW112930   0.168   1.212   1.322  0.1021  0.0888 -0.0258
 3346SOL    HW212931   0.207   1.358   1.321  2.5670 -0.4562  2.7098
 3347SOL     OW12932   5.096   5.468   1.756 -0.1697 -0.5044 -0.0203
 3347SOL    HW112933   5.127   5.491   1.844 -0.7670 -0.4063  0.1687
 3347SOL    HW212934   5.116   5.374   1.748  3.1469  0.1477 -1.1614
 3348SOL     OW12935   5.065   8.444   7.046  0.0184 -0.1040  0.0751
 3348SOL    HW112936   5.062   8.362   6.997  0.4208 -0.8524  1.2600
 3348SOL    HW212937   5.079   8.512   6.980  1.4544 -1.1625 -0.7521
 3349SOL     OW12938   0.660   1.174   0.964  0.0591 -0.1161 -0.5142
 3349SOL    HW112939   0.687   1.085   0.940 -2.2040 -0.5521 -1.7327
 3349SOL    HW212940   0.691   1.228   0.891  0.2140 -0.1418 -0.4669
 3350SOL     OW12941   0.162   2.190   7.354 -0.0288 -0.2073 -0.3621
 3350SOL    HW112942   0.191   2.281   7.345  0.9994 -0.3843  0.9311
 3350SOL    HW212943   0.104   2.176   7.279 -0.2272  1.5188 -0.5684
 3351SOL     OW12944   4.706   6.900   9.641 -0.6538  0.3227  0.1898
 3351SOL    HW112945   4.778   6.947   9.599  1.1575  0.3810  3.0853
 3351SOL    HW212946   4.650   6.969   9.678 -2.8956  0.3207 -2.8318
 3352SOL     OW12947   7.641   2.461   6.345 -0.3524  0.5479  0.2119
 3352SOL    HW112948   7.556   2.495   6.317 -0.5024 -0.3199 -0.4079
 3352SOL    HW212949   7.699   2.537   6.340 -1.2431  1.3558  1.4217
 3353SOL     OW12950   8.464   6.278   9.501 -0.4016  0.1156  0.1225
 3353SOL    HW112951   8.419   6.301   9.420 -0.2932 -0.2234 -0.0358
 3353SOL    HW212952   8.450   6.184   9.510  3.0901 -0.7779 -1.7354
 3354SOL     OW12953   3.454   6.193   6.912 -0.1452 -0.7700  0.1747
 3354SOL    HW112954   3.437   6.280   6.876  1.0687 -0.7690 -0.4490
 3354SOL    HW212955   3.370   6.148   6.907 -0.1425 -0.6309 -2.3036
 3355SOL     OW12956   7.576   2.183   4.916 -0.0174 -0.2845 -0.7901
 3355SOL    HW112957   7.589   2.272   4.883  0.3154 -0.4333 -1.0603
 3355SOL    HW212958   7.482   2.167   4.905 -0.2498  0.3695  0.1047
 3356SOL     OW12959   8.461   9.567   5.189 -0.2957 -0.1101  0.3817
 3356SOL    HW112960   8.445   9.489   5.242  0.1497 -0.1082  0.5252
 3356SOL    HW212961   8.381   9.619   5.198 -0.0552  0.1046  1.4201
 3357SOL     OW12962   6.124   2.297   2.945  0.1577  0.3741  0.0860
 3357SOL    HW112963   6.060   2.312   3.014  2.6134 -1.0148  2.8574
 3357SOL    HW212964   6.136   2.202   2.943  1.2918  0.5149 -1.1579
 3358SOL     OW12965   1.624   4.261   4.669 -0.4105 -0.1578  0.3810
 3358SOL    HW112966   1.596   4.172   4.689  0.3841 -0.6882 -0.7404
 3358SOL    HW212967   1.552   4.317   4.699 -2.8969 -1.4473 -2.7045
 3359SOL     OW12968   5.634   2.939   9.496  0.4563 -0.2094  0.8982
 3359SOL    HW112969   5.652   3.031   9.478  0.1112 -0.3654 -0.3329
 3359SOL    HW212970   5.548   2.923   9.457  1.6139 -1.6749 -1.2542
 3360SOL     OW12971   1.160   1.053   6.339  0.0652 -0.3142 -0.2306
 3360SOL    HW112972   1.193   1.103   6.265 -3.1034  4.3611  1.1111
 3360SOL    HW212973   1.076   1.018   6.309 -1.4221  1.9286  1.0369
 3361SOL     OW12974   8.032   8.578   6.390  0.0311  0.0846  0.2124
 3361SOL    HW112975   8.039   8.588   6.296 -1.7532 -0.1599  0.0173
 3361SOL    HW212976   8.042   8.667   6.425 -0.1223  0.2902 -0.2678
 3362SOL     OW12977   9.182   6.716   0.727 -0.7777 -0.0506 -0.5082
 3362SOL    HW112978   9.091   6.688   0.740 -0.2205 -1.0650  1.7580
 3362SOL    HW212979   9.230   6.674   0.798  1.4835  0.5072 -1.6083
 3363SOL     OW12980   9.381   4.741   1.635  0.8353  0.0558 -0.0143
 3363SOL    HW112981   9.387   4.686   1.713  1.1865  0.9141  0.5828
 3363SOL    HW212982   9.360   4.681   1.565  0.7852 -0.7780  0.6976
 3364SOL     OW12983   4.690   7.234   0.108 -0.0781 -0.3457  0.4460
 3364SOL    HW112984   4.753   7.281   0.163 -1.9262  2.3276  0.5132
 3364SOL    HW212985   4.646   7.174   0.167  0.3906 -0.0815  1.0788
 3365SOL     OW12986   7.446   0.313   1.011 -0.0878  0.0872  0.7141
 3365SOL    HW112987   7.413   0.238   0.963 -1.1870  1.3576 -0.5955
 3365SOL    HW212988   7.406   0.306   1.098 -0.5529 -0.5675  0.4552
 3366SOL     OW12989   3.722   3.663   4.766 -0.4400  0.7430 -0.1492
 3366SOL    HW112990   3.805   3.706   4.787  0.8553 -2.2167  1.4596
 3366SOL    HW212991   3.736   3.628   4.677  0.4355 -0.4127  0.4050
 3367SOL     OW12992   7.187   8.514   0.436  0.4746  0.0815 -0.2311
 3367SOL    HW112993   7.216   8.547   0.351  1.2621  0.7633  0.2956
 3367SOL    HW212994   7.246   8.554   0.499  1.1519 -1.9397  0.4893
 3368SOL     OW12995   2.401   2.079   7.540 -0.5141 -0.4917 -0.6295
 3368SOL    HW112996   2.494   2.058   7.536 -0.4605 -0.8454  1.3628
 3368SOL    HW212997   2.357   1.994   7.540 -0.8069 -0.3439 -0.8090
 3369SOL     OW12998   3.798   9.497   8.340 -0.3378 -0.0014 -0.1500
 3369SOL    HW112999   3.852   9.436   8.390 -0.2496  0.6572  0.5823
 3369SOL    HW213000   3.725   9.517   8.398 -0.8406 -0.1042 -0.7372
 3370SOL     OW13001   7.760   1.418   6.010 -0.2146 -0.0085  0.1989
 3370SOL    HW113002   7.851   1.440   6.029  0.0574  0.3469 -1.3750
 3370SOL    HW213003   7.712   1.499   6.025  0.3701  1.0182 -2.8446
 3371SOL     OW13004   2.566   3.048   2.602 -0.7457  0.0841  0.0400
 3371SOL    HW113005   2.494   3.014   2.549 -0.1363 -0.6343 -0.3465
 3371SOL    HW213006   2.523   3.101   2.670 -1.6589 -0.7076  0.0996
 3372SOL     OW13007   2.164   3.978   7.852  0.6068  0.3030  0.1288
 3372SOL    HW113008   2.075   4.013   7.846 -0.2294 -1.8142 -0.9142
 3372SOL    HW213009   2.217   4.037   7.800 -0.6490  0.3207 -1.1894
 3373SOL     OW13010   4.327   8.930   3.027  0.0567 -0.0848 -0.4468
 3373SOL    HW113011   4.417   8.898   3.031 -0.5676 -1.8610  2.3579
 3373SOL    HW213012   4.336   9.023   3.004  2.5431 -0.3855 -0.9452
 3374SOL     OW13013   2.211   3.877   8.106 -0.3940 -0.5020  0.7731
 3374SOL    HW113014   2.184   3.917   8.022 -1.1570 -2.9051 -0.2190
 3374SOL    HW213015   2.305   3.893   8.111 -0.1151 -1.2725 -1.1462
 3375SOL     OW13016   7.069   1.695   0.314 -0.1966  0.2496  0.1181
 3375SOL    HW113017   7.154   1.715   0.352  0.5768  0.2850 -1.5524
 3375SOL    HW213018   7.074   1.602   0.290 -0.7107  0.1928  0.2159
 3376SOL     OW13019   1.097   0.479   3.296 -0.7536 -0.3519 -0.6058
 3376SOL    HW113020   1.077   0.527   3.376 -0.8616  1.2944 -1.5534
 3376SOL    HW213021   1.030   0.509   3.233 -0.4572 -1.3184 -1.4045
 3377SOL     OW13022   2.292   8.615   9.158 -0.6084  0.1713 -0.0586
 3377SOL    HW113023   2.322   8.641   9.245  1.6595 -1.6720 -0.1739
 3377SOL    HW213024   2.339   8.673   9.098  0.4559 -0.7328 -0.1304
 3378SOL     OW13025   7.579   7.269   8.316  0.8426  0.4165 -0.5421
 3378SOL    HW113026   7.572   7.174   8.329 -0.4407  0.4564 -0.8824
 3378SOL    HW213027   7.548   7.283   8.227  1.5436  1.1072 -0.6894
 3379SOL     OW13028   7.587   3.095   7.706  0.2473  0.5696 -0.2874
 3379SOL    HW113029   7.631   3.130   7.783  0.3197  1.5269 -0.7450
 3379SOL    HW213030   7.536   3.021   7.738 -2.3109  2.8398  1.3084
 3380SOL     OW13031   0.718   8.493   3.696 -0.0136 -0.1164 -0.6611
 3380SOL    HW113032   0.808   8.500   3.729  0.0989  1.1856 -1.1979
 3380SOL    HW213033   0.685   8.411   3.734  1.1364 -0.2246  0.1534
 3381SOL     OW13034   0.358   4.987   6.201 -0.0962  0.1396 -0.1951
 3381SOL    HW113035   0.315   4.936   6.269 -1.7778  0.4138 -1.0083
 3381SOL    HW213036   0.360   5.076   6.234  2.0755 -0.2475  0.8617
 3382SOL     OW13037   1.983   3.461   1.309 -0.1060 -0.8034  0.1494
 3382SOL    HW113038   1.988   3.515   1.230 -0.0305  0.8240  1.2109
 3382SOL    HW213039   1.893   3.429   1.310 -0.4457  0.1056 -0.0215
 3383SOL     OW13040   6.010   8.097   7.004 -0.3449  0.5087  0.3395
 3383SOL    HW113041   5.961   8.160   7.056 -3.2697 -1.1548 -0.1896
 3383SOL    HW213042   6.014   8.135   6.917  0.0987  1.0174  0.5725
 3384SOL     OW13043   8.412   3.462   4.238  0.2975  0.0021  0.3838
 3384SOL    HW113044   8.341   3.399   4.247 -0.4299  0.8424  0.7278
 3384SOL    HW213045   8.423   3.474   4.143  0.4765 -0.6588  0.3159
 3385SOL     OW13046   3.189   8.007   0.386  0.0368 -0.4579 -0.0834
 3385SOL    HW113047   3.185   8.045   0.474  0.8025  0.3902 -0.4055
 3385SOL    HW213048   3.265   7.949   0.389  1.8821  1.7758 -0.9967
 3386SOL     OW13049   8.085   5.537   4.633 -0.2433  0.2065 -0.6169
 3386SOL    HW113050   8.138   5.460   4.615  0.6672  0.8238 -0.6426
 3386SOL    HW213051   7.998   5.503   4.652  0.2442 -0.8475 -0.2358
 3387SOL     OW13052   6.785   4.615   6.296 -0.6725  0.1722  0.3515
 3387SOL    HW113053   6.859   4.676   6.303 -0.0520 -0.4400 -0.6298
 3387SOL    HW213054   6.716   4.655   6.348 -0.8950  2.6342 -1.6210
 3388SOL     OW13055   4.553   9.395   3.739 -0.1075  0.0119 -0.2165
 3388SOL    HW113056   4.551   9.351   3.824  0.6470 -0.0399 -0.2119
 3388SOL    HW213057   4.566   9.324   3.676 -0.2045  0.0939 -0.3286
 3389SOL     OW13058   4.612   6.331   1.670 -0.1326 -0.1506 -0.5239
 3389SOL    HW113059   4.613   6.274   1.747  2.1274 -0.3405 -0.6367
 3389SOL    HW213060   4.522   6.362   1.665 -0.2243  0.4562  2.6545
 3390SOL     OW13061   7.570   6.268   5.864 -0.0943  0.5546 -0.2564
 3390SOL    HW113062   7.522   6.333   5.813 -2.8335 -0.9292  0.2150
 3390SOL    HW213063   7.542   6.284   5.955 -0.5026 -0.9565 -0.0891
 3391SOL     OW13064   9.606   9.227   5.252 -1.0770  0.4280 -0.2520
 3391SOL    HW113065   9.695   9.200   5.229 -0.1806  1.3273  1.8882
 3391SOL    HW213066   9.574   9.159   5.311 -1.5741  0.4439 -0.4930
 3392SOL     OW13067   1.903   9.426   2.386  0.0770  0.4028 -0.0175
 3392SOL    HW113068   1.945   9.340   2.378  3.1074  1.6621  0.6656
 3392SOL    HW213069   1.867   9.444   2.300  0.4770 -1.0682 -0.5080
 3393SOL     OW13070   9.380   7.389   0.337 -0.1294 -0.2313  0.0184
 3393SOL    HW113071   9.352   7.304   0.305 -1.3962  0.2427 -0.1700
 3393SOL    HW213072   9.346   7.452   0.273 -1.1714  0.5917  1.3187
 3394SOL     OW13073   1.016   1.995   1.183  1.0880  0.1425  0.0762
 3394SOL    HW113074   1.014   1.916   1.238 -1.2521  0.4998  0.6143
 3394SOL    HW213075   0.990   1.964   1.097  0.4599  0.2677  0.2179
 3395SOL     OW13076   1.348   9.036   0.327  0.4447  0.1493 -0.3518
 3395SOL    HW113077   1.397   9.010   0.249  0.2265  0.6715 -0.6706
 3395SOL    HW213078   1.368   9.129   0.338  1.7978 -0.2608  1.1840
 3396SOL     OW13079   7.373   6.923   4.598 -0.2390 -0.0870  0.0739
 3396SOL    HW113080   7.424   6.939   4.519  0.1189 -0.2356  0.2753
 3396SOL    HW213081   7.297   6.873   4.567  0.9248 -1.9679  0.1042
 3397SOL     OW13082   0.152   5.349   4.278 -0.0905 -0.6689 -0.3609
 3397SOL    HW113083   0.245   5.326   4.279 -0.2736 -1.5388 -1.4044
 3397SOL    HW213084   0.147   5.429   4.225 -0.1858 -2.0688 -2.6080
 3398SOL     OW13085   8.249   6.531   7.924 -0.7694  0.0511 -0.3479
 3398SOL    HW113086   8.343   6.540   7.911 -0.6266  0.3673  0.8158
 3398SOL    HW213087   8.224   6.611   7.971 -1.7970  0.4380 -1.4775
 3399SOL     OW13088   1.621   8.005   6.842  0.0306  0.4217 -0.2155
 3399SOL    HW113089   1.703   8.052   6.859 -0.0204  0.7011 -0.7292
 3399SOL    HW213090   1.600   8.025   6.751 -1.4379  1.6311  0.3378
 3400SOL     OW13091   1.945   0.520   2.922  0.0123  0.0619 -0.7005
 3400SOL    HW113092   2.011   0.580   2.888  0.2522  0.1460 -0.0987
 3400SOL    HW213093   1.978   0.433   2.901 -0.3134  0.1313 -1.5331
 3401SOL     OW13094   8.285   8.227   1.668  0.1065  0.0164 -0.2644
 3401SOL    HW113095   8.327   8.274   1.740  0.0119  0.2417 -0.3571
 3401SOL    HW213096   8.334   8.145   1.662  1.4027  0.8162 -1.2400
 3402SOL     OW13097   2.068   1.988   4.335  0.2078 -0.0383 -0.4155
 3402SOL    HW113098   2.103   1.929   4.401  0.5338 -0.1217 -0.6611
 3402SOL    HW213099   1.983   1.952   4.313  0.9601 -1.1972 -1.5425
 3403SOL     OW13100   0.605   4.146   6.031 -0.3133 -0.0855  0.7144
 3403SOL    HW113101   0.658   4.100   5.965 -0.8917 -0.2041  0.3204
 3403SOL    HW213102   0.606   4.089   6.107  1.9901  0.9460  1.5469
 3404SOL     OW13103   2.793   9.111   3.215  0.1585  0.6481  0.4322
 3404SOL    HW113104   2.758   9.022   3.208 -1.0655  1.1873 -0.4200
 3404SOL    HW213105   2.785   9.132   3.308 -1.5361  0.6516  0.3055
 3405SOL     OW13106   6.828   2.655   4.614  0.0133  0.0266  0.0883
 3405SOL    HW113107   6.884   2.657   4.691  1.1240  0.5012 -0.7018
 3405SOL    HW213108   6.762   2.724   4.629  1.5103  1.6182 -0.2882
 3406SOL     OW13109   4.871   1.262   2.425  0.2934  0.2209  0.3661
 3406SOL    HW113110   4.945   1.201   2.429  1.1336  1.1861  0.1568
 3406SOL    HW213111   4.825   1.249   2.508 -0.2462 -1.5066 -0.1613
 3407SOL     OW13112   7.344   1.866   1.826  0.1600 -0.1797  0.2303
 3407SOL    HW113113   7.313   1.951   1.857 -0.4870 -0.4486  0.3360
 3407SOL    HW213114   7.377   1.822   1.904  0.9380  0.1491  0.1004
 3408SOL     OW13115   6.511   9.088   8.349 -0.5548 -1.1903  0.3216
 3408SOL    HW113116   6.554   9.073   8.433 -1.3818 -2.4514  0.5492
 3408SOL    HW213117   6.512   9.002   8.306  1.6058 -0.2050 -1.8476
 3409SOL     OW13118   0.545   3.393   6.406 -0.0921  0.6801 -0.7649
 3409SOL    HW113119   0.586   3.366   6.324 -0.5635  3.1206 -1.8868
 3409SOL    HW213120   0.461   3.430   6.380  0.0297  2.1160  0.7292
 3410SOL     OW13121   0.488   6.345   3.653 -0.2376 -0.0489 -0.1019
 3410SOL    HW113122   0.469   6.297   3.572 -1.2094  1.2479 -0.6740
 3410SOL    HW213123   0.463   6.435   3.634  2.8153  1.0321  0.4854
 3411SOL     OW13124   2.851   2.908   2.297 -0.7673  0.4869 -0.1877
 3411SOL    HW113125   2.809   2.878   2.378  0.0673 -2.3373 -0.6860
 3411SOL    HW213126   2.785   2.891   2.229  0.1299 -1.6264 -0.6346
 3412SOL     OW13127   4.627   7.752   1.732  0.2977  0.1156  0.2373
 3412SOL    HW113128   4.592   7.679   1.784 -0.9784  1.1378  0.8576
 3412SOL    HW213129   4.703   7.783   1.782  0.1221 -0.0111  0.5833
 3413SOL     OW13130   7.868   7.104   1.600 -0.4506 -0.1651 -0.4149
 3413SOL    HW113131   7.933   7.173   1.612 -0.6172  0.0775 -0.8697
 3413SOL    HW213132   7.815   7.106   1.680  0.7555 -1.0905  0.4519
 3414SOL     OW13133   8.977   2.519   0.635  0.3393 -0.2707 -0.4260
 3414SOL    HW113134   8.958   2.513   0.541  0.3499  0.4484 -0.4786
 3414SOL    HW213135   8.914   2.460   0.676 -0.5765  0.4450 -0.7739
 3415SOL     OW13136   2.412   2.975   3.771 -0.4595  0.2779  0.3037
 3415SOL    HW113137   2.439   2.919   3.844  0.2483 -2.1129 -1.6547
 3415SOL    HW213138   2.483   3.039   3.763  0.2019 -0.3687  0.7884
 3416SOL     OW13139   1.250   6.409   5.202  0.2628 -0.2837  0.0259
 3416SOL    HW113140   1.218   6.359   5.276  1.2055 -1.1127 -0.1149
 3416SOL    HW213141   1.200   6.491   5.205  0.0783 -0.4290  1.3870
 3417SOL     OW13142   2.902   0.252   9.041  0.2825  0.3212  0.1821
 3417SOL    HW113143   2.995   0.252   9.018  0.2450  1.1517 -0.0170
 3417SOL    HW213144   2.862   0.195   8.977  0.6830 -0.2172  0.4007
 3418SOL     OW13145   5.230   8.338   0.111  0.1580 -0.0946 -0.2780
 3418SOL    HW113146   5.269   8.306   0.030 -1.5259 -0.2642 -1.0663
 3418SOL    HW213147   5.256   8.273   0.177  2.3591  0.5516 -0.4090
 3419SOL     OW13148   1.814   4.734   2.809 -0.3049 -0.0642 -0.0572
 3419SOL    HW113149   1.779   4.645   2.821  2.7681 -1.1765  1.9631
 3419SOL    HW213150   1.834   4.740   2.716 -0.0036 -1.7705 -0.1307
 3420SOL     OW13151   7.715   3.233   9.618 -0.1425 -0.2020 -0.8177
 3420SOL    HW113152   7.664   3.276   9.550 -3.6924  0.3368  1.9064
 3420SOL    HW213153   7.752   3.305   9.670  0.7635 -0.5804 -0.9203
 3421SOL     OW13154   6.033   3.791   8.639  0.1415 -0.9899 -0.4528
 3421SOL    HW113155   6.055   3.790   8.732 -0.9783 -0.6313 -0.1755
 3421SOL    HW213156   5.982   3.711   8.625 -3.0569  0.7867  0.1320
 3422SOL     OW13157   8.035   1.241   1.274  0.1615  0.1485  0.1489
 3422SOL    HW113158   8.091   1.314   1.248  0.1203  0.1166 -0.0344
 3422SOL    HW213159   7.971   1.279   1.334 -0.5670  0.4986 -0.8188
 3423SOL     OW13160   4.923   3.772   5.527  0.0412 -0.1124 -0.0024
 3423SOL    HW113161   5.016   3.749   5.521  0.1774 -0.1860  1.9152
 3423SOL    HW213162   4.914   3.814   5.612 -1.5727  0.5138 -0.4490
 3424SOL     OW13163   6.999   6.876   7.153 -0.3361  0.0637 -0.2787
 3424SOL    HW113164   6.935   6.919   7.211 -0.7312 -0.4322 -0.3378
 3424SOL    HW213165   7.028   6.946   7.094 -1.8360  0.0233 -1.1336
 3425SOL     OW13166   2.371   5.072   5.214 -0.1902 -0.1258 -0.0546
 3425SOL    HW113167   2.383   5.148   5.157 -0.1345 -1.7939 -2.4446
 3425SOL    HW213168   2.286   5.086   5.255 -1.1947  0.2489 -2.1399
 3426SOL     OW13169   9.169   6.038   8.883 -0.0103  0.0574 -0.4868
 3426SOL    HW113170   9.240   6.070   8.828 -0.2335  0.2162 -0.6872
 3426SOL    HW213171   9.170   5.943   8.871  2.3882 -0.3880  2.1905
 3427SOL     OW13172   5.932   6.345   1.708  0.1336  0.5630 -0.3911
 3427SOL    HW113173   6.009   6.398   1.731  0.8523 -1.2370  1.6560
 3427SOL    HW213174   5.862   6.379   1.764  0.0694  0.6394 -0.5176
 3428SOL     OW13175   0.959   3.033   2.030  0.0513 -0.2782 -0.4895
 3428SOL    HW113176   0.924   3.014   2.117 -0.5870 -2.2668 -1.1092
 3428SOL    HW213177   0.971   3.128   2.028 -0.8223 -0.0903  1.4181
 3429SOL     OW13178   6.590   6.952   4.605 -0.1227 -0.6298  0.0657
 3429SOL    HW113179   6.655   6.888   4.575 -0.7446 -1.2333 -0.0543
 3429SOL    HW213180   6.616   7.034   4.565  1.3588 -0.5449  1.1614
 3430SOL     OW13181   8.242   9.497   4.740 -0.3569  0.4235  0.8311
 3430SOL    HW113182   8.192   9.417   4.721 -0.1772  0.1710  1.4008
 3430SOL    HW213183   8.289   9.477   4.821  2.3512 -0.1584 -0.7661
 3431SOL     OW13184   5.382   7.328   5.963  0.0309 -0.2049  0.1621
 3431SOL    HW113185   5.407   7.382   6.037  2.4130 -2.1968  0.9499
 3431SOL    HW213186   5.293   7.300   5.982  0.3917 -0.2053  2.0075
 3432SOL     OW13187   6.256   4.371   2.091 -0.1382  0.1467 -0.2101
 3432SOL    HW113188   6.226   4.311   2.159  1.3876 -1.6408 -1.0033
 3432SOL    HW213189   6.329   4.418   2.130  0.0270 -0.0721 -0.2539
 3433SOL     OW13190   2.829   2.707   5.724  0.4877 -0.5317 -0.4302
 3433SOL    HW113191   2.831   2.791   5.679  0.5475 -1.0852 -1.4809
 3433SOL    HW213192   2.883   2.648   5.671  1.7237 -0.8694  1.0966
 3434SOL     OW13193   8.403   0.836   8.771 -1.0487  0.0257 -0.3325
 3434SOL    HW113194   8.493   0.815   8.799 -0.1951 -0.4874 -3.1498
 3434SOL    HW213195   8.351   0.826   8.850  1.0593 -1.7467  0.9536
 3435SOL     OW13196   0.953   0.836   7.656  0.4240 -0.5703 -0.2494
 3435SOL    HW113197   0.910   0.758   7.693 -0.6034 -0.3249 -0.8837
 3435SOL    HW213198   0.930   0.906   7.717 -0.2080 -0.4109 -0.6658
 3436SOL     OW13199   9.004   2.159   1.176  0.4922 -0.5054  0.1609
 3436SOL    HW113200   9.026   2.070   1.147  1.8547 -0.5334  1.1456
 3436SOL    HW213201   9.060   2.216   1.123 -0.3945 -0.2150 -0.4824
 3437SOL     OW13202   1.617   3.881   2.627 -0.2886  0.0741  0.1766
 3437SOL    HW113203   1.528   3.890   2.661 -0.8948 -0.1583 -1.2714
 3437SOL    HW213204   1.607   3.888   2.532  1.6238  3.1000  0.0906
 3438SOL     OW13205   7.779   8.094   3.673 -0.5195  0.3514 -0.0454
 3438SOL    HW113206   7.863   8.092   3.719 -1.1384 -1.6579  1.1095
 3438SOL    HW213207   7.800   8.131   3.587  2.0049 -2.0080 -0.5816
 3439SOL     OW13208   1.116   1.633   0.318 -0.8651 -0.5086  0.7512
 3439SOL    HW113209   1.116   1.540   0.344  2.5337 -0.6208  0.7469
 3439SOL    HW213210   1.045   1.671   0.370 -2.5261 -3.0943  0.5999
 3440SOL     OW13211   2.525   4.009   1.426 -0.5805 -0.2655  0.3082
 3440SOL    HW113212   2.608   4.037   1.464 -1.0911  1.7009  0.0830
 3440SOL    HW213213   2.549   3.952   1.353  0.5963  0.5588  0.0357
 3441SOL     OW13214   8.474   0.345   5.511 -0.4144 -0.1153  0.3936
 3441SOL    HW113215   8.530   0.393   5.572 -0.0028  2.2883 -1.7239
 3441SOL    HW213216   8.411   0.300   5.567  1.1457  0.3242  2.6530
 3442SOL     OW13217   5.207   7.253   7.896  0.0904  0.2185 -0.5008
 3442SOL    HW113218   5.218   7.295   7.810 -1.1458 -0.3382 -0.9524
 3442SOL    HW213219   5.128   7.293   7.932 -0.8905 -1.4003 -0.7719
 3443SOL     OW13220   1.129   1.999   9.481  0.0989 -0.5787 -0.2002
 3443SOL    HW113221   1.150   1.927   9.421  1.4566 -0.7455  0.4324
 3443SOL    HW213222   1.171   2.076   9.443  0.5281 -0.5792  0.2660
 3444SOL     OW13223   6.911   2.666   6.673  0.3472  0.3357  0.7131
 3444SOL    HW113224   6.869   2.605   6.612  0.1066  1.1712  0.0323
 3444SOL    HW213225   6.898   2.752   6.635 -0.0547  0.9194  2.0972
 3445SOL     OW13226   6.126   2.626   7.703 -0.2391  0.3538  0.5570
 3445SOL    HW113227   6.113   2.608   7.610 -1.1311 -0.3798  0.8045
 3445SOL    HW213228   6.095   2.716   7.715  0.3765  0.6332  0.0511
 3446SOL     OW13229   6.577   8.400   5.832 -0.6391  0.0168 -0.3736
 3446SOL    HW113230   6.668   8.414   5.859 -0.8315 -0.2327  0.4364
 3446SOL    HW213231   6.576   8.312   5.796 -0.1196  0.7925 -2.4094
 3447SOL     OW13232   1.703   4.184   7.769  0.2912 -0.5763  0.0735
 3447SOL    HW113233   1.779   4.126   7.769 -0.2677 -1.3255  0.3956
 3447SOL    HW213234   1.738   4.270   7.745  1.3383 -0.7696  0.8681
 3448SOL     OW13235   1.682   8.876   9.251  0.3666  0.3468  0.0516
 3448SOL    HW113236   1.639   8.870   9.166  0.1042  0.0016  0.2102
 3448SOL    HW213237   1.727   8.792   9.262 -0.7178 -0.1475  0.8556
 3449SOL     OW13238   8.197   3.134   8.838 -0.0645  0.2416 -0.1795
 3449SOL    HW113239   8.179   3.193   8.911 -0.1130 -0.9863  0.8335
 3449SOL    HW213240   8.238   3.058   8.879  0.3599 -0.2686 -1.5047
 3450SOL     OW13241   6.988   7.504   0.174  0.0030 -0.5476  0.2013
 3450SOL    HW113242   6.906   7.493   0.127  0.5936  2.2525 -1.7574
 3450SOL    HW213243   6.970   7.573   0.238  0.7938  0.0841 -0.2388
 3451SOL     OW13244   9.165   1.140   2.946 -0.3342 -0.0541 -0.0197
 3451SOL    HW113245   9.072   1.146   2.924 -0.6610 -0.9376  1.0378
 3451SOL    HW213246   9.182   1.218   2.998 -0.2946  0.4801 -0.8167
 3452SOL     OW13247   2.283   3.740   9.304  0.1132  0.3492 -0.1266
 3452SOL    HW113248   2.252   3.679   9.371  1.9461  1.3763  1.7711
 3452SOL    HW213249   2.225   3.816   9.312 -0.6901 -0.1693 -0.8672
 3453SOL     OW13250   8.666   1.040   1.554  0.2540 -0.1487 -0.2804
 3453SOL    HW113251   8.587   1.083   1.587  1.1174  0.5927  0.8628
 3453SOL    HW213252   8.653   1.039   1.459 -0.3966  1.4525 -0.2488
 3454SOL     OW13253   6.391   5.663   7.638 -0.6403  0.0291  0.0161
 3454SOL    HW113254   6.480   5.652   7.604 -0.5487 -0.1860  0.3220
 3454SOL    HW213255   6.400   5.724   7.711 -1.0121  1.4330 -1.0752
 3455SOL     OW13256   8.346   4.665   2.554 -0.1424 -0.2819  0.2030
 3455SOL    HW113257   8.296   4.727   2.607 -0.1747 -0.2443  0.1300
 3455SOL    HW213258   8.365   4.592   2.612  1.2362  0.4782  0.7649
 3456SOL     OW13259   0.019   8.552   9.391  0.0382 -0.5191 -0.0103
 3456SOL    HW113260  -0.010   8.491   9.324 -0.7928 -0.6434  0.4518
 3456SOL    HW213261   0.074   8.615   9.344  3.7723 -3.4365  0.0120
 3457SOL     OW13262   6.919   3.382   7.704 -0.2289  0.0001  0.4849
 3457SOL    HW113263   6.827   3.405   7.715  0.4725  3.2446  0.6323
 3457SOL    HW213264   6.928   3.363   7.611 -0.6628  2.1141 -0.0479
 3458SOL     OW13265   6.195   8.338   4.157  0.5151 -0.1471 -0.1978
 3458SOL    HW113266   6.242   8.399   4.214 -0.6091 -0.2200  0.8338
 3458SOL    HW213267   6.259   8.269   4.138  1.8592  1.3659 -1.4983
 3459SOL     OW13268   3.227   1.614   8.016  0.2399 -0.0228 -0.0565
 3459SOL    HW113269   3.275   1.685   7.972  2.9363 -1.0444  1.0825
 3459SOL    HW213270   3.168   1.660   8.077  1.2900  1.2545  0.0417
 3460SOL     OW13271   0.222   4.963   8.342  0.3525  0.0253 -0.1604
 3460SOL    HW113272   0.156   5.001   8.399  0.1343 -0.2373 -0.2390
 3460SOL    HW213273   0.266   4.897   8.396 -0.7421 -1.1821 -0.6723
 3461SOL     OW13274   2.336   9.048   2.200 -0.3459  0.2058 -0.0404
 3461SOL    HW113275   2.347   8.954   2.214  1.3876  0.5267  1.0963
 3461SOL    HW213276   2.267   9.055   2.135 -0.3933 -1.8615 -0.2670
 3462SOL     OW13277   7.147   7.953   7.264  0.2297 -0.2418 -0.7395
 3462SOL    HW113278   7.114   7.865   7.246 -0.4725 -0.0256 -0.5553
 3462SOL    HW213279   7.117   8.005   7.189 -2.3826  0.5844  0.7814
 3463SOL     OW13280   0.354   9.206   7.418 -0.3061  0.2314  0.4543
 3463SOL    HW113281   0.411   9.275   7.383 -2.2876  1.8745  0.3398
 3463SOL    HW213282   0.386   9.192   7.507  1.6052 -0.4377 -0.2791
 3464SOL     OW13283   8.889   4.758   4.179 -0.6514 -0.1866  0.2132
 3464SOL    HW113284   8.929   4.742   4.093 -0.3988  1.6677 -0.0379
 3464SOL    HW213285   8.795   4.749   4.164 -0.6742  1.0787 -0.4880
 3465SOL     OW13286   4.687   2.926   2.456 -0.5275 -0.0080  0.2678
 3465SOL    HW113287   4.641   2.942   2.373 -1.8547  0.0105  0.9680
 3465SOL    HW213288   4.704   2.831   2.456  2.3651  0.3924 -1.4030
 3466SOL     OW13289   2.772   2.830   6.151 -0.0976  0.5727 -0.2342
 3466SOL    HW113290   2.741   2.858   6.237 -0.6161 -0.6138 -0.0060
 3466SOL    HW213291   2.693   2.800   6.105  0.1976  1.0286 -1.0617
 3467SOL     OW13292   3.939   0.220   2.153 -0.4593 -0.3908  0.8592
 3467SOL    HW113293   3.981   0.136   2.171  1.2389 -0.0362 -1.0935
 3467SOL    HW213294   4.003   0.285   2.183 -0.9109  0.1979  0.5633
 3468SOL     OW13295   1.967   2.900   8.085 -0.3983 -0.1120 -0.4162
 3468SOL    HW113296   1.955   2.830   8.149 -3.3718 -0.5799 -1.3053
 3468SOL    HW213297   1.913   2.873   8.010 -0.1633  2.2517 -1.5314
 3469SOL     OW13298   5.484   6.034   2.025 -0.4568  0.0877  0.3625
 3469SOL    HW113299   5.479   6.067   2.115 -1.4828 -0.6345  0.5943
 3469SOL    HW213300   5.392   6.025   1.998 -0.1622 -0.2130 -0.5729
 3470SOL     OW13301   2.768   8.865   7.843  0.0965 -0.5401  0.1765
 3470SOL    HW113302   2.763   8.857   7.748 -0.0586  1.1470  0.0148
 3470SOL    HW213303   2.705   8.801   7.876 -2.6312  1.3544 -1.0096
 3471SOL     OW13304   8.728   8.663   1.848 -0.2011  0.2516  0.0045
 3471SOL    HW113305   8.764   8.751   1.839 -0.2768  0.3041  0.2290
 3471SOL    HW213306   8.689   8.645   1.762  0.7182  0.0333 -0.3821
 3472SOL     OW13307   5.203   4.223   9.343 -0.6293 -0.3608 -0.2924
 3472SOL    HW113308   5.198   4.130   9.324 -1.1524 -0.3192 -0.3803
 3472SOL    HW213309   5.136   4.263   9.287 -0.7532  0.0061  0.1061
 3473SOL     OW13310   9.325   9.077   7.661 -0.1648 -0.0205 -0.0628
 3473SOL    HW113311   9.410   9.110   7.634 -0.1535  0.7508  0.8359
 3473SOL    HW213312   9.344   9.007   7.722 -0.1843 -0.4013 -0.4883
 3474SOL     OW13313   9.109   2.810   4.463  0.4459 -0.0750  0.1477
 3474SOL    HW113314   9.025   2.810   4.510 -0.8178  1.3544 -1.9470
 3474SOL    HW213315   9.132   2.902   4.455  1.5325 -0.3923 -0.4861
 3475SOL     OW13316   5.513   9.266   0.441 -0.3806  0.3234 -0.7500
 3475SOL    HW113317   5.606   9.255   0.417 -0.0854 -1.2856  0.8944
 3475SOL    HW213318   5.466   9.215   0.375 -0.4117  3.1655 -3.1339
 3476SOL     OW13319   2.769   9.472   3.129  0.6550 -0.1900  0.3925
 3476SOL    HW113320   2.714   9.400   3.160 -1.1650  1.4808  1.2940
 3476SOL    HW213321   2.754   9.476   3.035 -1.6094  0.7783  0.7218
 3477SOL     OW13322   3.746   7.800   4.126 -0.0168  0.1658 -0.2937
 3477SOL    HW113323   3.654   7.785   4.147 -0.3018 -1.0318 -2.2120
 3477SOL    HW213324   3.775   7.864   4.192 -2.2234  0.6620  0.2843
 3478SOL     OW13325   8.035   1.635   8.552  0.4972 -0.0039  0.1506
 3478SOL    HW113326   8.021   1.605   8.462  0.1164 -0.0311  0.2157
 3478SOL    HW213327   8.052   1.555   8.602  0.1990 -0.0422  0.1936
 3479SOL     OW13328   5.658   3.218   9.465  0.3256  1.0709 -0.2760
 3479SOL    HW113329   5.751   3.233   9.484  0.6243 -1.6487  0.9054
 3479SOL    HW213330   5.611   3.271   9.529  1.2093 -0.1530  1.4823
 3480SOL     OW13331   4.760   5.663   2.483 -0.2359 -0.2349 -0.4720
 3480SOL    HW113332   4.747   5.568   2.480 -0.1639 -0.2223 -1.4527
 3480SOL    HW213333   4.690   5.699   2.429 -0.4466  0.3043  0.1426
 3481SOL     OW13334   8.186   2.787   9.380 -0.0968  0.1811  0.0446
 3481SOL    HW113335   8.208   2.876   9.353 -0.7230  0.0070 -1.0832
 3481SOL    HW213336   8.261   2.734   9.353 -0.3606  0.1399 -0.6210
 3482SOL     OW13337   5.020   2.375   8.793 -0.0676 -0.2984 -0.1199
 3482SOL    HW113338   5.080   2.443   8.763 -0.5848  0.4916  0.5785
 3482SOL    HW213339   5.048   2.296   8.747  2.2240 -0.2300  1.0346
 3483SOL     OW13340   2.334   8.774   2.195  0.0016 -0.7712 -0.0919
 3483SOL    HW113341   2.384   8.704   2.152 -0.5937 -1.2406 -0.0431
 3483SOL    HW213342   2.244   8.760   2.165 -0.4314 -1.1084  1.2870
 3484SOL     OW13343   7.576   4.181   5.676 -0.1961 -0.2308  0.2223
 3484SOL    HW113344   7.521   4.248   5.636  0.0666  0.4407  0.9727
 3484SOL    HW213345   7.515   4.114   5.706 -0.4607 -0.3273 -0.5038
 3485SOL     OW13346   5.100   7.227   5.949 -0.6139 -0.5415  0.2354
 3485SOL    HW113347   5.014   7.192   5.925  0.2135 -1.5473 -1.4310
 3485SOL    HW213348   5.130   7.273   5.871  0.3675 -0.1905  0.7989
 3486SOL     OW13349   0.210   8.318   2.490 -0.7353 -0.0285 -0.3536
 3486SOL    HW113350   0.288   8.287   2.443 -0.1704  0.8302 -0.0161
 3486SOL    HW213351   0.139   8.311   2.426 -0.5309 -1.4717 -0.4538
 3487SOL     OW13352   3.173   7.569   1.108 -0.1585  0.8382 -0.0201
 3487SOL    HW113353   3.160   7.556   1.202  1.8476 -1.7438 -0.0055
 3487SOL    HW213354   3.265   7.593   1.099 -0.4082  1.4196 -1.3235
 3488SOL     OW13355   6.741   4.184   3.378 -0.8848 -0.0310  0.1871
 3488SOL    HW113356   6.795   4.231   3.315 -0.3746  0.2069  0.7920
 3488SOL    HW213357   6.736   4.242   3.454  0.1048 -1.0979  1.1119
 3489SOL     OW13358   0.705   1.500   5.595  0.1095  0.7690  0.5406
 3489SOL    HW113359   0.651   1.530   5.522 -0.4490 -0.5736  0.3671
 3489SOL    HW213360   0.647   1.442   5.645  1.1909 -0.2417  0.6789
 3490SOL     OW13361   3.219   4.342   4.073  0.2821 -0.1359  0.0011
 3490SOL    HW113362   3.301   4.346   4.122 -0.1977 -0.8187  0.8728
 3490SOL    HW213363   3.226   4.262   4.020 -0.6586 -1.3531  1.6393
 3491SOL     OW13364   2.078   1.292   6.061  0.0615 -0.2497 -0.2303
 3491SOL    HW113365   2.140   1.344   6.111  1.0703  0.6065 -2.2307
 3491SOL    HW213366   2.059   1.217   6.117  1.1701  0.5894  1.3598
 3492SOL     OW13367   7.447   4.493   3.871  0.7122  0.0674 -0.0831
 3492SOL    HW113368   7.356   4.465   3.872  0.4345  0.9674 -0.2627
 3492SOL    HW213369   7.484   4.451   3.793 -0.0328  1.2306 -1.0899
 3493SOL     OW13370   8.120   8.837   0.383  0.2630  0.1872  0.1211
 3493SOL    HW113371   8.059   8.909   0.399  0.4548  0.4786 -0.4482
 3493SOL    HW213372   8.094   8.802   0.298  1.4352  0.8898 -0.5640
 3494SOL     OW13373   7.013   8.662   6.641 -0.1809 -0.3193  0.0793
 3494SOL    HW113374   7.104   8.685   6.662 -0.2356 -0.9939  1.1534
 3494SOL    HW213375   6.997   8.702   6.556  0.8866  0.4423  0.2133
 3495SOL     OW13376   1.617   0.398   5.056 -0.0045  0.0898  0.0988
 3495SOL    HW113377   1.656   0.453   4.987  0.9670 -1.7515 -0.9053
 3495SOL    HW213378   1.685   0.392   5.123 -0.3645  0.6311  0.5192
 3496SOL     OW13379   3.172   0.085   7.658  0.4638  0.2553 -0.5386
 3496SOL    HW113380   3.183   0.037   7.576 -1.2651  0.5584 -0.9978
 3496SOL    HW213381   3.260   0.088   7.696  1.0997 -0.9002 -1.8017
 3497SOL     OW13382   3.889   4.478   2.383  0.5153 -0.0820 -0.0177
 3497SOL    HW113383   3.921   4.421   2.313  1.5448 -0.0183  0.3859
 3497SOL    HW213384   3.878   4.563   2.342 -0.1104 -0.3413 -0.3979
 3498SOL     OW13385   5.808   7.172   7.896  0.8872 -0.3092  0.2298
 3498SOL    HW113386   5.857   7.219   7.963  1.3281 -1.2903  0.6187
 3498SOL    HW213387   5.872   7.113   7.856  0.0008 -1.8100  0.9348
 3499SOL     OW13388   0.557   5.943   0.842 -0.1991  0.4931  0.1498
 3499SOL    HW113389   0.624   5.883   0.876 -0.2802  0.2189 -0.1626
 3499SOL    HW213390   0.587   5.964   0.754  0.3186  1.6743  0.5939
 3500SOL     OW13391   1.071   4.599   7.359  0.5258  0.1910 -0.2544
 3500SOL    HW113392   1.024   4.682   7.355  1.5699  0.7726 -0.8588
 3500SOL    HW213393   1.150   4.618   7.408  0.5960 -0.5478 -0.0710
 3501SOL     OW13394   0.954   1.515   4.862  0.0051 -0.0330  0.3485
 3501SOL    HW113395   0.903   1.531   4.782 -2.2109 -2.2036  1.2030
 3501SOL    HW213396   0.939   1.593   4.915  0.6014  0.9506 -0.8844
 3502SOL     OW13397   1.084   0.172   1.267  0.0301 -0.6510  0.2757
 3502SOL    HW113398   1.074   0.178   1.362 -1.1236  0.0698  0.1147
 3502SOL    HW213399   1.054   0.083   1.246 -0.4822 -0.5334  0.4932
 3503SOL     OW13400   0.534   3.864   4.552 -0.1496 -0.1548 -0.4122
 3503SOL    HW113401   0.451   3.825   4.523  0.3813 -1.2829 -0.4720
 3503SOL    HW213402   0.575   3.895   4.472 -0.6379  0.6974 -0.3490
 3504SOL     OW13403   0.973   7.380   1.134  0.1013  0.0541 -0.0329
 3504SOL    HW113404   0.981   7.475   1.124 -0.8466  0.0863 -0.5885
 3504SOL    HW213405   1.061   7.347   1.115  0.1261  0.7167 -1.1643
 3505SOL     OW13406   9.327   5.861   3.647 -0.2348 -0.2030  0.6291
 3505SOL    HW113407   9.280   5.788   3.687 -0.5396 -0.4546 -0.1699
 3505SOL    HW213408   9.261   5.907   3.595  0.3761 -0.5546 -0.4976
 3506SOL     OW13409   2.901   3.249   6.230  0.3612 -0.0976  0.2054
 3506SOL    HW113410   2.981   3.198   6.224 -0.4314 -1.2366 -1.6352
 3506SOL    HW213411   2.921   3.331   6.185  1.3038  0.8943  2.2485
 3507SOL     OW13412   6.965   1.788   1.516  0.3252  0.1945  0.4399
 3507SOL    HW113413   6.899   1.855   1.497  1.1371  0.8025 -0.3280
 3507SOL    HW213414   6.980   1.795   1.610 -0.8264 -0.0824  0.6630
 3508SOL     OW13415   0.467   2.169   3.981 -0.0209  0.1774  0.1648
 3508SOL    HW113416   0.392   2.191   4.037  0.0734  0.4532  0.1883
 3508SOL    HW213417   0.491   2.080   4.007 -0.3815  0.0613  0.1097
 3509SOL     OW13418   2.652   5.047   0.242  0.1753 -0.3532 -0.0339
 3509SOL    HW113419   2.591   5.039   0.314 -0.0361  0.0681 -0.1650
 3509SOL    HW213420   2.603   5.092   0.173  0.3204 -0.8934 -0.5020
 3510SOL     OW13421   1.509   7.116   5.707 -0.6971  0.0811  0.3108
 3510SOL    HW113422   1.603   7.132   5.694 -0.8936  1.1585  0.1153
 3510SOL    HW213423   1.490   7.157   5.792 -1.0515  0.1043  0.2198
 3511SOL     OW13424   4.461   4.331   3.870 -0.6833 -0.5226  0.0603
 3511SOL    HW113425   4.478   4.258   3.930  1.9806  1.2242  1.6358
 3511SOL    HW213426   4.435   4.289   3.788  0.4816 -3.2322  0.9691
 3512SOL     OW13427   3.232   2.535   5.407  0.2871  0.4889  0.7752
 3512SOL    HW113428   3.203   2.462   5.353 -2.2057 -0.2467  2.8991
 3512SOL    HW213429   3.316   2.507   5.442 -0.5405 -1.3489  1.4023
 3513SOL     OW13430   3.139   7.014   8.428  0.4621 -0.2635 -0.1144
 3513SOL    HW113431   3.179   6.935   8.390 -0.0674 -0.6384  0.1013
 3513SOL    HW213432   3.205   7.046   8.490  0.5581 -0.7029  0.0134
 3514SOL     OW13433   2.514   2.186   2.455 -0.2495  0.2652 -0.3244
 3514SOL    HW113434   2.460   2.152   2.526 -1.4563  1.8372 -0.4366
 3514SOL    HW213435   2.454   2.234   2.399  0.9434  0.3629 -1.5853
 3515SOL     OW13436   5.761   7.679   3.442  0.3184 -0.0321 -0.1246
 3515SOL    HW113437   5.701   7.608   3.462  1.5369 -1.2450 -0.6050
 3515SOL    HW213438   5.798   7.703   3.528 -0.1918  0.1073  0.0563
 3516SOL     OW13439   5.480   4.345   1.383  0.1716 -0.1928  0.6180
 3516SOL    HW113440   5.431   4.421   1.414 -0.3835 -0.2162 -0.1776
 3516SOL    HW213441   5.419   4.300   1.324  0.9907 -0.4775 -0.0191
 3517SOL     OW13442   6.600   0.950   1.624  0.4671  0.5227  0.2231
 3517SOL    HW113443   6.563   0.901   1.551 -0.8843 -1.0618  1.8888
 3517SOL    HW213444   6.613   0.885   1.692  1.6341  1.9637  1.4449
 3518SOL     OW13445   6.208   6.136   7.981 -1.4667 -0.0788  0.2820
 3518SOL    HW113446   6.190   6.084   7.903  0.1151  1.4895 -1.2271
 3518SOL    HW213447   6.131   6.192   7.991 -1.5991 -0.1513 -0.2967
 3519SOL     OW13448   9.549   6.468   9.454  0.2011 -0.4203 -0.4911
 3519SOL    HW113449   9.591   6.507   9.377  0.8005 -0.7354 -0.3297
 3519SOL    HW213450   9.537   6.376   9.430  1.0591 -0.6880  0.0582
 3520SOL     OW13451   3.928   3.458   3.124  0.1893  0.1049  0.1164
 3520SOL    HW113452   3.925   3.386   3.187 -2.5192  1.2936  1.5561
 3520SOL    HW213453   3.854   3.441   3.065 -0.1404  1.3522  0.1312
 3521SOL     OW13454   0.741   2.520   3.363 -0.0375 -0.0210 -0.2909
 3521SOL    HW113455   0.664   2.463   3.355 -1.4471  1.8985 -1.3660
 3521SOL    HW213456   0.729   2.564   3.447 -1.4363  1.9774 -1.4600
 3522SOL     OW13457   2.299   0.473   5.294  0.4036  0.9970  0.1211
 3522SOL    HW113458   2.274   0.527   5.370 -1.7966  1.5816 -0.9372
 3522SOL    HW213459   2.279   0.383   5.321  0.3009  1.1274  0.4869
 3523SOL     OW13460   8.994   9.642   3.277  0.3439 -0.4495  0.4797
 3523SOL    HW113461   9.067   9.654   3.338 -0.3040  0.5037  1.0783
 3523SOL    HW213462   8.972   9.730   3.248 -0.3760 -0.7638  0.0570
 3524SOL     OW13463   8.034   1.561   4.017  0.3144 -0.0468 -0.1100
 3524SOL    HW113464   8.041   1.465   4.014 -0.1131 -0.0982  0.4483
 3524SOL    HW213465   7.971   1.578   4.086  0.8219  0.6678  0.1811
 3525SOL     OW13466   4.677   1.757   4.705 -0.3853  0.0978 -0.3816
 3525SOL    HW113467   4.683   1.737   4.799 -1.4768  1.2208 -0.0406
 3525SOL    HW213468   4.768   1.771   4.678  0.2411 -2.8454 -0.1444
 3526SOL     OW13469   2.480   6.178   0.677  0.0994 -0.1337 -0.2115
 3526SOL    HW113470   2.530   6.205   0.600 -0.3397  3.0649  0.4758
 3526SOL    HW213471   2.409   6.242   0.683 -1.4330 -1.8633  1.3957
 3527SOL     OW13472   5.375   1.600   4.232  0.3255  0.5865  0.0682
 3527SOL    HW113473   5.333   1.662   4.292 -0.7759 -0.6047  0.5982
 3527SOL    HW213474   5.384   1.648   4.150  1.1052  1.9863  0.9496
 3528SOL     OW13475   1.870   2.090   2.521 -0.4686  0.1912 -0.0906
 3528SOL    HW113476   1.879   2.186   2.526  0.1001  0.1251  0.2192
 3528SOL    HW213477   1.791   2.072   2.572 -0.3015  0.4542  0.2703
 3529SOL     OW13478   8.663   9.445   2.611  0.2817 -0.6923 -0.3401
 3529SOL    HW113479   8.648   9.393   2.532 -0.2224 -0.9773 -0.0602
 3529SOL    HW213480   8.735   9.503   2.588 -0.9079  0.3514 -1.5496
 3530SOL     OW13481   5.418   5.629   7.694 -0.4856  0.1032 -0.6311
 3530SOL    HW113482   5.343   5.682   7.723  0.2027 -0.3392  2.3517
 3530SOL    HW213483   5.481   5.692   7.660 -0.7897  0.9240  0.2782
 3531SOL     OW13484   4.068   9.617   8.646 -0.1261 -0.7238  0.2587
 3531SOL    HW113485   4.138   9.554   8.665  0.7095  0.1090 -0.0036
 3531SOL    HW213486   4.087   9.648   8.558  0.2532  0.8824  0.8738
 3532SOL     OW13487   7.832   2.580   6.628 -0.3072  0.3372 -0.3206
 3532SOL    HW113488   7.927   2.577   6.640 -0.2167  1.7880 -0.4063
 3532SOL    HW213489   7.814   2.512   6.563  0.8628  0.9265 -1.3137
 3533SOL     OW13490   1.004   3.068   3.789 -0.5650 -0.1055  0.5047
 3533SOL    HW113491   0.997   3.127   3.715  0.6639 -1.9581 -1.2085
 3533SOL    HW213492   1.071   3.108   3.845  0.9369 -0.2334 -1.0792
 3534SOL     OW13493   1.940   7.677   1.939 -0.0820 -0.3893  0.4023
 3534SOL    HW113494   1.883   7.608   1.972 -0.8462  0.1032  0.1290
 3534SOL    HW213495   1.982   7.714   2.017  0.9716 -1.7021  0.4849
 3535SOL     OW13496   5.528   2.396   5.164  0.8339  0.5370 -0.0721
 3535SOL    HW113497   5.527   2.351   5.079  2.0661 -2.9620  1.5987
 3535SOL    HW213498   5.458   2.355   5.214  0.9919  1.6178  1.0964
 3536SOL     OW13499   9.301   9.315   4.995  0.7357  0.3159 -0.1789
 3536SOL    HW113500   9.341   9.307   4.909  2.4501  1.2152  0.4914
 3536SOL    HW213501   9.357   9.377   5.042  0.0421 -0.4065  1.6867
 3537SOL     OW13502   8.241   6.510   6.890 -0.5053 -0.0855  0.2429
 3537SOL    HW113503   8.305   6.508   6.820  0.2101  3.3635  0.6140
 3537SOL    HW213504   8.290   6.490   6.970 -0.5571 -0.4295  0.1903
 3538SOL     OW13505   2.469   6.216   4.624  0.2818 -0.0990 -0.4343
 3538SOL    HW113506   2.454   6.135   4.674 -0.1564 -1.6546 -2.9258
 3538SOL    HW213507   2.381   6.246   4.601  0.4956  0.3130 -0.7158
 3539SOL     OW13508   2.570   3.443   8.209  0.5494 -0.0394  0.1885
 3539SOL    HW113509   2.588   3.368   8.265 -0.9615 -0.1435  0.5523
 3539SOL    HW213510   2.643   3.443   8.146  1.2185 -1.0675  0.9283
 3540SOL     OW13511   4.151   0.572   6.092  0.8138  0.3171 -0.2363
 3540SOL    HW113512   4.201   0.504   6.046  1.2277  1.0666 -0.9219
 3540SOL    HW213513   4.118   0.528   6.170 -0.3446 -1.1621 -1.4790
 3541SOL     OW13514   5.960   3.164   4.863  0.5011  0.4467 -0.1373
 3541SOL    HW113515   6.024   3.165   4.935 -0.8054 -0.2339  1.0702
 3541SOL    HW213516   5.963   3.075   4.829 -0.5047  0.0999  0.6149
 3542SOL     OW13517   3.052   1.930   2.194  0.0361 -0.0246  0.4514
 3542SOL    HW113518   3.127   1.889   2.150 -1.4161  0.2367 -2.4863
 3542SOL    HW213519   3.009   1.857   2.240  0.6802 -0.6835  0.0295
 3543SOL     OW13520   7.526   3.305   1.088  0.1872 -0.2483 -0.0455
 3543SOL    HW113521   7.456   3.284   1.027 -0.4365  1.3209  0.0883
 3543SOL    HW213522   7.482   3.349   1.161  1.4444  2.5155 -0.8121
 3544SOL     OW13523   0.037   0.757   8.320  0.3203  0.2469 -0.1236
 3544SOL    HW113524  -0.039   0.815   8.313  0.7724  1.0259  1.1011
 3544SOL    HW213525   0.106   0.801   8.270  0.0806 -0.3034 -0.9668
 3545SOL     OW13526   5.593   0.473   8.191  0.4706 -0.3965 -0.3678
 3545SOL    HW113527   5.523   0.460   8.255  1.3028  0.5856  0.7923
 3545SOL    HW213528   5.672   0.440   8.235  0.7417 -1.6927 -1.7338
 3546SOL     OW13529   6.803   2.172   9.544 -0.8348 -0.5431 -0.2672
 3546SOL    HW113530   6.744   2.246   9.554  0.3790  0.4340 -0.0895
 3546SOL    HW213531   6.752   2.106   9.497 -1.5574  0.8912 -1.5674
 3547SOL     OW13532   2.428   8.365   8.520  0.3432 -0.1876  0.0530
 3547SOL    HW113533   2.336   8.389   8.527  0.7539  1.5688  0.0499
 3547SOL    HW213534   2.445   8.309   8.596 -0.5298  0.1522  0.5081
 3548SOL     OW13535   6.648   4.524   0.187  0.6358 -0.2440  0.3746
 3548SOL    HW113536   6.730   4.527   0.137  0.4448 -1.1132 -0.0131
 3548SOL    HW213537   6.607   4.608   0.169 -0.0005 -0.9668 -1.9587
 3549SOL     OW13538   7.212   6.930   8.408  0.2828  0.0305  0.3122
 3549SOL    HW113539   7.144   6.965   8.351  1.9373  1.0893 -1.1399
 3549SOL    HW213540   7.241   6.850   8.365  0.3349 -0.1026  0.5980
 3550SOL     OW13541   8.273   7.471   0.517  0.2893 -0.5056 -0.0077
 3550SOL    HW113542   8.330   7.404   0.555 -2.7690 -2.4254  1.6573
 3550SOL    HW213543   8.251   7.528   0.591 -1.8412 -1.3379  0.0842
 3551SOL     OW13544   2.206   0.203   9.251  0.2066 -0.3088 -0.1782
 3551SOL    HW113545   2.222   0.110   9.265  0.9631 -0.0351  0.9452
 3551SOL    HW213546   2.267   0.247   9.311  0.3073  0.9195 -1.1384
 3552SOL     OW13547   7.460   5.256   0.358 -0.6829 -0.8570  0.0134
 3552SOL    HW113548   7.522   5.279   0.427 -1.1866 -2.1254  0.9280
 3552SOL    HW213549   7.383   5.223   0.404 -1.5677 -0.4575 -1.1335
 3553SOL     OW13550   0.854   0.051   9.119 -0.0274  0.1331 -0.0903
 3553SOL    HW113551   0.839  -0.043   9.123 -0.9441  0.2214 -1.2345
 3553SOL    HW213552   0.941   0.060   9.080 -0.0242 -0.2387 -0.1665
 3554SOL     OW13553   0.490   9.309   5.185 -0.2987  0.1552  0.3240
 3554SOL    HW113554   0.469   9.283   5.274 -1.0889 -1.7507 -0.3649
 3554SOL    HW213555   0.570   9.259   5.164  0.6035  1.5315  0.3487
 3555SOL     OW13556   1.578   0.301   3.952  0.3378  0.4494  0.3634
 3555SOL    HW113557   1.595   0.387   3.914  0.2094  0.3946  0.1806
 3555SOL    HW213558   1.514   0.318   4.021  0.5206  0.5397  0.5107
 3556SOL     OW13559   6.613   0.497   6.132  0.4433  0.4938 -0.4397
 3556SOL    HW113560   6.584   0.543   6.211  0.4897 -0.2302  0.0131
 3556SOL    HW213561   6.670   0.427   6.165 -0.4523 -0.5397 -1.0158
 3557SOL     OW13562   6.068   1.319   5.214 -0.7593  0.2202  0.4409
 3557SOL    HW113563   6.124   1.388   5.180  0.8413 -1.2951 -0.1529
 3557SOL    HW213564   6.043   1.268   5.137 -2.0097  0.1715  0.8535
 3558SOL     OW13565   7.888   6.435   8.114 -0.0461  0.4513  0.2441
 3558SOL    HW113566   7.818   6.470   8.059 -0.6974  0.9318  1.3339
 3558SOL    HW213567   7.873   6.475   8.200  0.6759 -0.5932  0.8835
 3559SOL     OW13568   8.272   5.366   2.238 -0.6096 -0.4112  0.0861
 3559SOL    HW113569   8.178   5.383   2.249 -0.3246  0.5998  1.1705
 3559SOL    HW213570   8.287   5.282   2.281 -0.6223  0.5633  2.1014
 3560SOL     OW13571   4.295   2.066   7.503 -0.8103  0.4611  0.1325
 3560SOL    HW113572   4.343   2.101   7.579  0.4779  1.1420 -0.9622
 3560SOL    HW213573   4.284   1.973   7.524 -0.8357  0.7114  1.3342
 3561SOL     OW13574   5.552   0.279   4.310 -0.2003  0.0225 -0.1161
 3561SOL    HW113575   5.553   0.297   4.216  0.5756  1.1946  0.0901
 3561SOL    HW213576   5.581   0.188   4.318  0.2513  0.0857 -0.9806
 3562SOL     OW13577   0.690   5.534   3.240 -0.0352 -0.0645  0.1461
 3562SOL    HW113578   0.664   5.624   3.260 -0.3613 -0.2733  0.6702
 3562SOL    HW213579   0.757   5.544   3.172 -0.8457  0.5281 -0.6002
 3563SOL     OW13580   2.033   4.763   5.552  0.4522  0.6477 -0.5532
 3563SOL    HW113581   2.122   4.732   5.535 -0.1144 -0.5556 -1.5117
 3563SOL    HW213582   2.035   4.793   5.643  1.4226 -0.9679  0.0110
 3564SOL     OW13583   0.325   0.489   2.596 -0.0930 -0.1938  0.0124
 3564SOL    HW113584   0.415   0.507   2.567 -0.2750  2.1542  0.6735
 3564SOL    HW213585   0.274   0.487   2.515  0.3049  0.2001 -0.2539
 3565SOL     OW13586   0.333   9.619   1.314  0.1969 -0.2897 -0.1307
 3565SOL    HW113587   0.412   9.580   1.276 -0.8963 -1.7257 -1.0221
 3565SOL    HW213588   0.261   9.570   1.275 -1.1411  0.7914  0.8907
 3566SOL     OW13589   0.054   3.445   2.807 -0.2400 -0.5016  0.1203
 3566SOL    HW113590   0.045   3.491   2.723 -1.3080  0.1088  0.5494
 3566SOL    HW213591  -0.031   3.455   2.849  0.7152  0.5070  1.9510
 3567SOL     OW13592   7.735   7.951   2.930  0.5594 -0.5791 -0.0493
 3567SOL    HW113593   7.681   7.912   2.999 -1.4822  0.9312 -0.7087
 3567SOL    HW213594   7.825   7.934   2.958 -0.1977 -2.6820  1.3996
 3568SOL     OW13595   0.832   0.436   9.510 -0.3215 -0.2038  0.5003
 3568SOL    HW113596   0.858   0.416   9.419 -0.7836  2.3816 -0.2678
 3568SOL    HW213597   0.878   0.517   9.531  0.8140 -1.3952  3.1254
 3569SOL     OW13598   5.177   6.916   8.617  0.5098  0.2958  0.1889
 3569SOL    HW113599   5.171   6.889   8.709  1.3623  0.2414  0.2347
 3569SOL    HW213600   5.119   6.855   8.571  0.0246  0.3652  0.6966
 3570SOL     OW13601   5.018   6.554   1.941 -0.4919 -0.0615  0.6872
 3570SOL    HW113602   4.971   6.559   1.857  0.3946 -0.2195  0.1639
 3570SOL    HW213603   5.084   6.487   1.927  2.9330  3.1734 -0.2292
 3571SOL     OW13604   8.855   2.450   7.430 -0.2288  0.4998  0.5373
 3571SOL    HW113605   8.835   2.363   7.395 -1.1796  1.6292 -1.9945
 3571SOL    HW213606   8.949   2.460   7.415 -0.5420  0.7932 -1.4693
 3572SOL     OW13607   3.195   6.909   1.777  0.3697 -0.1777  0.4908
 3572SOL    HW113608   3.256   6.921   1.705 -0.2177  0.0776  0.0297
 3572SOL    HW213609   3.112   6.944   1.745 -0.1533 -0.9848  0.9146
 3573SOL     OW13610   7.032   1.491   5.570  0.3931  0.1350  0.3319
 3573SOL    HW113611   7.109   1.505   5.625 -0.0247  0.0842  0.9371
 3573SOL    HW213612   7.013   1.397   5.580  0.0467  0.2182  0.4666
 3574SOL     OW13613   1.464   1.241   1.131  0.1405  0.3873  0.2308
 3574SOL    HW113614   1.419   1.291   1.199 -2.8687 -1.2407 -0.3675
 3574SOL    HW213615   1.485   1.305   1.064 -0.9923  1.3146  0.7184
 3575SOL     OW13616   4.486   2.338   4.616 -0.2716 -0.0545 -0.1518
 3575SOL    HW113617   4.471   2.270   4.551 -0.0578 -0.2473  0.0026
 3575SOL    HW213618   4.409   2.395   4.608 -1.3516 -1.2965  0.9582
 3576SOL     OW13619   6.045   7.016   2.701  0.0116 -0.0555  0.6147
 3576SOL    HW113620   6.051   6.950   2.633  0.3950  0.2195  0.3755
 3576SOL    HW213621   5.989   6.977   2.768 -0.0164 -0.4964  0.3374
 3577SOL     OW13622   7.722   7.829   5.220 -0.3145 -0.7607  0.3920
 3577SOL    HW113623   7.725   7.904   5.161  0.1885 -1.2290 -0.1962
 3577SOL    HW213624   7.676   7.761   5.170  1.2399 -1.5838  0.0130
 3578SOL     OW13625   3.852   4.693   4.830  0.3419 -0.3306 -0.3439
 3578SOL    HW113626   3.783   4.653   4.778 -1.3602 -0.1468  1.6449
 3578SOL    HW213627   3.846   4.649   4.915  2.7659 -0.3638 -0.1264
 3579SOL     OW13628   1.525   0.963   4.518 -0.1421 -0.5968 -0.5460
 3579SOL    HW113629   1.555   0.963   4.609  0.0387 -0.9234 -0.6049
 3579SOL    HW213630   1.583   1.025   4.474 -1.0697  0.5816 -0.1718
 3580SOL     OW13631   7.312   1.910   1.150 -0.2882  0.7674  0.3094
 3580SOL    HW113632   7.300   1.837   1.089  0.3649  0.6483  0.3113
 3580SOL    HW213633   7.264   1.884   1.229 -0.5782  0.6213  0.0874
 3581SOL     OW13634   4.154   6.917   8.337 -0.4302 -0.5100  0.0074
 3581SOL    HW113635   4.133   6.824   8.343 -0.1166 -0.5900 -0.0801
 3581SOL    HW213636   4.240   6.924   8.379  0.0369 -0.4395 -0.9342
 3582SOL     OW13637   2.943   5.352   4.503 -0.1383 -0.6324 -0.6055
 3582SOL    HW113638   2.964   5.424   4.444 -1.7365  1.2417  0.9793
 3582SOL    HW213639   3.002   5.364   4.577  0.1479 -1.4922 -0.6751
 3583SOL     OW13640   0.139   6.014   6.379  0.1993 -0.0501  0.4644
 3583SOL    HW113641   0.227   5.984   6.355  1.0117  2.5319 -0.1979
 3583SOL    HW213642   0.123   6.088   6.319 -2.0356  0.1318  1.2198
 3584SOL     OW13643   9.374   6.622   8.680 -0.2119 -0.3913 -0.1969
 3584SOL    HW113644   9.280   6.626   8.660 -0.0827  0.9477 -0.6160
 3584SOL    HW213645   9.384   6.678   8.757  0.4848  0.8808 -1.1759
 3585SOL     OW13646   2.691   8.618   4.933 -0.0941 -0.2973 -0.3939
 3585SOL    HW113647   2.675   8.704   4.971 -0.3189 -0.6725  0.3662
 3585SOL    HW213648   2.774   8.628   4.886  0.3570  0.0970  0.4563
 3586SOL     OW13649   3.163   0.548   3.104  0.2614  0.7845 -0.4654
 3586SOL    HW113650   3.108   0.479   3.142  1.0187  1.6663  2.4669
 3586SOL    HW213651   3.224   0.501   3.047 -0.6160 -0.7093 -0.2295
 3587SOL     OW13652   1.566   6.744   6.469 -0.2128 -0.0043  0.1664
 3587SOL    HW113653   1.654   6.740   6.507 -1.2792 -3.1544  2.7752
 3587SOL    HW213654   1.569   6.685   6.394 -0.1815 -0.4127  0.4863
 3588SOL     OW13655   4.646   7.292   0.613 -0.0267 -0.4012 -0.1745
 3588SOL    HW113656   4.723   7.239   0.635 -0.9770 -1.3687  0.9084
 3588SOL    HW213657   4.679   7.355   0.549  1.3134 -1.8380 -0.9774
 3589SOL     OW13658   5.793   9.572   8.382  0.7210  0.2574  0.3574
 3589SOL    HW113659   5.701   9.552   8.398  0.9797 -1.5392 -0.0774
 3589SOL    HW213660   5.792   9.632   8.308 -0.1026 -2.4510 -2.0363
 3590SOL     OW13661   2.815   0.808   5.493  0.1620  0.0619  0.4145
 3590SOL    HW113662   2.907   0.782   5.493  0.3356  0.3539  3.2324
 3590SOL    HW213663   2.816   0.902   5.514 -0.7788  0.1147  0.2808
 3591SOL     OW13664   7.245   1.170   7.958  0.0107  0.5750  0.3130
 3591SOL    HW113665   7.205   1.151   7.873  0.6567  3.2212 -0.6897
 3591SOL    HW213666   7.215   1.259   7.979  0.6763  0.3648  2.3824
 3592SOL     OW13667   8.617   4.914   3.756  0.0746 -0.0594 -0.3897
 3592SOL    HW113668   8.545   4.939   3.814 -0.5707 -1.0062 -0.7609
 3592SOL    HW213669   8.692   4.905   3.814 -0.1993  0.5045  0.0690
 3593SOL     OW13670   5.618   7.987   2.981 -0.8642  0.1440 -0.1366
 3593SOL    HW113671   5.545   8.008   2.923  0.7717  0.7664 -2.0758
 3593SOL    HW213672   5.695   8.022   2.937  0.6521 -0.5475  1.7990
 3594SOL     OW13673   5.038   4.761   9.380  0.2308  0.0871 -0.4578
 3594SOL    HW113674   5.126   4.771   9.416  0.5018  2.4061 -1.5645
 3594SOL    HW213675   5.048   4.694   9.312  0.6594 -1.1268  0.7642
 3595SOL     OW13676   2.094   8.261   7.922 -0.2854  0.6156  0.4213
 3595SOL    HW113677   2.146   8.270   8.002 -1.8443  0.4337  1.4848
 3595SOL    HW213678   2.095   8.168   7.903 -0.8554  0.5098  0.8884
 3596SOL     OW13679   6.898   4.559   9.210  0.4326  0.1578  0.2119
 3596SOL    HW113680   6.912   4.481   9.264  0.4466 -0.3016 -0.4420
 3596SOL    HW213681   6.953   4.545   9.133 -0.4740  0.2524 -0.4668
 3597SOL     OW13682   4.706   2.247   5.711 -0.1650 -0.3590  0.2411
 3597SOL    HW113683   4.623   2.200   5.705 -0.4742  0.2726 -0.4605
 3597SOL    HW213684   4.693   2.327   5.662  0.7131 -0.0250  0.5227
 3598SOL     OW13685   7.431   5.125   7.593 -0.3555 -0.5548  0.1970
 3598SOL    HW113686   7.375   5.055   7.560 -1.4333 -1.0443  2.7714
 3598SOL    HW213687   7.373   5.200   7.603  0.6537  0.6003 -1.9361
 3599SOL     OW13688   4.538   4.661   2.205  0.1145  0.2001 -0.3247
 3599SOL    HW113689   4.620   4.618   2.230  1.4409  2.5308 -0.3930
 3599SOL    HW213690   4.537   4.742   2.256 -2.1002  0.3097 -0.4472
 3600SOL     OW13691   7.950   4.134   4.109  0.0776 -0.3957  0.3924
 3600SOL    HW113692   7.920   4.124   4.200  0.1339 -0.3576  0.4152
 3600SOL    HW213693   7.974   4.046   4.082 -1.7802 -0.7458 -0.2267
 3601SOL     OW13694   9.583   1.369   9.531  0.0580  0.2478  0.4499
 3601SOL    HW113695   9.603   1.400   9.442 -1.8218 -0.9763 -0.4697
 3601SOL    HW213696   9.649   1.302   9.548 -0.3937 -0.4839 -0.6077
 3602SOL     OW13697   7.837   2.966   1.719 -0.2351  0.0657 -0.7754
 3602SOL    HW113698   7.886   2.978   1.801 -0.3670  0.4464 -0.7520
 3602SOL    HW213699   7.905   2.969   1.651 -0.2524  0.8902 -0.7658
 3603SOL     OW13700   2.829   0.165   1.857  0.5403 -0.1385  0.1787
 3603SOL    HW113701   2.839   0.207   1.771  1.4253  2.0690  1.2860
 3603SOL    HW213702   2.748   0.115   1.849  1.8770 -2.1484 -2.7285
 3604SOL     OW13703   7.889   6.242   7.155 -0.8209  0.0556 -0.4192
 3604SOL    HW113704   7.872   6.154   7.123 -3.0168  0.7526 -1.3730
 3604SOL    HW213705   7.984   6.245   7.170 -0.5082 -2.0047 -1.7008
 3605SOL     OW13706   3.978   3.191   3.221 -0.0306 -0.6928 -0.4453
 3605SOL    HW113707   3.998   3.165   3.131  1.2122 -1.8099  0.1335
 3605SOL    HW213708   4.063   3.211   3.260 -0.6028  0.3037  0.3535
 3606SOL     OW13709   8.467   3.034   7.021 -0.3224 -0.1006  0.1472
 3606SOL    HW113710   8.530   2.966   7.001 -0.5665 -0.5970  1.0359
 3606SOL    HW213711   8.507   3.115   6.988 -0.3718 -0.7525 -1.6085
 3607SOL     OW13712   4.378   0.609   9.300  0.1909  0.3494  0.4587
 3607SOL    HW113713   4.364   0.588   9.208  1.5811 -0.7348  0.4478
 3607SOL    HW213714   4.291   0.630   9.334 -0.8999 -2.3903 -0.3477
 3608SOL     OW13715   0.550   9.134   8.840 -0.9031 -0.5522 -0.0520
 3608SOL    HW113716   0.606   9.057   8.838 -1.0208 -0.6216 -1.2783
 3608SOL    HW213717   0.476   9.108   8.896 -0.3229 -0.8741  0.5774
 3609SOL     OW13718   8.213   1.626   6.272 -0.4735 -0.7192  0.5517
 3609SOL    HW113719   8.262   1.698   6.233  0.1481 -0.9156  0.9526
 3609SOL    HW213720   8.144   1.606   6.209 -0.3429 -0.1060  0.2114
 3610SOL     OW13721   2.517   0.906   6.382  0.0038 -0.1988 -0.7811
 3610SOL    HW113722   2.504   0.995   6.415 -2.1488 -1.5937  2.5346
 3610SOL    HW213723   2.437   0.887   6.333 -0.7131 -1.1265  0.6954
 3611SOL     OW13724   4.015   9.020   2.124 -0.0941 -0.2066 -0.0455
 3611SOL    HW113725   4.069   8.999   2.200  1.3187  0.8768 -0.7044
 3611SOL    HW213726   3.953   9.085   2.155 -0.3155 -0.6509  0.4571
 3612SOL     OW13727   7.178   7.732   4.374 -0.0868  0.7511 -0.0677
 3612SOL    HW113728   7.202   7.651   4.328 -0.9771  0.8396 -0.7192
 3612SOL    HW213729   7.141   7.702   4.457 -0.1412  0.4971 -0.1817
 3613SOL     OW13730   4.545   5.337   8.882 -0.8501 -0.0859 -0.2771
 3613SOL    HW113731   4.544   5.243   8.897 -0.6662  0.2136  1.9290
 3613SOL    HW213732   4.472   5.352   8.821 -0.8174 -1.6500 -0.7358
 3614SOL     OW13733   2.305   5.812   3.833 -1.1116 -0.1727 -0.3868
 3614SOL    HW113734   2.268   5.810   3.922 -0.4905  0.4102 -0.1104
 3614SOL    HW213735   2.349   5.728   3.824 -3.4995 -1.4439 -1.1756
 3615SOL     OW13736   3.153   5.892   4.050 -0.2583 -0.1645  0.0319
 3615SOL    HW113737   3.234   5.943   4.054  0.4807 -1.3055  0.1355
 3615SOL    HW213738   3.160   5.844   3.967 -1.5218  0.8039 -0.6794
 3616SOL     OW13739   6.717   6.473   3.245  0.4369  0.6169  0.6066
 3616SOL    HW113740   6.768   6.472   3.326  0.2300  0.5232  0.7342
 3616SOL    HW213741   6.775   6.516   3.182  1.1462 -0.5468  0.4371
 3617SOL     OW13742   7.608   5.724   7.123  0.5737 -0.0948  0.6424
 3617SOL    HW113743   7.516   5.747   7.120  0.9487  1.5556  0.7960
 3617SOL    HW213744   7.640   5.739   7.034  0.9953  0.7885  0.9281
 3618SOL     OW13745   6.410   1.311   7.398  0.2273  0.5477  0.0875
 3618SOL    HW113746   6.473   1.328   7.469 -0.4344 -0.1394  0.8584
 3618SOL    HW213747   6.367   1.230   7.424  0.2031  0.0991 -1.2850
 3619SOL     OW13748   3.125   6.438   5.537 -0.1803 -0.2627 -0.4801
 3619SOL    HW113749   3.119   6.469   5.447 -1.6751  1.4423  0.1605
 3619SOL    HW213750   3.058   6.370   5.544 -0.6906  0.2361 -0.4356
 3620SOL     OW13751   3.384   8.542   8.962 -0.7793  0.6315  0.3381
 3620SOL    HW113752   3.289   8.538   8.973 -0.7424 -0.8397  0.3554
 3620SOL    HW213753   3.405   8.466   8.907  0.3783  0.9920  0.2488
 3621SOL     OW13754   1.150   4.773   7.565  0.0548 -0.0615 -0.2236
 3621SOL    HW113755   1.229   4.720   7.566  0.7652  0.9888  0.5756
 3621SOL    HW213756   1.165   4.838   7.496 -0.1747  0.0371 -0.1823
 3622SOL     OW13757   9.023   0.321   0.755  0.6760  0.4435  0.1780
 3622SOL    HW113758   9.044   0.228   0.759 -1.2854 -0.1222 -1.2841
 3622SOL    HW213759   9.073   0.360   0.827  0.8510 -1.8509  1.3875
 3623SOL     OW13760   9.408   5.399   2.190 -0.6072 -0.0697  0.2675
 3623SOL    HW113761   9.381   5.431   2.275  0.2674  1.9885 -0.1637
 3623SOL    HW213762   9.493   5.357   2.206 -0.7955 -0.3564  0.5193
 3624SOL     OW13763   2.927   4.435   6.325 -0.0652  0.0185 -0.7360
 3624SOL    HW113764   2.937   4.340   6.329  0.7273  0.0651 -1.4227
 3624SOL    HW213765   2.976   4.468   6.401 -1.1069 -0.1560  0.0361
 3625SOL     OW13766   4.725   0.966   0.368 -0.4884  0.3122 -0.1615
 3625SOL    HW113767   4.723   1.051   0.412 -1.0887  0.9992 -1.4623
 3625SOL    HW213768   4.665   0.912   0.419 -1.9897  1.3974 -0.6781
 3626SOL     OW13769   6.940   9.464   6.705  0.4449 -0.8467  0.1279
 3626SOL    HW113770   6.969   9.509   6.626 -0.9802  0.0131  0.0648
 3626SOL    HW213771   6.846   9.481   6.710  0.7336  0.5057  2.8749
 3627SOL     OW13772   7.324   7.385   3.410  0.7415 -0.7185 -0.0754
 3627SOL    HW113773   7.366   7.425   3.486  0.9706 -0.1248 -0.5097
 3627SOL    HW213774   7.239   7.355   3.443  0.0873  1.1159  0.0089
 3628SOL     OW13775   0.777   8.697   3.155  0.2874 -0.3029  0.2777
 3628SOL    HW113776   0.771   8.653   3.070 -0.8738 -0.8325  0.6119
 3628SOL    HW213777   0.692   8.681   3.196  0.8261 -0.0389  1.5414
 3629SOL     OW13778   1.099   8.973   5.545 -0.0588 -0.2609 -0.3236
 3629SOL    HW113779   1.189   8.996   5.569  0.0105 -0.3954 -0.4494
 3629SOL    HW213780   1.057   8.952   5.628  0.4738 -1.7526 -0.3907
 3630SOL     OW13781   9.079   5.575   6.228 -0.5466  0.0851  0.3061
 3630SOL    HW113782   9.067   5.533   6.313 -0.5496 -2.7913 -0.9896
 3630SOL    HW213783   8.996   5.620   6.211 -1.1735 -0.7294  1.1142
 3631SOL     OW13784   8.138   0.930   5.726 -0.6737  0.3086 -0.2586
 3631SOL    HW113785   8.110   0.998   5.665  0.7601  0.7691 -0.4617
 3631SOL    HW213786   8.234   0.928   5.716 -0.5891 -0.9160  0.6096
 3632SOL     OW13787   5.543   3.398   5.416  0.2088 -0.4385  0.2783
 3632SOL    HW113788   5.563   3.395   5.509  1.1524  0.1744  0.1071
 3632SOL    HW213789   5.606   3.338   5.376  1.4820  1.1585 -0.2166
 3633SOL     OW13790   5.443   8.077   6.077 -0.2795 -0.0096  0.2794
 3633SOL    HW113791   5.453   8.141   6.148 -1.1160  1.4951 -0.9012
 3633SOL    HW213792   5.532   8.065   6.043 -0.1439  0.7128  0.3614
 3634SOL     OW13793   8.001   8.438   0.855  0.1796  0.0468  0.0516
 3634SOL    HW113794   7.968   8.518   0.815  1.6224  0.3374 -0.6415
 3634SOL    HW213795   8.017   8.378   0.782  0.0258 -0.5246  0.4737
 3635SOL     OW13796   8.666   1.592   8.524  0.0745  0.4879  0.3492
 3635SOL    HW113797   8.617   1.556   8.450  1.8978  0.0815 -0.7364
 3635SOL    HW213798   8.715   1.517   8.559  2.4145  1.3934 -0.7145
 3636SOL     OW13799   6.329   3.328   1.887  0.5882  0.6139  0.5138
 3636SOL    HW113800   6.391   3.283   1.945 -2.5963 -1.4677  2.6167
 3636SOL    HW213801   6.276   3.258   1.850 -2.4596  2.3457  1.2916
 3637SOL     OW13802   7.056   2.013   7.987 -0.0711 -0.0441 -0.3372
 3637SOL    HW113803   7.016   1.929   7.965  0.3576 -0.3397 -0.0081
 3637SOL    HW213804   7.062   2.059   7.903 -0.7217 -0.1530 -0.4503
 3638SOL     OW13805   1.156   5.595   5.318  0.6095 -0.1530 -0.0049
 3638SOL    HW113806   1.153   5.645   5.236  0.0016  1.8346  1.1619
 3638SOL    HW213807   1.079   5.539   5.315  0.7850 -0.3642 -0.9294
 3639SOL     OW13808   7.122   7.508   4.957 -0.1108 -0.3095  0.0174
 3639SOL    HW113809   7.171   7.499   4.875  1.0456 -0.9548  0.7565
 3639SOL    HW213810   7.121   7.419   4.993 -0.2059  0.0605  0.9246
 3640SOL     OW13811   4.240   8.589   0.161  0.1374 -0.3401 -0.1878
 3640SOL    HW113812   4.267   8.681   0.163 -0.8721 -0.0367  0.0020
 3640SOL    HW213813   4.251   8.563   0.070  0.2118  0.0403 -0.2905
 3641SOL     OW13814   7.230   1.157   8.919  0.6507 -0.2879 -0.0142
 3641SOL    HW113815   7.231   1.119   8.831 -1.5854  1.8094 -1.0691
 3641SOL    HW213816   7.271   1.243   8.908  1.4692 -0.4851  1.2946
 3642SOL     OW13817   7.398   1.357   8.176  0.3554 -0.4360  0.2281
 3642SOL    HW113818   7.480   1.327   8.215  0.5872 -2.6867 -1.7563
 3642SOL    HW213819   7.332   1.338   8.242  1.1594 -0.5934  1.0172
 3643SOL     OW13820   7.373   3.216   4.301 -0.0657  0.1814  0.2770
 3643SOL    HW113821   7.302   3.214   4.366 -1.5130 -0.8642 -1.2684
 3643SOL    HW213822   7.429   3.143   4.325 -0.6890 -0.3094  0.2828
 3644SOL     OW13823   5.204   8.014   5.305  0.0391 -0.0420 -0.3162
 3644SOL    HW113824   5.227   7.974   5.222 -1.2006 -0.4462 -0.4884
 3644SOL    HW213825   5.247   8.099   5.304  0.0105 -0.0296 -1.3887
 3645SOL     OW13826   9.425   1.206   2.376 -0.2198  0.0589 -0.0596
 3645SOL    HW113827   9.395   1.115   2.373  1.0758 -0.3907 -0.0995
 3645SOL    HW213828   9.379   1.248   2.303 -0.9631 -0.5089  0.0603
 3646SOL     OW13829   9.282   3.043   8.180  0.8035 -0.5974 -0.7351
 3646SOL    HW113830   9.293   3.135   8.204  3.4365 -1.3897  1.5982
 3646SOL    HW213831   9.187   3.029   8.179  0.3760  1.3976  2.1078
 3647SOL     OW13832   5.984   9.555   6.083  0.1843  0.0325  0.4309
 3647SOL    HW113833   6.013   9.637   6.042 -0.8353  1.0688  1.7107
 3647SOL    HW213834   6.031   9.487   6.035  1.2987  1.3732 -0.4663
 3648SOL     OW13835   1.435   3.263   1.233 -0.0837  0.5709  0.3877
 3648SOL    HW113836   1.379   3.185   1.234  0.3853  0.2294  0.6984
 3648SOL    HW213837   1.409   3.312   1.311  0.3715  0.1709  0.8015
 3649SOL     OW13838   3.778   5.327   4.862 -0.1559  0.5995 -0.7795
 3649SOL    HW113839   3.767   5.400   4.922 -0.5464 -0.5494  0.5988
 3649SOL    HW213840   3.859   5.285   4.890 -1.0006 -0.7016 -0.1898
 3650SOL     OW13841   7.845   4.846   8.025 -0.5170  0.4243  0.1699
 3650SOL    HW113842   7.862   4.868   8.117 -0.0300 -2.2378  0.8066
 3650SOL    HW213843   7.912   4.893   7.976  0.5119  0.2928  1.3930
 3651SOL     OW13844   7.391   7.689   4.047 -0.1672  0.1456  0.1767
 3651SOL    HW113845   7.373   7.606   4.002 -0.0857  1.8918 -3.4364
 3651SOL    HW213846   7.307   7.735   4.048  0.1780  0.7922  0.4171
 3652SOL     OW13847   7.728   5.369   4.237  0.0502  0.1207 -0.2231
 3652SOL    HW113848   7.682   5.288   4.258  0.4690  0.1346  0.7785
 3652SOL    HW213849   7.702   5.388   4.147  1.0472 -1.8860 -0.9937
 3653SOL     OW13850   9.631   3.734   6.423 -0.3159  0.0453  0.1271
 3653SOL    HW113851   9.611   3.784   6.502 -1.2642 -1.5226  0.9188
 3653SOL    HW213852   9.618   3.797   6.351  0.0460  1.3456  1.1539
 3654SOL     OW13853   5.651   0.957   4.962 -0.6347  0.3883 -0.2062
 3654SOL    HW113854   5.643   0.863   4.948 -0.2697  0.2212  0.6462
 3654SOL    HW213855   5.674   0.966   5.054  0.5840  1.2430 -0.5617
 3655SOL     OW13856   1.120   0.166   6.018 -0.5195  0.1249  0.0392
 3655SOL    HW113857   1.143   0.081   6.055  0.0828  0.3666  0.2274
 3655SOL    HW213858   1.030   0.180   6.045 -0.4294 -0.1880  0.5053
 3656SOL     OW13859   5.306   3.414   2.138 -0.0234 -0.5175  0.4094
 3656SOL    HW113860   5.318   3.449   2.226 -1.1682 -1.0850  0.8062
 3656SOL    HW213861   5.340   3.483   2.080  1.4914 -0.4734  1.2903
 3657SOL     OW13862   4.333   1.822   1.518  0.3169  0.3233 -0.0503
 3657SOL    HW113863   4.260   1.845   1.575 -0.2157 -0.6953 -0.2906
 3657SOL    HW213864   4.300   1.835   1.429 -0.2893 -2.0073 -0.2300
 3658SOL     OW13865   1.684   2.191   3.755  0.2876  0.3106 -0.1291
 3658SOL    HW113866   1.643   2.271   3.721  0.9517  0.5510 -0.3646
 3658SOL    HW213867   1.701   2.137   3.678 -2.3118 -1.1348  0.1784
 3659SOL     OW13868   2.712   3.150   0.838 -0.0338 -0.0555 -0.0118
 3659SOL    HW113869   2.701   3.112   0.925  0.6884  0.8857  0.4974
 3659SOL    HW213870   2.789   3.107   0.802  2.4821  2.7470  1.6382
 3660SOL     OW13871   2.400   5.839   2.914  0.2964  0.5633  0.2017
 3660SOL    HW113872   2.368   5.920   2.874  2.4944  1.6350  0.4538
 3660SOL    HW213873   2.488   5.861   2.946  1.6763 -2.3525 -1.1683
 3661SOL     OW13874   6.608   1.874   4.445  0.1651 -0.1540  0.0547
 3661SOL    HW113875   6.543   1.920   4.499  0.1043 -0.3097  0.1152
 3661SOL    HW213876   6.657   1.821   4.508  1.2151  0.9504  0.1958
 3662SOL     OW13877   6.562   1.099   1.351  0.1035 -0.0128 -0.4961
 3662SOL    HW113878   6.560   1.136   1.439 -1.5763  0.2164 -0.5936
 3662SOL    HW213879   6.539   1.007   1.363 -2.8277  0.5465 -0.8442
 3663SOL     OW13880   7.514   4.406   1.204 -0.8192  0.5945  0.1490
 3663SOL    HW113881   7.590   4.444   1.247 -0.1345 -0.3846 -0.1609
 3663SOL    HW213882   7.457   4.481   1.184 -0.6568  1.1737  1.7495
 3664SOL     OW13883   0.380   2.351   9.402  0.7013 -0.2991 -0.3850
 3664SOL    HW113884   0.339   2.435   9.382  1.1568  0.4776  1.7181
 3664SOL    HW213885   0.314   2.302   9.450  1.0926 -0.3446  0.1219
 3665SOL     OW13886   5.757   5.570   7.550  0.2254  0.3042  0.4557
 3665SOL    HW113887   5.763   5.537   7.640 -1.2156  1.8619  1.1762
 3665SOL    HW213888   5.830   5.631   7.542  0.6026 -0.1455  0.4130
 3666SOL     OW13889   1.756   9.149   5.964  0.0360 -0.3172 -0.2756
 3666SOL    HW113890   1.768   9.242   5.944  0.2278 -0.4519 -0.8071
 3666SOL    HW213891   1.822   9.130   6.030 -0.2959  0.0273  0.1636
 3667SOL     OW13892   1.975   6.197   5.770 -0.2623 -0.0163  0.1517
 3667SOL    HW113893   2.000   6.289   5.785  1.2465 -0.5551  1.1575
 3667SOL    HW213894   2.024   6.173   5.691 -0.4261 -0.0313  0.0562
 3668SOL     OW13895   6.380   1.193   0.123 -0.0557  0.2537 -0.2575
 3668SOL    HW113896   6.451   1.226   0.068 -0.8190  0.7854 -0.9456
 3668SOL    HW213897   6.330   1.135   0.065 -0.5495  0.3886  0.0294
 3669SOL     OW13898   7.073   3.497   0.102  0.2633  0.5004 -0.1267
 3669SOL    HW113899   7.042   3.407   0.099 -0.7998  0.8815 -1.8326
 3669SOL    HW213900   7.000   3.546   0.140 -1.0277  1.2505 -3.2599
 3670SOL     OW13901   4.892   8.513   8.607  0.5814  0.3894 -0.1844
 3670SOL    HW113902   4.902   8.428   8.651 -0.4572  0.2183 -0.2555
 3670SOL    HW213903   4.802   8.513   8.575  0.5517  1.5386 -0.1443
 3671SOL     OW13904   8.167   2.168   6.516 -0.2447 -0.2681  1.0103
 3671SOL    HW113905   8.096   2.207   6.568  0.3991  0.2673  1.5073
 3671SOL    HW213906   8.145   2.075   6.509 -1.7127  0.1204 -0.0215
 3672SOL     OW13907   8.948   9.275   2.476  0.1634  0.4074 -0.4161
 3672SOL    HW113908   8.875   9.282   2.538  0.6217 -1.3996  0.3751
 3672SOL    HW213909   8.915   9.217   2.407 -0.2964  2.2962 -1.8760
 3673SOL     OW13910   5.276   0.208   8.777 -0.7898  0.1502 -0.2022
 3673SOL    HW113911   5.215   0.277   8.750 -0.9597  0.6975  1.4770
 3673SOL    HW213912   5.294   0.227   8.869 -1.2027 -2.3220  0.4552
 3674SOL     OW13913   2.017   9.355   2.088  0.7050  0.6430 -0.1257
 3674SOL    HW113914   2.095   9.399   2.120  0.6008  1.8698 -1.4782
 3674SOL    HW213915   1.957   9.426   2.064 -0.5355 -0.2681  0.1440
 3675SOL     OW13916   6.126   4.522   9.215 -0.0691 -0.1714  1.4055
 3675SOL    HW113917   6.062   4.576   9.262 -0.1699  0.4461  0.5771
 3675SOL    HW213918   6.202   4.518   9.274  0.8957  2.8774  0.5665
 3676SOL     OW13919   6.009   9.506   8.727  0.2769 -0.0037 -0.5644
 3676SOL    HW113920   6.057   9.584   8.699  0.2490  0.2770  0.1435
 3676SOL    HW213921   5.989   9.459   8.646 -0.8767  1.3945 -1.1421
 3677SOL     OW13922   9.074   4.056   6.447  0.5959  0.6189  0.0999
 3677SOL    HW113923   9.158   4.018   6.473  0.4029 -0.4288 -0.7679
 3677SOL    HW213924   9.057   4.123   6.514  1.7516  0.3407  0.7065
 3678SOL     OW13925   4.080   8.710   6.077 -0.0451  0.3616  0.3826
 3678SOL    HW113926   4.134   8.762   6.018  2.3708 -0.7860  1.4456
 3678SOL    HW213927   4.044   8.640   6.022  1.2998 -0.0718  0.0200
 3679SOL     OW13928   8.008   0.677   6.595  0.3565 -0.7908 -0.8165
 3679SOL    HW113929   7.944   0.725   6.543  0.8408  0.6270 -0.1428
 3679SOL    HW213930   8.000   0.713   6.683  1.8515 -0.7794 -0.6548
 3680SOL     OW13931   4.400   4.055   2.322 -0.5311  0.2869  0.2103
 3680SOL    HW113932   4.327   4.089   2.373  0.2662 -0.3131  1.8439
 3680SOL    HW213933   4.468   4.122   2.331  0.1045 -0.4566  1.1726
 3681SOL     OW13934   7.005   5.801   4.356  0.2614  0.3007 -0.3023
 3681SOL    HW113935   7.067   5.766   4.421 -0.0704 -1.7556 -1.0012
 3681SOL    HW213936   6.924   5.813   4.405  0.1060 -0.9253 -0.2131
 3682SOL     OW13937   0.437   2.352   2.238 -0.1211  0.5014 -0.6892
 3682SOL    HW113938   0.506   2.419   2.243  0.9031 -0.6369  1.5740
 3682SOL    HW213939   0.484   2.269   2.237 -1.4242 -0.2640 -2.1240
 3683SOL     OW13940   8.483   2.731   2.330 -0.2254  0.3738  0.2090
 3683SOL    HW113941   8.558   2.790   2.316 -0.7440  1.1285  0.5464
 3683SOL    HW213942   8.521   2.643   2.327  0.8518  0.7646  1.3984
 3684SOL     OW13943   2.005   7.010   6.073  0.4883  0.0978 -0.7052
 3684SOL    HW113944   1.941   6.960   6.123  1.4405  1.3232  1.9418
 3684SOL    HW213945   2.027   6.954   5.999  0.5158 -2.8247  1.3584
 3685SOL     OW13946   2.187   1.642   6.950  0.3464 -0.3957  0.3894
 3685SOL    HW113947   2.157   1.553   6.932  1.8244 -0.5648 -1.5420
 3685SOL    HW213948   2.118   1.698   6.915 -0.2958 -0.7486  1.0485
 3686SOL     OW13949   4.698   7.801   2.923  0.7794  0.4393 -0.4023
 3686SOL    HW113950   4.658   7.877   2.881 -2.1998 -1.3742 -1.1316
 3686SOL    HW213951   4.746   7.758   2.852  1.0923  0.7566 -0.3848
 3687SOL     OW13952   1.721   6.761   5.714 -0.1927 -0.1647  0.0393
 3687SOL    HW113953   1.627   6.773   5.702 -0.2238 -0.2263  0.2207
 3687SOL    HW213954   1.756   6.756   5.625 -0.4516 -0.8323 -0.0315
 3688SOL     OW13955   5.429   7.590   3.428 -0.3688  0.8057  0.4237
 3688SOL    HW113956   5.488   7.532   3.476 -0.7792  0.1382  0.1401
 3688SOL    HW213957   5.395   7.535   3.357  0.2617  1.7787 -0.6649
 3689SOL     OW13958   9.246   4.522   3.057  0.2422  0.0304 -0.5985
 3689SOL    HW113959   9.269   4.612   3.079  1.1588 -0.6099  1.3595
 3689SOL    HW213960   9.186   4.529   2.983 -1.6223  2.3793  0.9718
 3690SOL     OW13961   5.033   8.527   0.019  0.0833  0.6484  0.0611
 3690SOL    HW113962   5.097   8.591  -0.012 -0.9221  2.1611  0.9413
 3690SOL    HW213963   5.083   8.471   0.079  1.0372  0.4149 -0.9094
 3691SOL     OW13964   1.743   0.967   2.211 -0.2195 -0.0859  0.3420
 3691SOL    HW113965   1.749   1.034   2.143 -1.7694  1.2027  1.3812
 3691SOL    HW213966   1.824   0.917   2.203  0.7709  1.5960 -0.8066
 3692SOL     OW13967   1.438   3.777   9.441 -0.4599  0.7755  0.8851
 3692SOL    HW113968   1.462   3.692   9.477  1.4356  0.3511 -1.1763
 3692SOL    HW213969   1.482   3.841   9.497 -1.0294  0.3926  1.7987
 3693SOL     OW13970   9.546   3.382   8.649 -0.1902 -0.1789 -0.4046
 3693SOL    HW113971   9.626   3.367   8.700 -0.3898 -1.9221 -0.5422
 3693SOL    HW213972   9.569   3.453   8.589  1.1202 -0.3613 -0.1548
 3694SOL     OW13973   3.657   7.197   2.333 -0.0414  0.0371 -0.3931
 3694SOL    HW113974   3.672   7.234   2.420  0.7350 -2.0818  0.4178
 3694SOL    HW213975   3.565   7.214   2.316 -0.2538  0.3326  0.9149
 3695SOL     OW13976   9.002   7.021   4.768 -0.2202 -0.0786  0.1953
 3695SOL    HW113977   8.937   7.074   4.813  1.0372  1.8823 -0.1522
 3695SOL    HW213978   9.001   7.053   4.678  0.5769 -0.6449 -0.0264
 3696SOL     OW13979   0.460   8.446   7.252  0.1084  0.2137  0.1413
 3696SOL    HW113980   0.447   8.355   7.226 -3.7613  1.0372 -1.4619
 3696SOL    HW213981   0.421   8.451   7.340 -1.2092  0.5938 -0.4421
 3697SOL     OW13982   4.013   9.505   8.134  0.3083  0.4696 -0.5566
 3697SOL    HW113983   3.985   9.595   8.115  1.3068  1.5193  2.3272
 3697SOL    HW213984   3.996   9.494   8.227  2.0834 -1.6167 -0.3935
 3698SOL     OW13985   7.734   3.575   2.280  0.3401 -0.4290  0.5884
 3698SOL    HW113986   7.784   3.572   2.361  1.4082 -0.7664 -0.0638
 3698SOL    HW213987   7.788   3.627   2.220  0.2372 -1.3620 -0.3390
 3699SOL     OW13988   6.232   0.796   0.997  0.0667  0.3905 -0.6289
 3699SOL    HW113989   6.270   0.884   0.993 -1.0054  0.9006  0.1145
 3699SOL    HW213990   6.160   0.798   0.934 -0.1668  0.1436 -0.3686
 3700SOL     OW13991   5.347   8.292   6.770 -0.3503 -0.3550  0.0561
 3700SOL    HW113992   5.416   8.349   6.803  0.9893  0.3699 -3.6138
 3700SOL    HW213993   5.366   8.206   6.809  1.6275  0.2010  0.4051
 3701SOL     OW13994   8.563   9.097   7.892 -0.0615  0.0640 -0.0452
 3701SOL    HW113995   8.620   9.156   7.842  0.5780 -0.5241 -0.0224
 3701SOL    HW213996   8.496   9.070   7.830  0.0663  0.2438 -0.2655
 3702SOL     OW13997   7.789   0.609   0.894 -0.0687  0.1016 -0.1074
 3702SOL    HW113998   7.879   0.635   0.872  1.1941 -2.1105  1.9626
 3702SOL    HW213999   7.773   0.532   0.840  0.1145 -0.7438  1.0096
 3703SOL     OW14000   1.408   1.144   0.164 -0.1783 -0.1599  0.0141
 3703SOL    HW114001   1.346   1.148   0.091 -0.1648 -1.8756 -0.1299
 3703SOL    HW214002   1.493   1.130   0.122  0.2031  1.2289  0.2621
 3704SOL     OW14003   2.180   1.074   1.969  0.1954  0.2349 -0.1322
 3704SOL    HW114004   2.242   1.011   1.933  0.3351 -0.2203  0.8789
 3704SOL    HW214005   2.103   1.066   1.912 -0.2809 -1.7914  0.6919
 3705SOL     OW14006   5.931   8.663   2.876 -0.3679  0.1259  0.5721
 3705SOL    HW114007   5.978   8.739   2.841  0.4622 -0.2571  0.8172
 3705SOL    HW214008   5.883   8.628   2.801  0.0189  0.3300  0.2203
 3706SOL     OW14009   9.184   9.608   0.109 -0.1935 -0.5438  0.0201
 3706SOL    HW114010   9.119   9.654   0.163 -0.0142  1.9993 -1.7531
 3706SOL    HW214011   9.133   9.567   0.039 -0.0338  0.2361 -0.5611
 3707SOL     OW14012   5.938   7.593   2.789 -0.4223 -0.1691  0.0890
 3707SOL    HW114013   5.857   7.628   2.751 -0.5435 -1.7480 -1.1827
 3707SOL    HW214014   5.986   7.671   2.818 -1.1683  0.9890 -1.6443
 3708SOL     OW14015   6.174   1.475   0.918  0.5039  0.8379 -0.0158
 3708SOL    HW114016   6.194   1.558   0.873  2.1207 -0.2297 -1.3930
 3708SOL    HW214017   6.182   1.409   0.850 -0.2617 -0.5359  1.1810
 3709SOL     OW14018   9.599   3.997   7.485 -0.1844  0.4094  0.0460
 3709SOL    HW114019   9.557   4.074   7.446 -0.9623 -0.5583 -1.0932
 3709SOL    HW214020   9.693   4.012   7.472 -0.2771  1.4322  0.3909
 3710SOL     OW14021   3.861   4.370   2.661 -0.1460 -0.4622  0.0106
 3710SOL    HW114022   3.848   4.392   2.569  0.7280  0.5216  0.1043
 3710SOL    HW214023   3.893   4.280   2.660 -2.0858 -1.2011 -0.4935
 3711SOL     OW14024   4.568   2.624   3.207 -0.0251  0.3223 -0.1581
 3711SOL    HW114025   4.550   2.531   3.193  1.7138 -0.0164 -0.2568
 3711SOL    HW214026   4.487   2.668   3.179 -1.2868 -1.1948  0.8935
 3712SOL     OW14027   6.251   3.029   5.347 -0.8314  0.3101  0.2120
 3712SOL    HW114028   6.289   3.116   5.329  0.8934 -0.1631  1.2774
 3712SOL    HW214029   6.164   3.048   5.382 -0.6136  1.6027  0.1190
 3713SOL     OW14030   8.349   5.048   5.729 -0.0758 -0.8259  0.0249
 3713SOL    HW114031   8.346   5.106   5.652  2.6130  0.4599  0.7910
 3713SOL    HW214032   8.365   5.106   5.803  0.1381 -2.3137  1.1972
 3714SOL     OW14033   9.622   8.504   4.947  0.2373  0.1276  0.4362
 3714SOL    HW114034   9.572   8.566   4.893  0.5366 -1.4321 -1.7455
 3714SOL    HW214035   9.560   8.478   5.016 -0.4559  1.4849  0.3787
 3715SOL     OW14036   6.160   0.131   4.408  1.2273 -0.1105 -0.2912
 3715SOL    HW114037   6.241   0.083   4.422  1.4970  0.5262  0.3836
 3715SOL    HW214038   6.106   0.110   4.484  0.9988 -0.0369 -0.4312
 3716SOL     OW14039   7.687   7.769   8.578 -0.4628 -0.0060 -0.3551
 3716SOL    HW114040   7.687   7.767   8.483 -2.3237  1.0462 -0.4153
 3716SOL    HW214041   7.597   7.749   8.603 -0.1723  0.4315  1.1623
 3717SOL     OW14042   6.796   2.218   6.436 -0.3017 -0.2546  0.3943
 3717SOL    HW114043   6.799   2.156   6.509  0.7034  0.6743  1.1726
 3717SOL    HW214044   6.767   2.300   6.476  2.0761  0.7651  0.1485
 3718SOL     OW14045   2.895   1.161   3.712  0.5196 -0.1897  0.5122
 3718SOL    HW114046   2.838   1.106   3.659  0.1656 -0.5335  1.2481
 3718SOL    HW214047   2.934   1.222   3.649  0.5901 -0.9993 -0.2377
 3719SOL     OW14048   8.088   3.988   9.389 -0.1822 -0.2055 -0.3805
 3719SOL    HW114049   8.050   3.942   9.464 -1.6986 -0.0006 -0.9859
 3719SOL    HW214050   8.027   4.059   9.371  1.2602  1.0468 -0.5083
 3720SOL     OW14051   2.769   5.464   2.200 -0.2346 -0.0758 -0.0578
 3720SOL    HW114052   2.850   5.505   2.170  0.3607 -1.5789 -0.6136
 3720SOL    HW214053   2.768   5.378   2.157 -1.5666 -0.5348  0.8110
 3721SOL     OW14054   3.090   4.247   2.922  0.8520  0.6451 -0.6674
 3721SOL    HW114055   3.092   4.295   3.004  1.1540 -2.6646  1.4601
 3721SOL    HW214056   2.998   4.252   2.894  0.0357 -0.5439  1.5201
 3722SOL     OW14057   8.410   8.745   4.453  0.3415 -0.6731 -0.3813
 3722SOL    HW114058   8.335   8.688   4.471 -0.2850 -0.1798 -1.3466
 3722SOL    HW214059   8.372   8.831   4.436  1.0842 -0.4968 -1.2519
 3723SOL     OW14060   1.198   3.756   3.993  0.8500  0.1948 -0.5693
 3723SOL    HW114061   1.263   3.686   3.986  0.3248 -0.4213  0.4993
 3723SOL    HW214062   1.192   3.792   3.904  2.0303 -0.2930 -0.8600
 3724SOL     OW14063   7.593   1.757   6.920 -0.4134  0.1827 -0.1929
 3724SOL    HW114064   7.597   1.711   6.836  0.8911 -2.5285  1.2460
 3724SOL    HW214065   7.643   1.703   6.980 -1.1137  2.1416  2.3433
 3725SOL     OW14066   7.605   3.787   7.891 -0.3624  0.4650  0.3522
 3725SOL    HW114067   7.655   3.770   7.811 -0.6390 -0.6310  0.3893
 3725SOL    HW214068   7.658   3.850   7.940 -0.3199  1.3444 -0.8066
 3726SOL     OW14069   1.488   9.441   3.187 -0.0847  0.1125 -0.3080
 3726SOL    HW114070   1.487   9.356   3.232  0.5141 -0.2669 -0.9941
 3726SOL    HW214071   1.492   9.419   3.094  3.5904  0.8107 -0.4729
 3727SOL     OW14072   2.618   0.042   0.596  0.2973 -0.4000 -0.1850
 3727SOL    HW114073   2.559   0.046   0.521 -0.8647  1.6049  0.7495
 3727SOL    HW214074   2.699   0.081   0.565 -0.9179  2.6300  0.1287
 3728SOL     OW14075   6.574   7.649   9.507  0.0340 -0.1383 -0.2162
 3728SOL    HW114076   6.528   7.604   9.579  0.1538 -0.6825 -0.4707
 3728SOL    HW214077   6.571   7.741   9.530  0.6054 -0.3627  0.7953
 3729SOL     OW14078   2.227   3.095   7.566 -0.1002 -0.3248  0.0329
 3729SOL    HW114079   2.151   3.106   7.508 -0.4252  0.4348  0.5895
 3729SOL    HW214080   2.294   3.153   7.529 -0.3824  0.3307  0.5328
 3730SOL     OW14081   6.395   5.551   2.724 -0.8754 -0.3125  0.1709
 3730SOL    HW114082   6.453   5.566   2.799 -0.3528  2.0738 -0.6227
 3730SOL    HW214083   6.383   5.637   2.686 -2.2119 -1.2747 -1.7322
 3731SOL     OW14084   7.205   6.707   8.666  0.3332 -0.2955  0.0367
 3731SOL    HW114085   7.128   6.734   8.615  1.2007 -0.0970 -1.2154
 3731SOL    HW214086   7.277   6.709   8.603  1.3190 -0.7582  1.1197
 3732SOL     OW14087   5.647   5.623   1.831 -0.1028  0.3601  0.3022
 3732SOL    HW114088   5.583   5.565   1.873 -0.4593  1.4676  1.3560
 3732SOL    HW214089   5.651   5.592   1.740  0.4677 -1.9423  1.0378
 3733SOL     OW14090   1.663   0.419   3.599  0.5330 -0.4298  0.1983
 3733SOL    HW114091   1.613   0.456   3.672  0.0464  0.3449 -0.5103
 3733SOL    HW214092   1.720   0.490   3.571  0.1387 -0.4545 -0.6835
 3734SOL     OW14093   7.602   4.515   0.309  0.2801 -0.3984  0.2037
 3734SOL    HW114094   7.649   4.568   0.374  0.0371  1.0391 -0.7396
 3734SOL    HW214095   7.516   4.500   0.349 -0.5098  1.9715 -0.4224
 3735SOL     OW14096   7.517   2.934   2.083  0.0608  0.2564  0.3243
 3735SOL    HW114097   7.507   2.918   1.989  0.7264  1.2039  0.0819
 3735SOL    HW214098   7.608   2.909   2.101 -0.4814 -1.3542  1.0417
 3736SOL     OW14099   7.077   9.383   9.487  0.4777  0.3909 -0.3303
 3736SOL    HW114100   7.124   9.326   9.549  0.4152  0.7479  0.0535
 3736SOL    HW214101   7.061   9.463   9.537 -1.2314  0.0008 -0.1977
 3737SOL     OW14102   8.113   3.434   6.732  0.5535  0.0460 -0.2821
 3737SOL    HW114103   8.050   3.446   6.803  0.1921  1.5950 -0.8318
 3737SOL    HW214104   8.182   3.499   6.749 -0.5024  1.8605 -2.3388
 3738SOL     OW14105   7.794   5.782   1.488  0.0382 -0.3622 -0.5012
 3738SOL    HW114106   7.745   5.740   1.558 -0.3306  0.4286 -0.2742
 3738SOL    HW214107   7.838   5.856   1.531 -1.1123  0.8261 -1.3141
 3739SOL     OW14108   7.270   6.551   7.365 -0.3043  0.1983 -0.6655
 3739SOL    HW114109   7.329   6.500   7.310 -0.8743 -0.3876 -0.7420
 3739SOL    HW214110   7.291   6.526   7.454 -0.8140 -0.4409 -0.7165
 3740SOL     OW14111   3.012   6.741   5.734  0.0184  1.2758 -0.4431
 3740SOL    HW114112   3.073   6.674   5.763 -1.6104  0.2112  0.6557
 3740SOL    HW214113   3.043   6.822   5.775  0.9778  0.8466 -0.3189
 3741SOL     OW14114   1.940   3.813   9.641 -0.1927  0.0619 -0.0335
 3741SOL    HW114115   2.002   3.803   9.712  1.0158  1.8087 -0.7698
 3741SOL    HW214116   1.946   3.731   9.592 -0.3945 -0.8035  1.3280
 3742SOL     OW14117   3.651   6.572   2.867  0.1578 -0.0793  0.1715
 3742SOL    HW114118   3.743   6.556   2.888  0.1067 -0.2876  0.2440
 3742SOL    HW214119   3.646   6.665   2.848  0.1950  0.1323  1.1461
 3743SOL     OW14120   6.246   8.979   8.950 -0.6872  0.1382 -0.6826
 3743SOL    HW114121   6.208   8.920   9.016 -0.8369 -1.0543 -1.7825
 3743SOL    HW214122   6.332   9.001   8.984 -0.6026 -0.7802 -0.2710
 3744SOL     OW14123   8.423   7.263   1.373  0.2282  0.2375 -0.4328
 3744SOL    HW114124   8.355   7.279   1.438 -0.4980 -0.1123 -1.0848
 3744SOL    HW214125   8.498   7.312   1.405 -0.7213  1.7291 -0.3482
 3745SOL     OW14126   2.986   0.466   0.882  0.0860 -0.0026 -0.0445
 3745SOL    HW114127   3.043   0.391   0.897 -0.0666 -0.1081  0.0123
 3745SOL    HW214128   3.026   0.538   0.931  1.4422  0.5302 -1.8118
 3746SOL     OW14129   5.546   5.442   5.951 -0.4159 -0.2021  0.7341
 3746SOL    HW114130   5.616   5.504   5.932  0.1586 -1.0174  0.0957
 3746SOL    HW214131   5.514   5.416   5.865 -0.4819 -0.9631  0.9824
 3747SOL     OW14132   1.549   2.547   7.723 -0.3726 -0.1649 -0.3052
 3747SOL    HW114133   1.595   2.495   7.657  0.8470  0.1637  0.2447
 3747SOL    HW214134   1.510   2.619   7.674  0.5044  0.0620 -0.6855
 3748SOL     OW14135   4.498   3.799   2.795 -0.5628  0.4757  0.2713
 3748SOL    HW114136   4.417   3.779   2.843 -0.5805 -0.1509 -0.0231
 3748SOL    HW214137   4.470   3.859   2.726 -0.7430  0.3935  0.2731
 3749SOL     OW14138   2.102   2.861   8.511 -0.0180 -0.1864  0.1657
 3749SOL    HW114139   2.039   2.834   8.578  0.7963 -0.5165  0.8094
 3749SOL    HW214140   2.088   2.799   8.439 -0.8257  0.1060  0.0547
 3750SOL     OW14141   3.195   3.391   8.639  0.3527 -0.4279 -0.3201
 3750SOL    HW114142   3.263   3.426   8.696 -0.9739 -1.9601  2.3662
 3750SOL    HW214143   3.117   3.442   8.660  0.0136 -0.4918 -1.3608
 3751SOL     OW14144   8.189   0.007   1.911 -0.3859  0.0233  0.2009
 3751SOL    HW114145   8.222  -0.069   1.960 -1.5110  0.2593  1.4042
 3751SOL    HW214146   8.094   0.005   1.927 -0.7767  0.2437 -1.8369
 3752SOL     OW14147   1.512   6.537   3.362 -0.0200  0.5430 -0.4208
 3752SOL    HW114148   1.463   6.542   3.279 -1.9322 -0.7052  0.5669
 3752SOL    HW214149   1.464   6.472   3.414  0.9224  1.5585  1.8168
 3753SOL     OW14150   2.201   0.953   4.600  0.1579 -0.6034 -0.4237
 3753SOL    HW114151   2.204   0.950   4.504  2.6709 -0.3642 -0.4165
 3753SOL    HW214152   2.196   0.862   4.627  0.4494 -0.7288 -0.7862
 3754SOL     OW14153   0.525   3.736   0.720 -0.0720 -0.3026 -0.3552
 3754SOL    HW114154   0.560   3.693   0.642  3.0112  1.5827 -0.1892
 3754SOL    HW214155   0.544   3.675   0.791  0.6810 -0.3969 -0.6216
 3755SOL     OW14156   4.006   2.585   7.930 -0.1350  0.3899  0.2324
 3755SOL    HW114157   4.071   2.550   7.991  0.8213  0.7564 -0.5546
 3755SOL    HW214158   4.049   2.659   7.888 -1.6991  1.8007  0.9781
 3756SOL     OW14159   1.835   7.830   4.455  0.2355  0.1476  0.5529
 3756SOL    HW114160   1.871   7.915   4.430 -1.0910  0.8682  1.0170
 3756SOL    HW214161   1.827   7.834   4.550  0.0497 -0.4631  0.5675
 3757SOL     OW14162   5.815   7.596   8.898  0.2386  0.3212 -0.5730
 3757SOL    HW114163   5.719   7.590   8.904 -0.0327  1.0179 -2.9188
 3757SOL    HW214164   5.845   7.507   8.916 -1.0980 -0.5458 -2.1852
 3758SOL     OW14165   3.410   4.556   8.688 -0.4018  0.7185 -0.3078
 3758SOL    HW114166   3.439   4.620   8.622 -2.3921 -0.2424 -2.2479
 3758SOL    HW214167   3.446   4.473   8.658 -2.1423  0.1032 -0.7928
 3759SOL     OW14168   7.037   0.009   5.347 -0.0413 -0.5200 -0.4551
 3759SOL    HW114169   7.099   0.008   5.420 -1.1773  0.1888  0.5532
 3759SOL    HW214170   6.967  -0.051   5.375 -0.4343 -0.3252 -1.0149
 3760SOL     OW14171   5.737   6.495   8.742 -0.0247 -0.3316  0.4913
 3760SOL    HW114172   5.771   6.583   8.763 -1.2537  0.2863 -0.0035
 3760SOL    HW214173   5.720   6.456   8.828  1.7072 -0.6024  0.7573
 3761SOL     OW14174   0.962   5.168   1.373 -0.5297  0.2347 -0.0050
 3761SOL    HW114175   0.991   5.253   1.405  1.8395 -0.5955  0.2378
 3761SOL    HW214176   0.875   5.156   1.412 -0.0588  1.6696  1.5931
 3762SOL     OW14177   5.963   6.262   7.015  0.3700 -0.3283  0.2668
 3762SOL    HW114178   5.929   6.310   6.939 -0.2185 -0.9070  0.1557
 3762SOL    HW214179   5.886   6.222   7.054  0.7509 -0.5215  0.8282
 3763SOL     OW14180   7.909   4.725   0.465 -0.7096  0.4983  0.5448
 3763SOL    HW114181   7.886   4.635   0.487 -3.4954  0.2146 -2.6356
 3763SOL    HW214182   7.825   4.766   0.444  0.8153  2.4635 -2.4471
 3764SOL     OW14183   5.439   5.395   4.532  0.3245  0.6258  0.0097
 3764SOL    HW114184   5.534   5.405   4.533  0.2720  1.1236  0.2088
 3764SOL    HW214185   5.421   5.328   4.598  0.4750  1.1093  0.5432
 3765SOL     OW14186   3.179   8.941   2.095 -0.3633  0.0278 -0.0694
 3765SOL    HW114187   3.221   8.939   2.182 -1.2422  3.1794  0.5583
 3765SOL    HW214188   3.089   8.913   2.111 -0.5698  0.7644  0.1006
 3766SOL     OW14189   8.198   5.822   4.910  0.5205  0.4556  0.2952
 3766SOL    HW114190   8.231   5.764   4.841  1.3872  1.9578 -0.6077
 3766SOL    HW214191   8.194   5.908   4.868  0.3965  1.2824  1.9442
 3767SOL     OW14192   5.965   5.831   8.680 -0.1683 -0.6110  0.0957
 3767SOL    HW114193   5.984   5.872   8.596 -2.3164 -0.4015 -0.3462
 3767SOL    HW214194   5.927   5.901   8.733 -3.0671 -1.6913 -0.3659
 3768SOL     OW14195   7.235   1.466   4.572 -0.0103  0.2157  0.2850
 3768SOL    HW114196   7.322   1.505   4.578  0.2954 -0.5028  0.5100
 3768SOL    HW214197   7.250   1.372   4.570 -0.8140  0.0643  0.8747
 3769SOL     OW14198   2.804   5.873   2.345  0.0288  0.4185  0.4229
 3769SOL    HW114199   2.851   5.885   2.262  1.8067 -0.9255  1.1808
 3769SOL    HW214200   2.867   5.900   2.412 -0.3647 -1.1714  1.4727
 3770SOL     OW14201   5.628   8.522   6.473 -0.2102  0.8659  0.3476
 3770SOL    HW114202   5.545   8.479   6.455  0.8728 -1.6592  0.9185
 3770SOL    HW214203   5.686   8.492   6.403  0.5133  1.7121  0.5666
 3771SOL     OW14204   9.094   7.985   0.846  0.2791 -0.3921  0.1674
 3771SOL    HW114205   9.101   7.919   0.778 -0.4749  0.0808 -0.3856
 3771SOL    HW214206   9.124   7.941   0.926  1.3552 -0.9007 -0.4847
 3772SOL     OW14207   6.291   7.147   2.985 -0.0850 -0.1492 -0.1483
 3772SOL    HW114208   6.292   7.061   2.942  3.2515  0.1690 -1.0156
 3772SOL    HW214209   6.253   7.206   2.920  2.6639 -0.1183 -1.9232
 3773SOL     OW14210   4.928   9.271   3.629 -0.4255  0.7731  0.4326
 3773SOL    HW114211   4.954   9.179   3.636  2.1073  1.3717 -0.2148
 3773SOL    HW214212   4.984   9.317   3.691 -0.0961  2.1355 -0.8125
 3774SOL     OW14213   6.145   8.640   3.569  0.2303  0.8979  0.1439
 3774SOL    HW114214   6.103   8.706   3.623  0.6307 -0.0889  1.7307
 3774SOL    HW214215   6.236   8.637   3.600  0.3808  0.0563 -0.3388
 3775SOL     OW14216   7.226   2.886   6.919  0.4387  0.7350 -0.1568
 3775SOL    HW114217   7.212   2.938   6.999 -0.3829  2.0815 -1.1144
 3775SOL    HW214218   7.203   2.797   6.944 -2.4162  1.5467  0.4882
 3776SOL     OW14219   4.924   3.846   9.597 -0.1108 -0.8195 -0.3431
 3776SOL    HW114220   4.931   3.820   9.688  1.3463  0.1234 -0.1577
 3776SOL    HW214221   4.998   3.804   9.554  0.3859  0.3356 -0.6700
 3777SOL     OW14222   8.339   7.609   4.288 -0.4904 -0.6758 -0.0680
 3777SOL    HW114223   8.350   7.516   4.268 -2.6138 -0.8007 -0.9240
 3777SOL    HW214224   8.245   7.622   4.286 -0.2572  1.3766  0.7036
 3778SOL     OW14225   5.356   7.592   7.613 -0.1290 -0.0930  0.4210
 3778SOL    HW114226   5.435   7.565   7.566 -0.7975 -1.1626 -0.1188
 3778SOL    HW214227   5.314   7.655   7.555 -1.6330 -2.3688 -1.1357
 3779SOL     OW14228   4.126   0.992   7.262  0.1838 -0.1891 -0.0464
 3779SOL    HW114229   4.037   1.025   7.271  0.7459  1.0380  1.5369
 3779SOL    HW214230   4.124   0.938   7.183 -1.6599  0.7618 -0.7035
 3780SOL     OW14231   8.536   4.574   4.563  0.0239 -0.3324 -0.1993
 3780SOL    HW114232   8.620   4.560   4.520  0.0573 -1.3665  0.1656
 3780SOL    HW214233   8.475   4.517   4.515 -0.3052 -0.1606  0.0124
 3781SOL     OW14234   7.631   2.091   0.092 -0.4781  0.0790 -0.0737
 3781SOL    HW114235   7.548   2.045   0.107 -0.6982  0.5880  0.3039
 3781SOL    HW214236   7.668   2.049   0.015 -0.4522 -1.0542  0.5302
 3782SOL     OW14237   6.082   6.186   3.883  0.2882 -0.0159 -0.3337
 3782SOL    HW114238   6.113   6.099   3.909  1.0067  0.0041 -1.0758
 3782SOL    HW214239   6.148   6.246   3.919  0.6857  0.0904 -1.1994
 3783SOL     OW14240   4.292   7.796   6.244 -0.3070  0.2199  0.2296
 3783SOL    HW114241   4.230   7.739   6.288  1.7411 -0.5097  2.3462
 3783SOL    HW214242   4.331   7.741   6.175 -0.7433  0.1527  0.0314
 3784SOL     OW14243   5.595   8.175   2.027  0.0763 -0.0323 -0.2344
 3784SOL    HW114244   5.644   8.102   2.064 -1.8575 -0.8995  0.8123
 3784SOL    HW214245   5.638   8.193   1.944  1.5024 -1.3925  0.1501
 3785SOL     OW14246   1.406   3.191   8.489  0.5385  0.1953 -0.4450
 3785SOL    HW114247   1.480   3.251   8.480  1.0478  0.0396  2.0029
 3785SOL    HW214248   1.330   3.249   8.495  0.6671  0.4430 -1.1144
 3786SOL     OW14249   9.533   3.922   1.942  0.0689 -0.3190 -0.3644
 3786SOL    HW114250   9.502   3.968   2.019 -0.4325 -2.3400  0.7309
 3786SOL    HW214251   9.453   3.895   1.896  0.2722 -1.5078 -0.0580
 3787SOL     OW14252   3.602   3.856   5.668 -0.9684  0.6532 -0.3763
 3787SOL    HW114253   3.529   3.797   5.690  2.0814 -3.5059 -0.1059
 3787SOL    HW214254   3.663   3.847   5.742  1.3862  1.0291 -2.1361
 3788SOL     OW14255   4.492   6.986   3.258 -0.2832  0.3601  0.2431
 3788SOL    HW114256   4.577   6.947   3.238  0.1041  0.6938  1.1496
 3788SOL    HW214257   4.430   6.914   3.251  0.1528 -0.0034  0.0667
 3789SOL     OW14258   4.119   4.639   4.678 -0.5523 -0.2259 -0.2464
 3789SOL    HW114259   4.029   4.637   4.710 -0.5020 -1.9571 -0.0851
 3789SOL    HW214260   4.169   4.591   4.743  1.1250  3.1459  1.1968
 3790SOL     OW14261   2.541   1.915   1.272  0.1155 -0.2878 -0.2708
 3790SOL    HW114262   2.510   1.953   1.189 -1.5097 -0.4713  0.2281
 3790SOL    HW214263   2.545   1.821   1.255  1.1225 -0.2025 -0.5502
 3791SOL     OW14264   4.519   2.603   5.695  0.4992  0.3697 -0.1044
 3791SOL    HW114265   4.430   2.572   5.710  0.7657 -0.8095 -0.7975
 3791SOL    HW214266   4.547   2.558   5.615  0.9625  2.3793 -1.1172
 3792SOL     OW14267   1.009   1.723   1.251 -0.0090 -0.0958  0.1691
 3792SOL    HW114268   0.922   1.714   1.212  0.3748  0.3371 -0.8310
 3792SOL    HW214269   0.995   1.714   1.345 -0.6971 -3.3547 -0.1226
 3793SOL     OW14270   6.532   0.453   0.167 -0.7329  0.0149  0.4185
 3793SOL    HW114271   6.622   0.468   0.136 -0.9368 -0.8653 -0.6387
 3793SOL    HW214272   6.536   0.471   0.260  0.5996 -0.2071  0.4240
 3794SOL     OW14273   8.114   9.363   3.606  0.0746 -0.0080 -0.4366
 3794SOL    HW114274   8.133   9.269   3.604  1.9844  0.3392 -1.0981
 3794SOL    HW214275   8.025   9.370   3.573 -0.3935 -1.6346  0.3451
 3795SOL     OW14276   4.568   4.641   1.693  0.3014 -0.5094 -0.2420
 3795SOL    HW114277   4.612   4.558   1.676  2.2690  0.3247  0.5543
 3795SOL    HW214278   4.531   4.631   1.781  2.1070  0.0410  0.6279
 3796SOL     OW14279   2.187   0.220   0.964  0.5049 -0.6017  0.3358
 3796SOL    HW114280   2.232   0.232   1.047  0.8916  3.6262 -0.2216
 3796SOL    HW214281   2.254   0.192   0.902  1.5581  1.5705  0.4053
 3797SOL     OW14282   7.695   2.262   5.579  0.0831 -0.1023 -0.2250
 3797SOL    HW114283   7.753   2.311   5.637  0.2880  2.2821 -2.2897
 3797SOL    HW214284   7.752   2.227   5.510 -0.3418 -1.7075  0.1895
 3798SOL     OW14285   3.584   4.707   1.688 -0.1920 -0.3708 -0.5144
 3798SOL    HW114286   3.667   4.661   1.701 -0.0340  0.2751  1.0470
 3798SOL    HW214287   3.540   4.701   1.773 -2.5469 -2.1631 -1.7371
 3799SOL     OW14288   3.720   3.111   6.346 -0.1081  0.1662 -0.2076
 3799SOL    HW114289   3.745   3.078   6.260 -2.9655  0.6141 -1.3049
 3799SOL    HW214290   3.757   3.047   6.408  0.1557 -1.3622 -1.8622
 3800SOL     OW14291   9.115   8.545   5.157 -0.4445 -0.2296 -0.3650
 3800SOL    HW114292   9.092   8.453   5.172  0.6517 -0.6925 -1.3935
 3800SOL    HW214293   9.158   8.572   5.238  0.1866 -0.9471 -0.4493
 3801SOL     OW14294   0.913   7.736   4.359  0.6213  0.5977 -0.0925
 3801SOL    HW114295   0.837   7.729   4.418 -1.9513  1.3548 -3.0694
 3801SOL    HW214296   0.899   7.819   4.313  2.4757  0.0079 -1.8348
 3802SOL     OW14297   6.300   3.959   9.597 -0.6891  0.1819  0.2975
 3802SOL    HW114298   6.352   3.945   9.677 -0.8201  0.0312  0.3580
 3802SOL    HW214299   6.355   3.926   9.526  0.4323  2.4802  0.0309
 3803SOL     OW14300   1.122   7.756   8.055 -0.8189  0.1581  0.6373
 3803SOL    HW114301   1.093   7.693   7.989 -1.8098  1.5991 -0.3847
 3803SOL    HW214302   1.058   7.747   8.126 -1.3194  0.4062  0.2272
 3804SOL     OW14303   0.316   1.438   3.568 -0.3985  0.2156 -0.1297
 3804SOL    HW114304   0.386   1.436   3.634  0.2805  3.6179 -0.5998
 3804SOL    HW214305   0.246   1.489   3.609 -1.9513 -1.5432 -0.4072
 3805SOL     OW14306   6.449   1.155   3.969  0.2854  0.4428 -0.1623
 3805SOL    HW114307   6.420   1.135   3.880  0.3870 -2.6954  0.3860
 3805SOL    HW214308   6.494   1.075   3.998  1.9400  2.0376  2.0550
 3806SOL     OW14309   8.567   5.221   2.419 -0.4815  0.8700 -0.6122
 3806SOL    HW114310   8.621   5.186   2.348  0.1068  0.7604 -0.1195
 3806SOL    HW214311   8.600   5.310   2.432  0.5813  0.3311  0.6494
 3807SOL     OW14312   1.709   4.415   5.819 -0.2374  0.3706  0.5719
 3807SOL    HW114313   1.629   4.406   5.872 -0.0158  1.6866  1.1607
 3807SOL    HW214314   1.685   4.475   5.749 -0.4505 -1.1644 -0.7317
 3808SOL     OW14315   5.146   4.286   2.504  0.2576 -0.0612  0.4193
 3808SOL    HW114316   5.110   4.342   2.573 -1.6665 -1.4304  0.6215
 3808SOL    HW214317   5.210   4.341   2.459 -1.3180  2.2098  0.7807
 3809SOL     OW14318   5.052   6.344   3.960  0.5401  0.6829  0.0358
 3809SOL    HW114319   4.981   6.407   3.964 -0.1147 -0.0860  1.3027
 3809SOL    HW214320   5.029   6.285   3.888  2.3087  3.1227 -2.7434
 3810SOL     OW14321   4.200   6.250   1.921 -0.5011 -0.3581  0.2278
 3810SOL    HW114322   4.146   6.184   1.878  1.2982 -1.3757 -0.5718
 3810SOL    HW214323   4.227   6.210   2.004 -0.5267 -0.0610  0.3844
 3811SOL     OW14324   2.345   7.922   1.223  0.0248  0.5093  0.9610
 3811SOL    HW114325   2.313   7.906   1.134 -0.5428  2.2327  0.8161
 3811SOL    HW214326   2.316   7.845   1.273 -0.7060  0.0841 -0.0792
 3812SOL     OW14327   0.268   2.455   4.222  0.0244  0.2044  0.3354
 3812SOL    HW114328   0.192   2.422   4.174 -0.1048 -0.1382  0.7663
 3812SOL    HW214329   0.314   2.376   4.251  1.6418  0.3634 -1.5841
 3813SOL     OW14330   8.256   0.503   3.593 -0.0050  0.0461  0.1859
 3813SOL    HW114331   8.267   0.546   3.678 -1.9694 -2.2106  1.7177
 3813SOL    HW214332   8.171   0.459   3.599  0.3250 -1.1647 -2.5331
 3814SOL     OW14333   4.905   0.555   4.820  0.2641  0.0873  0.1103
 3814SOL    HW114334   4.902   0.650   4.825 -0.6827  0.0847 -0.2890
 3814SOL    HW214335   4.985   0.535   4.772 -0.7261  0.7701 -1.9213
 3815SOL     OW14336   0.630   1.530   4.811  0.6102  0.4051  0.5253
 3815SOL    HW114337   0.700   1.502   4.751 -0.6413 -0.5111 -0.5920
 3815SOL    HW214338   0.573   1.453   4.817  0.4019  0.6810  2.4870
 3816SOL     OW14339   2.352   2.694   9.412  0.2963 -0.3685  0.5126
 3816SOL    HW114340   2.434   2.718   9.369  0.7862  0.6803  1.9471
 3816SOL    HW214341   2.353   2.599   9.415  0.2111 -0.4992 -1.7756
 3817SOL     OW14342   7.132   5.080   4.976 -0.2098  0.1487 -0.0867
 3817SOL    HW114343   7.215   5.089   5.022 -1.0060 -0.8353  1.6399
 3817SOL    HW214344   7.107   5.170   4.953  1.6170  0.4088 -1.2680
 3818SOL     OW14345   5.626   9.166   6.892 -0.0349  0.2048  0.1486
 3818SOL    HW114346   5.606   9.169   6.986  0.8493 -3.1354  0.5839
 3818SOL    HW214347   5.545   9.195   6.850 -1.5470 -1.1013  1.9458
 3819SOL     OW14348   8.198   9.223   4.446 -0.5998  0.1628  0.2445
 3819SOL    HW114349   8.256   9.248   4.374 -1.0208  0.6051  0.0560
 3819SOL    HW214350   8.253   9.230   4.524 -0.2714  0.1352  0.0176
 3820SOL     OW14351   5.108   8.334   2.151 -0.0756  0.1662  0.1316
 3820SOL    HW114352   5.085   8.308   2.061  3.0698 -0.0598 -0.7343
 3820SOL    HW214353   5.095   8.254   2.203 -1.0033  0.0339 -0.2753
 3821SOL     OW14354   1.201   2.465   0.558  0.7822 -0.5944  0.0021
 3821SOL    HW114355   1.193   2.373   0.535 -0.1653 -0.5647  0.1927
 3821SOL    HW214356   1.135   2.509   0.504  1.4218  0.0135 -0.3059
 3822SOL     OW14357   6.093   2.889   5.728  0.0713 -0.1760 -0.5954
 3822SOL    HW114358   6.037   2.863   5.801  0.3696  1.6683  0.3516
 3822SOL    HW214359   6.035   2.886   5.652 -0.5705 -0.9667 -0.0959
 3823SOL     OW14360   8.757   3.916   3.491  0.4401  0.6257  0.7186
 3823SOL    HW114361   8.696   3.935   3.419 -0.5601  1.5120  1.7508
 3823SOL    HW214362   8.769   4.001   3.534 -1.1718 -0.3113  3.2321
 3824SOL     OW14363   3.149   5.231   7.158 -0.3876 -0.5636 -0.2304
 3824SOL    HW114364   3.184   5.153   7.202 -0.4058 -0.6634 -0.3910
 3824SOL    HW214365   3.097   5.275   7.225 -0.7551 -0.9337 -0.2681
 3825SOL     OW14366   6.274   7.525   4.726 -0.2806  0.3492  0.2554
 3825SOL    HW114367   6.178   7.528   4.727 -0.3811  4.8737 -0.3765
 3825SOL    HW214368   6.299   7.587   4.658  3.2230 -1.8614 -0.7457
 3826SOL     OW14369   8.816   5.528   2.957  0.7732 -0.3362  0.3793
 3826SOL    HW114370   8.893   5.560   2.910  1.1898 -0.6589  0.8249
 3826SOL    HW214371   8.747   5.522   2.891  0.7943  1.0767  0.2015
 3827SOL     OW14372   6.446   7.084   2.380 -0.2371 -0.1971  0.1705
 3827SOL    HW114373   6.483   7.055   2.463 -2.0357  0.0856  1.1228
 3827SOL    HW214374   6.520   7.084   2.319  0.8989 -1.5155  1.4730
 3828SOL     OW14375   6.329   8.338   8.797  0.1252  0.1949  0.1970
 3828SOL    HW114376   6.410   8.378   8.829  0.3666  1.5911 -1.9286
 3828SOL    HW214377   6.337   8.246   8.821  0.2507  1.0096  3.9622
 3829SOL     OW14378   8.110   2.399   7.927  0.2427  0.0137  0.0486
 3829SOL    HW114379   8.061   2.321   7.956  1.7651 -1.1111 -0.2348
 3829SOL    HW214380   8.197   2.386   7.964  1.0781  0.6180 -1.6246
 3830SOL     OW14381   4.664   8.404   7.643 -0.4157  0.3132  0.7227
 3830SOL    HW114382   4.638   8.493   7.617 -0.2323  0.0936 -0.2528
 3830SOL    HW214383   4.583   8.353   7.638 -0.0769 -0.1264 -1.2475
 3831SOL     OW14384   2.221   7.163   6.148 -0.1454 -0.0430  0.0284
 3831SOL    HW114385   2.215   7.212   6.066 -1.8680  1.0890  0.7772
 3831SOL    HW214386   2.141   7.112   6.151 -1.1018  1.4413  1.8922
 3832SOL     OW14387   5.402   3.962   1.408 -0.2970 -0.1261  0.1324
 3832SOL    HW114388   5.325   3.943   1.462 -0.9150  1.0577 -0.2803
 3832SOL    HW214389   5.466   3.999   1.469 -1.2668  1.9170  0.0052
 3833SOL     OW14390   2.014   3.621   0.329 -0.2040  0.3210  0.1169
 3833SOL    HW114391   2.061   3.598   0.408 -0.8460  0.7312  0.6344
 3833SOL    HW214392   1.997   3.538   0.285 -0.2522  0.0468  0.6514
 3834SOL     OW14393   1.832   3.258   0.925  0.2142  0.4068 -0.2460
 3834SOL    HW114394   1.922   3.255   0.956  0.1313 -1.0917 -0.0800
 3834SOL    HW214395   1.779   3.263   1.005  0.1379  1.9962 -0.3587
 3835SOL     OW14396   4.644   7.275   7.640 -0.7427  0.2549  0.0315
 3835SOL    HW114397   4.738   7.266   7.651 -0.4409  1.3790 -1.4091
 3835SOL    HW214398   4.630   7.281   7.546 -2.3533 -0.6432  0.1542
 3836SOL     OW14399   4.052   5.706   0.392 -0.5721 -0.1081 -0.1585
 3836SOL    HW114400   4.043   5.706   0.488 -0.6851  0.6024 -0.1629
 3836SOL    HW214401   3.971   5.746   0.361  0.5497  2.0757 -0.4201
 3837SOL     OW14402   2.795   8.602   0.325  0.0331  0.0048  0.3415
 3837SOL    HW114403   2.876   8.581   0.279 -0.0448 -1.0974  0.6839
 3837SOL    HW214404   2.815   8.682   0.373 -0.6095  2.6993 -3.4226
 3838SOL     OW14405   3.435   2.472   2.964  0.1081 -0.2150 -0.1201
 3838SOL    HW114406   3.399   2.526   2.894  1.6498 -0.8823 -1.4940
 3838SOL    HW214407   3.489   2.532   3.015  2.0824 -0.4373 -1.8319
 3839SOL     OW14408   4.023   7.661   9.076  0.5282 -0.5694  0.0315
 3839SOL    HW114409   4.081   7.595   9.038  0.9890 -0.9637  1.3571
 3839SOL    HW214410   3.964   7.611   9.132 -0.6820 -0.0916 -0.7863
 3840SOL     OW14411   1.214   2.184   6.192  0.3290  0.5595 -0.0005
 3840SOL    HW114412   1.260   2.258   6.151  0.2655  0.9712  0.6471
 3840SOL    HW214413   1.124   2.214   6.201  0.6878  1.2409  2.0903
 3841SOL     OW14414   0.566   3.994   0.613 -0.2573 -0.5900 -0.9213
 3841SOL    HW114415   0.490   4.052   0.612  0.1339 -0.0137  0.4820
 3841SOL    HW214416   0.536   3.915   0.657  0.0158 -0.2529 -0.1147
 3842SOL     OW14417   8.516   0.961   1.159 -0.2492  0.0966 -0.0421
 3842SOL    HW114418   8.538   0.921   1.075 -0.6634 -0.8142  0.2807
 3842SOL    HW214419   8.525   0.891   1.223  3.5336  1.5149  1.2707
 3843SOL     OW14420   2.929   8.722   4.003  0.5295 -0.3564 -0.0897
 3843SOL    HW114421   2.944   8.678   4.087  1.7318 -1.2277 -0.7316
 3843SOL    HW214422   3.003   8.782   3.995  1.6299 -1.8175 -1.4717
 3844SOL     OW14423   2.225   9.084   3.150 -0.2381 -0.2600  0.7864
 3844SOL    HW114424   2.284   9.096   3.076 -0.5649  1.4780  0.7657
 3844SOL    HW214425   2.138   9.106   3.115 -0.3081  1.2437  1.8046
 3845SOL     OW14426   1.475   7.305   3.707  0.4409 -0.4857 -0.3923
 3845SOL    HW114427   1.393   7.337   3.743  1.4997 -0.1717  1.8843
 3845SOL    HW214428   1.486   7.218   3.745  0.6147 -1.0217 -1.6114
 3846SOL     OW14429   3.304   3.327   3.367 -0.0840  0.7440  0.2847
 3846SOL    HW114430   3.267   3.408   3.404 -0.3280  0.0110  1.7483
 3846SOL    HW214431   3.262   3.318   3.282 -1.3080  1.3155  0.8020
 3847SOL     OW14432   1.285   0.557   5.775  0.8654 -0.7603 -0.5261
 3847SOL    HW114433   1.336   0.566   5.856 -2.2784  1.6522  1.4334
 3847SOL    HW214434   1.257   0.466   5.774  2.4030 -1.2672  0.1407
 3848SOL     OW14435   1.192   0.996   2.325  0.3880 -0.3495 -0.5417
 3848SOL    HW114436   1.201   0.901   2.324  0.2436 -0.3621 -1.9162
 3848SOL    HW214437   1.275   1.027   2.362 -0.0834 -1.0302  1.1874
 3849SOL     OW14438   5.717   8.579   1.397  0.3474  0.0474  0.0825
 3849SOL    HW114439   5.668   8.524   1.458 -1.3262  2.0005  0.5994
 3849SOL    HW214440   5.709   8.534   1.313 -0.7778 -0.6108  0.5235
 3850SOL     OW14441   6.538   3.033   1.578  0.1261  1.0607  0.8093
 3850SOL    HW114442   6.569   3.092   1.647 -0.2643  1.9686  0.2318
 3850SOL    HW214443   6.523   3.090   1.503 -3.3771  0.7824  1.1357
 3851SOL     OW14444   0.403   2.830   3.158  0.2330  0.1997  0.5071
 3851SOL    HW114445   0.455   2.815   3.080 -0.8258  1.2523 -0.4280
 3851SOL    HW214446   0.465   2.861   3.224  0.6495  2.6893 -0.9544
 3852SOL     OW14447   7.902   4.977   8.669 -0.3569 -0.4118 -0.6415
 3852SOL    HW114448   7.880   5.066   8.642  0.6309 -0.3119 -1.1714
 3852SOL    HW214449   7.846   4.961   8.745 -0.2506  0.8180 -0.2765
 3853SOL     OW14450   2.900   5.894   0.787 -0.3387  0.3922 -0.3725
 3853SOL    HW114451   2.876   5.871   0.697 -1.6122 -1.6894  0.4194
 3853SOL    HW214452   2.896   5.811   0.835 -2.4456  1.7872  2.1832
 3854SOL     OW14453   4.417   8.133   7.347  0.5725  0.5209 -0.6358
 3854SOL    HW114454   4.386   8.133   7.256 -0.2686  0.8706 -0.3505
 3854SOL    HW214455   4.457   8.047   7.358  2.3551  1.1103 -1.8932
 3855SOL     OW14456   4.618   6.932   1.085  0.0276 -0.3274  0.9096
 3855SOL    HW114457   4.701   6.930   1.039  1.0695 -1.5138  2.7223
 3855SOL    HW214458   4.641   6.928   1.178 -2.0477 -3.3988  1.4592
 3856SOL     OW14459   7.578   3.880   0.840 -0.2712  0.2591  0.2274
 3856SOL    HW114460   7.607   3.790   0.835 -1.9902 -0.3195 -0.1144
 3856SOL    HW214461   7.514   3.881   0.911  0.2916  1.3958  0.7601
 3857SOL     OW14462   4.362   0.611   1.217  0.1564  0.0818  0.2757
 3857SOL    HW114463   4.367   0.526   1.173  0.9974 -0.2991  1.0586
 3857SOL    HW214464   4.347   0.588   1.309  1.7000  0.7055  0.7197
 3858SOL     OW14465   5.100   0.634   1.244  0.7480 -0.0887  0.0375
 3858SOL    HW114466   5.048   0.680   1.178 -0.1331  0.0343  0.7962
 3858SOL    HW214467   5.123   0.551   1.203 -0.6327 -0.4367 -0.0855
 3859SOL     OW14468   2.937   5.981   2.722 -0.0807 -0.1616 -0.1257
 3859SOL    HW114469   2.989   6.061   2.723  0.5446 -0.5640  0.2451
 3859SOL    HW214470   2.855   6.006   2.680 -0.3619  0.9645  1.0118
 3860SOL     OW14471   7.970   5.079   4.372  0.0344 -0.6340 -0.0976
 3860SOL    HW114472   7.911   5.023   4.423 -0.5183  0.3769  0.4083
 3860SOL    HW214473   7.950   5.058   4.281 -0.7414 -0.6866  0.0730
 3861SOL     OW14474   3.421   8.837   9.489 -0.2601 -0.2977 -0.0238
 3861SOL    HW114475   3.330   8.849   9.462  0.3463  1.5022 -1.4424
 3861SOL    HW214476   3.424   8.869   9.579 -0.5479  2.2560 -0.8372
 3862SOL     OW14477   9.213   9.101   0.790 -0.0017  0.4338  0.6761
 3862SOL    HW114478   9.301   9.118   0.825  0.3123  0.3402 -0.0465
 3862SOL    HW214479   9.180   9.029   0.845  0.7939 -0.2499  0.2971
 3863SOL     OW14480   1.782   8.524   8.400 -0.5437  0.0937 -0.6101
 3863SOL    HW114481   1.691   8.498   8.389 -0.3084 -1.0525 -0.0411
 3863SOL    HW214482   1.794   8.529   8.495  0.3220 -1.0914 -0.6364
 3864SOL     OW14483   4.316   5.683   7.627  0.1628  0.2886  0.1137
 3864SOL    HW114484   4.235   5.723   7.596  0.9417  0.7993 -1.3971
 3864SOL    HW214485   4.310   5.592   7.601 -0.0140  0.2833  0.1774
 3865SOL     OW14486   9.622   8.125   2.211  0.2821 -0.0158 -0.0442
 3865SOL    HW114487   9.622   8.215   2.245 -0.2113  0.0587 -0.2347
 3865SOL    HW214488   9.699   8.122   2.154  0.3706  0.2497  0.0548
 3866SOL     OW14489   7.416   5.115   4.542  0.1797  0.5265  0.1517
 3866SOL    HW114490   7.326   5.114   4.575  0.1429  0.3718  0.0468
 3866SOL    HW214491   7.470   5.092   4.618  0.0170 -0.9022 -0.1454
 3867SOL     OW14492   3.268   5.891   5.344 -0.2792  0.0287  0.1131
 3867SOL    HW114493   3.220   5.888   5.261  1.2362  0.9173 -0.8486
 3867SOL    HW214494   3.214   5.944   5.402 -0.3662  1.2363 -1.0214
 3868SOL     OW14495   3.915   6.132   7.126 -0.0414 -0.3994  0.0255
 3868SOL    HW114496   3.824   6.144   7.102 -0.6037 -0.9551  1.7495
 3868SOL    HW214497   3.913   6.073   7.202  1.7640 -0.7006 -0.1046
 3869SOL     OW14498   1.232   2.360   4.365 -0.0972  0.2558 -0.1535
 3869SOL    HW114499   1.300   2.292   4.363 -1.9558 -1.6893 -0.1653
 3869SOL    HW214500   1.159   2.322   4.317 -2.4722  0.7824  2.7857
 3870SOL     OW14501   0.197   5.686   1.970 -0.0873 -0.6443 -0.4964
 3870SOL    HW114502   0.204   5.689   2.066 -0.0488 -2.2485 -0.4240
 3870SOL    HW214503   0.206   5.777   1.943  1.9066 -0.3648  0.8933
 3871SOL     OW14504   1.011   7.943   0.867 -0.2379 -0.2520 -0.2390
 3871SOL    HW114505   1.084   7.916   0.923 -0.9064 -0.5069  0.5235
 3871SOL    HW214506   0.960   8.004   0.920 -0.0742  0.6662 -1.1012
 3872SOL     OW14507   1.093   7.100   4.054  0.2754 -0.8261  0.1021
 3872SOL    HW114508   1.005   7.102   4.090  0.4274 -3.8056  0.8720
 3872SOL    HW214509   1.081   7.083   3.961 -0.0100 -2.7064  0.4429
 3873SOL     OW14510   7.462   3.119   1.700  0.4387 -0.2565  0.5132
 3873SOL    HW114511   7.486   3.091   1.788  0.7792 -0.4510  0.3604
 3873SOL    HW214512   7.366   3.123   1.701  0.4364 -0.3896  0.8525
 3874SOL     OW14513   0.846   5.426   6.077  0.0858  0.1016  0.3556
 3874SOL    HW114514   0.923   5.400   6.026  2.3738  3.5277  1.7012
 3874SOL    HW214515   0.787   5.351   6.071  2.7265 -2.0016 -2.2790
 3875SOL     OW14516   5.556   6.341   4.363 -0.0654  0.3367  0.2389
 3875SOL    HW114517   5.604   6.423   4.375 -1.5941  1.4094 -0.6367
 3875SOL    HW214518   5.545   6.333   4.268 -1.6177  0.1678  0.4051
 3876SOL     OW14519   7.505   2.581   1.418  0.4874  0.0015  0.3079
 3876SOL    HW114520   7.584   2.633   1.401  1.3679 -0.7092  2.0384
 3876SOL    HW214521   7.535   2.508   1.472 -1.7869  1.3253  3.6650
 3877SOL     OW14522   0.756   5.277   2.914 -0.4322  0.3619 -0.3289
 3877SOL    HW114523   0.813   5.347   2.883 -1.7371  1.1175 -1.1291
 3877SOL    HW214524   0.671   5.295   2.873 -2.0162  0.8571  2.8522
 3878SOL     OW14525   7.595   8.827   7.377 -0.4502 -0.0054 -0.0795
 3878SOL    HW114526   7.508   8.803   7.343  0.8566 -0.4365 -3.5821
 3878SOL    HW214527   7.623   8.899   7.320  1.4419  0.1929  1.0409
 3879SOL     OW14528   8.470   2.262   5.688 -1.0418 -0.1373  0.1101
 3879SOL    HW114529   8.536   2.220   5.633 -0.7570  0.4833 -0.0280
 3879SOL    HW214530   8.479   2.220   5.773 -1.4795 -1.1038 -0.2985
 3880SOL     OW14531   4.069   5.836   1.953 -0.2055 -0.6516 -0.7191
 3880SOL    HW114532   4.037   5.746   1.958 -0.4842 -0.4746  1.2606
 3880SOL    HW214533   3.990   5.888   1.938 -0.6775 -0.4269  1.9978
 3881SOL     OW14534   3.312   0.729   0.352  0.0044  0.3332  0.1618
 3881SOL    HW114535   3.386   0.772   0.311 -0.9317  1.4250 -0.4298
 3881SOL    HW214536   3.269   0.681   0.281 -1.0952  1.4856  0.0174
 3882SOL     OW14537   6.805   6.358   0.769 -0.0329 -0.4128  0.1414
 3882SOL    HW114538   6.740   6.303   0.811 -0.1708  0.8085  1.6234
 3882SOL    HW214539   6.871   6.373   0.836  0.1871  0.9114 -0.3353
 3883SOL     OW14540   6.394   8.822   0.280 -0.2630  0.1430  0.3139
 3883SOL    HW114541   6.411   8.901   0.227  1.9017  0.5607  1.5255
 3883SOL    HW214542   6.471   8.768   0.267 -1.3535 -1.4540  0.1872
 3884SOL     OW14543   3.666   5.121   5.117 -0.3414  0.6066  0.3775
 3884SOL    HW114544   3.699   5.035   5.144  0.4738  0.6760 -0.3589
 3884SOL    HW214545   3.745   5.176   5.111 -0.8221  1.3290  0.5418
 3885SOL     OW14546   7.086   2.774   7.340 -0.1721  0.1307 -0.5339
 3885SOL    HW114547   7.094   2.696   7.394 -3.2974  1.1120  1.6418
 3885SOL    HW214548   7.136   2.841   7.386 -1.0155  0.4238 -0.0237
 3886SOL     OW14549   3.642   8.985   9.380  0.0577 -0.9572 -0.4410
 3886SOL    HW114550   3.592   9.062   9.354  1.3640  0.6795  1.5880
 3886SOL    HW214551   3.576   8.917   9.395 -1.0209 -0.7896 -3.6477
 3887SOL     OW14552   1.640   5.441   6.332  0.0842 -0.3929  0.0676
 3887SOL    HW114553   1.548   5.449   6.357  0.2702  0.9230  0.3876
 3887SOL    HW214554   1.683   5.518   6.371  0.9104  0.2167 -1.9102
 3888SOL     OW14555   4.391   1.739   2.098  0.0588 -0.5552 -0.0849
 3888SOL    HW114556   4.419   1.655   2.134 -0.1101  0.0735  1.5646
 3888SOL    HW214557   4.472   1.786   2.081  0.2501 -1.6058 -2.5794
 3889SOL     OW14558   2.041   9.129   3.806  0.7090 -0.1520 -0.4169
 3889SOL    HW114559   2.084   9.150   3.723  0.7367  0.5779 -0.2229
 3889SOL    HW214560   1.973   9.066   3.783  2.0536 -1.5587 -0.6918
 3890SOL     OW14561   2.494   4.305   1.433  0.0094 -0.4682  0.1814
 3890SOL    HW114562   2.476   4.353   1.514 -0.5626 -1.2699  0.5445
 3890SOL    HW214563   2.461   4.216   1.450 -0.6564 -0.4945 -1.1370
 3891SOL     OW14564   2.642   5.511   6.746  0.1850 -0.1388 -0.3651
 3891SOL    HW114565   2.728   5.470   6.745  0.3390  0.1125  0.8513
 3891SOL    HW214566   2.604   5.489   6.662  0.4581 -2.3291  0.0431
 3892SOL     OW14567   8.476   0.103   1.474 -0.7785 -0.3298  0.7646
 3892SOL    HW114568   8.441   0.109   1.563  1.5399 -1.3974  1.8275
 3892SOL    HW214569   8.571   0.098   1.486 -0.3282  0.4108 -1.8394
 3893SOL     OW14570   7.466   9.119   6.158 -0.0049  0.2467 -0.4829
 3893SOL    HW114571   7.512   9.044   6.121  0.5948  0.8301 -0.9438
 3893SOL    HW214572   7.428   9.086   6.239 -1.3328 -1.0690 -1.5703
 3894SOL     OW14573   9.485   1.653   1.504 -0.2513 -0.1309 -0.2514
 3894SOL    HW114574   9.395   1.638   1.534  0.2505  0.4515  1.7407
 3894SOL    HW214575   9.532   1.573   1.528 -0.2664 -0.5335 -1.5086
 3895SOL     OW14576   9.433   8.134   2.893 -0.5057  0.1760 -0.2625
 3895SOL    HW114577   9.527   8.136   2.876 -0.4857  0.9398 -0.0764
 3895SOL    HW214578   9.393   8.134   2.806 -0.3347 -0.4181 -0.3458
 3896SOL     OW14579   3.944   7.070   2.665  0.3207  0.9440  0.3538
 3896SOL    HW114580   3.931   6.989   2.715 -1.8430  1.3900  0.5926
 3896SOL    HW214581   4.019   7.112   2.708  0.7304 -0.3518  0.9734
 3897SOL     OW14582   8.305   7.569   9.409  0.3547  0.2666 -0.2036
 3897SOL    HW114583   8.378   7.539   9.463  0.4738 -0.4603 -0.7562
 3897SOL    HW214584   8.314   7.520   9.327  0.3405  1.5567 -0.9959
 3898SOL     OW14585   4.743   9.426   3.164  0.0278  0.0454  0.2366
 3898SOL    HW114586   4.744   9.332   3.181  2.8213  0.1639  1.2603
 3898SOL    HW214587   4.725   9.466   3.250  0.5498  0.4460  0.1679
 3899SOL     OW14588   3.248   0.478   1.340  0.2893 -0.1708  0.3431
 3899SOL    HW114589   3.280   0.467   1.250 -1.1061  0.3805 -0.2365
 3899SOL    HW214590   3.316   0.436   1.394  2.1699  1.2452 -0.7960
 3900SOL     OW14591   6.095   5.350   2.579  0.3760 -0.4847  0.2298
 3900SOL    HW114592   6.110   5.291   2.653  0.9751  1.0320  1.3703
 3900SOL    HW214593   6.030   5.413   2.610 -0.6573 -0.7969 -1.1479
 3901SOL     OW14594   7.374   4.456   0.443 -0.0568 -0.2725  0.2908
 3901SOL    HW114595   7.374   4.440   0.537  0.7745 -0.3342  0.2872
 3901SOL    HW214596   7.371   4.369   0.403  0.5843 -0.2863  0.2654
 3902SOL     OW14597   9.237   1.983   1.658 -0.1887 -0.4018 -0.0315
 3902SOL    HW114598   9.175   1.967   1.586 -0.9957  0.4737  0.4346
 3902SOL    HW214599   9.323   1.986   1.616 -0.5000 -1.1964 -0.7625
 3903SOL     OW14600   8.303   7.301   0.758 -0.5719  0.5416  0.2529
 3903SOL    HW114601   8.289   7.365   0.828 -0.3554  0.5876  0.2546
 3903SOL    HW214602   8.238   7.233   0.774 -2.6965  2.0667 -1.3101
 3904SOL     OW14603   4.222   1.857   3.594 -0.0914  0.0936 -0.0389
 3904SOL    HW114604   4.317   1.848   3.584 -0.0368  0.6603 -0.0707
 3904SOL    HW214605   4.190   1.879   3.507 -0.0075  1.8038  0.3317
 3905SOL     OW14606   3.080   7.238   5.103  0.1916  0.5419 -0.1706
 3905SOL    HW114607   3.121   7.183   5.036  1.0773  0.8317  0.1245
 3905SOL    HW214608   3.023   7.179   5.151 -0.8688  0.4322 -1.5062
 3906SOL     OW14609   2.546   5.950   3.487  0.4372 -0.2641  0.0460
 3906SOL    HW114610   2.608   6.018   3.459  0.5273  0.1929  1.2791
 3906SOL    HW214611   2.554   5.949   3.583 -0.9957 -0.6462  0.1792
 3907SOL     OW14612   7.613   4.593   1.017 -0.0970 -0.0314 -0.0617
 3907SOL    HW114613   7.575   4.510   1.047  1.4393 -0.5562  0.5222
 3907SOL    HW214614   7.615   4.648   1.095  0.1980  0.0380 -0.1155
 3908SOL     OW14615   6.938   7.115   5.306 -0.7283  0.4270 -0.1307
 3908SOL    HW114616   6.983   7.086   5.226 -1.4695 -1.7139  0.1755
 3908SOL    HW214617   6.856   7.153   5.275  0.1576  2.1310 -0.5230
 3909SOL     OW14618   2.159   3.822   8.716 -0.9655  0.1533 -0.2295
 3909SOL    HW114619   2.188   3.730   8.722  0.4080  0.6104  0.7976
 3909SOL    HW214620   2.170   3.844   8.623 -1.6783 -0.8240 -0.5629
 3910SOL     OW14621   9.312   9.448   3.109  0.0515 -0.4459 -0.1042
 3910SOL    HW114622   9.331   9.441   3.203  1.3448  1.0441 -0.2229
 3910SOL    HW214623   9.382   9.398   3.067  0.9142  0.9144 -0.3433
 3911SOL     OW14624   0.159   2.386   5.605  0.1200  0.0047 -0.1180
 3911SOL    HW114625   0.102   2.322   5.562 -0.5433  0.0820  0.6349
 3911SOL    HW214626   0.212   2.422   5.534  1.1410 -2.0062 -0.4490
 3912SOL     OW14627   0.769   9.294   3.618 -0.3042 -0.2750  0.1785
 3912SOL    HW114628   0.710   9.219   3.609 -1.6592  0.8944 -1.4272
 3912SOL    HW214629   0.732   9.344   3.691 -0.9082  0.0760 -0.3516
 3913SOL     OW14630   3.421   3.135   8.845  0.3089  0.1412 -0.0118
 3913SOL    HW114631   3.341   3.133   8.793  0.2120  2.6615 -0.1220
 3913SOL    HW214632   3.422   3.052   8.893 -1.5299 -0.6178 -1.1918
 3914SOL     OW14633   6.579   5.415   8.683 -0.2266  0.8253  0.0425
 3914SOL    HW114634   6.576   5.320   8.687 -0.5507  0.8569  0.8040
 3914SOL    HW214635   6.545   5.444   8.768  2.3552  1.5775  0.9112
 3915SOL     OW14636   9.421   5.069   6.049 -0.2911 -0.4553  0.0201
 3915SOL    HW114637   9.450   5.023   6.128  0.8911  0.2616  0.0345
 3915SOL    HW214638   9.459   5.019   5.977 -0.6919 -0.6460 -0.0606
 3916SOL     OW14639   7.887   2.169   3.064  0.1541 -0.2184 -0.5308
 3916SOL    HW114640   7.859   2.122   2.986 -3.3792 -0.5326  0.7443
 3916SOL    HW214641   7.860   2.260   3.049  0.9675  0.0649 -0.3312
 3917SOL     OW14642   2.805   3.043   1.599 -0.8562  0.1456  0.9824
 3917SOL    HW114643   2.812   3.130   1.638  0.5557  1.3336 -1.6651
 3917SOL    HW214644   2.885   3.032   1.549 -2.5490 -1.1132 -1.7049
 3918SOL     OW14645   4.441   2.829   9.038  0.2479  0.1317 -0.1665
 3918SOL    HW114646   4.464   2.921   9.044  1.9782 -0.2888  0.2570
 3918SOL    HW214647   4.493   2.786   9.107 -0.7369 -1.1195 -0.1542
 3919SOL     OW14648   8.544   0.004   2.748 -0.0445 -0.4729 -0.0430
 3919SOL    HW114649   8.529  -0.053   2.823  1.2990  0.4054  0.9252
 3919SOL    HW214650   8.558  -0.057   2.674 -0.6278 -1.3475  0.5443
 3920SOL     OW14651   5.113   3.190   0.197  0.5993 -0.2678 -0.2997
 3920SOL    HW114652   5.129   3.240   0.277 -1.0844  1.1900 -0.8275
 3920SOL    HW214653   5.086   3.103   0.228  1.1075 -0.0926  0.6728
 3921SOL     OW14654   1.090   5.968   5.579 -0.6345 -0.4000 -0.3629
 3921SOL    HW114655   1.102   5.966   5.484 -1.0232  0.1993 -0.4367
 3921SOL    HW214656   0.995   5.970   5.591 -0.5969  1.1307 -0.0339
 3922SOL     OW14657   6.586   3.559   5.565 -0.0308  0.8118  0.8803
 3922SOL    HW114658   6.551   3.531   5.480  2.2376 -0.4189  0.2762
 3922SOL    HW214659   6.512   3.548   5.625 -0.7921 -1.5054 -0.3342
 3923SOL     OW14660   7.629   8.702   9.052 -0.0265  0.6189 -0.7522
 3923SOL    HW114661   7.716   8.713   9.090 -0.9414 -0.4031  1.9201
 3923SOL    HW214662   7.606   8.611   9.072 -2.3988  1.3646  0.2875
 3924SOL     OW14663   4.780   7.749   7.289 -0.1698 -0.1677 -0.2699
 3924SOL    HW114664   4.816   7.720   7.205 -0.1457 -0.0732 -0.2933
 3924SOL    HW214665   4.739   7.672   7.326 -0.4661 -0.1304 -0.5180
 3925SOL     OW14666   7.031   2.199   0.451  0.0636  0.1124  0.6928
 3925SOL    HW114667   7.095   2.128   0.461 -1.1739 -0.7930  2.9175
 3925SOL    HW214668   7.078   2.278   0.478  1.1789  0.0731 -0.9372
 3926SOL     OW14669   6.013   2.799   2.280 -0.0940  0.4586  0.3527
 3926SOL    HW114670   6.036   2.762   2.195  0.0390  2.0210 -0.3294
 3926SOL    HW214671   5.930   2.756   2.302 -0.4498  0.4695 -0.8579
 3927SOL     OW14672   7.299   2.285   4.347 -0.0368 -0.0867  0.0990
 3927SOL    HW114673   7.268   2.368   4.312 -0.8652 -0.7936 -0.8812
 3927SOL    HW214674   7.222   2.246   4.389  0.6730  0.2451  1.8115
 3928SOL     OW14675   7.316   6.481   3.461  0.2339  0.3131 -0.0665
 3928SOL    HW114676   7.327   6.540   3.387  1.6963  0.4097  0.1964
 3928SOL    HW214677   7.391   6.499   3.518  0.6018 -1.5985  0.1410
 3929SOL     OW14678   7.741   5.283   9.465 -0.3492  0.0483  0.2503
 3929SOL    HW114679   7.674   5.246   9.407  0.0509 -1.4024  0.6896
 3929SOL    HW214680   7.798   5.332   9.406 -1.5139  0.9377 -0.1956
 3930SOL     OW14681   8.881   6.563   7.669  0.5563  0.2658  0.1829
 3930SOL    HW114682   8.893   6.601   7.756  0.8258 -0.2824  0.3908
 3930SOL    HW214683   8.962   6.515   7.653 -0.3275 -1.4109  0.5496
 3931SOL     OW14684   5.489   3.644   5.343 -0.1910  0.0466 -0.0497
 3931SOL    HW114685   5.427   3.626   5.272 -1.3260  0.7330  0.7391
 3931SOL    HW214686   5.500   3.559   5.387 -1.5539  0.1541  0.5485
 3932SOL     OW14687   0.763   2.687   1.235  0.2790  0.6338  0.3889
 3932SOL    HW114688   0.757   2.774   1.196 -0.2923 -0.2609 -1.6299
 3932SOL    HW214689   0.857   2.666   1.232  0.3544  0.9566  0.4150
 3933SOL     OW14690   4.377   5.291   7.827 -0.4469  0.0345  0.1290
 3933SOL    HW114691   4.405   5.206   7.861  0.3864  0.1385 -0.2657
 3933SOL    HW214692   4.457   5.343   7.825 -0.8113  0.5873 -0.3446
 3934SOL     OW14693   5.177   0.060   1.978  0.3115 -0.1329 -0.4125
 3934SOL    HW114694   5.096   0.109   1.990  0.3428 -0.2206  0.1570
 3934SOL    HW214695   5.149  -0.032   1.976  0.1660 -0.0909 -2.1592
 3935SOL     OW14696   8.575   0.891   3.880  0.0813  0.1250 -0.5181
 3935SOL    HW114697   8.519   0.843   3.818 -0.7550 -0.0636  0.3648
 3935SOL    HW214698   8.540   0.980   3.881 -1.3155 -0.3846  1.2726
 3936SOL     OW14699   6.939   7.528   2.015 -0.0008 -0.0192  0.2119
 3936SOL    HW114700   6.991   7.448   2.014 -0.1582 -0.1443 -1.2219
 3936SOL    HW214701   6.991   7.591   2.064 -0.8064 -1.5471  3.2426
 3937SOL     OW14702   1.368   9.174   5.114 -0.4676  0.3622  0.3914
 3937SOL    HW114703   1.429   9.137   5.051 -1.3402 -0.1045 -0.2109
 3937SOL    HW214704   1.401   9.262   5.132 -0.6334  0.8217 -1.3567
 3938SOL     OW14705   0.536   7.891   5.123 -0.1648 -0.4582 -0.6383
 3938SOL    HW114706   0.461   7.867   5.178  0.1069  0.5434  0.2170
 3938SOL    HW214707   0.517   7.982   5.097 -0.5874 -1.0975 -2.7468
 3939SOL     OW14708   5.134   9.077   8.506 -0.0365 -0.2594  0.0097
 3939SOL    HW114709   5.053   9.028   8.518  0.3756 -0.6577  1.2956
 3939SOL    HW214710   5.172   9.040   8.426  1.2243 -3.5343  1.9161
 3940SOL     OW14711   6.570   6.996   2.603 -0.5357  0.1248 -0.5204
 3940SOL    HW114712   6.643   6.963   2.551 -0.8469 -0.8514 -0.3603
 3940SOL    HW214713   6.528   6.917   2.638 -0.6711  0.7342  0.7438
 3941SOL     OW14714   7.340   7.411   0.629  0.1878  0.1911 -0.0225
 3941SOL    HW114715   7.354   7.414   0.723  0.4922  3.0643 -0.0729
 3941SOL    HW214716   7.249   7.441   0.617 -1.1319 -3.4858 -0.5542
 3942SOL     OW14717   9.468   9.163   8.436 -0.1211  0.0741 -0.2606
 3942SOL    HW114718   9.387   9.130   8.399  1.1565 -1.7838 -1.5704
 3942SOL    HW214719   9.450   9.172   8.530 -1.6745 -0.7711 -0.4550
 3943SOL     OW14720   7.395   7.973   2.617 -0.0708 -0.1016 -0.2910
 3943SOL    HW114721   7.325   7.915   2.586  0.7210 -1.8499  1.0398
 3943SOL    HW214722   7.403   7.954   2.710  1.3379  0.9898 -0.1512
 3944SOL     OW14723   2.616   7.036   5.304 -0.2614 -0.3783 -0.1565
 3944SOL    HW114724   2.622   6.947   5.336  0.3512 -0.5640 -0.7653
 3944SOL    HW214725   2.539   7.036   5.247  0.3612 -0.8153 -1.0304
 3945SOL     OW14726   4.668   3.996   6.745  0.2339 -0.4255  0.0389
 3945SOL    HW114727   4.623   4.074   6.778 -0.6700 -0.4583 -1.0397
 3945SOL    HW214728   4.597   3.936   6.721  0.8753 -0.8460 -0.8526
 3946SOL     OW14729   4.265   8.420   4.188 -0.3566  0.6755  0.1354
 3946SOL    HW114730   4.221   8.416   4.273 -0.3353  1.9486  0.2252
 3946SOL    HW214731   4.322   8.343   4.188 -1.2673 -0.0237  0.7456
 3947SOL     OW14732   3.275   4.378   1.705  0.0762 -0.7611  0.3460
 3947SOL    HW114733   3.326   4.451   1.670  0.2137 -0.9876  0.0778
 3947SOL    HW214734   3.334   4.334   1.766  0.9368 -2.2737 -1.4999
 3948SOL     OW14735   1.332   3.396   4.446 -0.2236 -0.0567 -0.8621
 3948SOL    HW114736   1.297   3.326   4.391  0.5981  0.9023 -2.7042
 3948SOL    HW214737   1.279   3.473   4.423 -0.1783  0.2637  0.0564
 3949SOL     OW14738   3.706   3.201   7.485  0.2288  0.5449  0.2539
 3949SOL    HW114739   3.651   3.123   7.486 -0.0777  0.7592  0.1132
 3949SOL    HW214740   3.655   3.268   7.530  0.6233  0.5805  0.6599
 3950SOL     OW14741   6.423   0.776   2.182 -0.4031 -0.4295  0.2811
 3950SOL    HW114742   6.351   0.772   2.119 -0.5890  0.5090  0.4290
 3950SOL    HW214743   6.386   0.742   2.263 -0.3766 -0.9322  0.0843
 3951SOL     OW14744   6.045   1.274   5.479 -0.2810  0.1241  0.1664
 3951SOL    HW114745   6.133   1.302   5.506  0.0064 -0.7951  0.1973
 3951SOL    HW214746   6.041   1.296   5.386 -0.1763  0.5578  0.2604
 3952SOL     OW14747   0.590   8.987   1.154 -0.2765 -0.3696  1.1646
 3952SOL    HW114748   0.536   8.945   1.088 -0.5222 -0.0227  1.1389
 3952SOL    HW214749   0.666   8.930   1.163  0.7507  0.5818 -0.8791
 3953SOL     OW14750   3.224   3.190   4.905 -0.3200 -0.3252  0.1501
 3953SOL    HW114751   3.182   3.111   4.938 -0.6754  0.1025  0.7349
 3953SOL    HW214752   3.210   3.256   4.974 -3.6651  1.4847 -1.9467
 3954SOL     OW14753   4.252   4.777   5.366  0.4896 -0.7398 -0.2411
 3954SOL    HW114754   4.347   4.784   5.373  0.4814 -1.8036  2.1946
 3954SOL    HW214755   4.219   4.841   5.429 -0.4015 -0.7374 -0.6945
 3955SOL     OW14756   0.578   3.371   3.346 -0.1473  0.4332  0.5271
 3955SOL    HW114757   0.535   3.300   3.393 -1.4767 -0.5601 -1.9429
 3955SOL    HW214758   0.505   3.423   3.312  0.3826 -1.0505 -3.4348
 3956SOL     OW14759   0.554   5.265   1.155 -0.4728 -0.0167 -0.6510
 3956SOL    HW114760   0.518   5.177   1.147  0.2215 -0.4577  0.7661
 3956SOL    HW214761   0.573   5.291   1.065 -3.0295 -0.2824 -1.3306
 3957SOL     OW14762   1.661   4.881   2.176  0.1907 -0.3450  0.1615
 3957SOL    HW114763   1.576   4.920   2.196  0.5849 -0.0125  1.3145
 3957SOL    HW214764   1.640   4.804   2.123 -0.7985 -0.0529  0.1051
 3958SOL     OW14765   1.222   6.307   0.040 -0.0199 -0.7037  0.1406
 3958SOL    HW114766   1.258   6.250   0.109  1.6777 -0.2647 -0.3178
 3958SOL    HW214767   1.160   6.364   0.086  2.7765  1.1934  1.9127
 3959SOL     OW14768   9.171   2.302   0.617 -0.1540  0.1475 -0.2139
 3959SOL    HW114769   9.111   2.246   0.567 -0.7868 -0.9000  1.6030
 3959SOL    HW214770   9.120   2.381   0.635  0.4863  1.0782 -2.1442
 3960SOL     OW14771   7.820   7.185   8.715 -0.5456 -0.7731  0.1943
 3960SOL    HW114772   7.773   7.253   8.666 -0.1825  0.7589  1.8753
 3960SOL    HW214773   7.760   7.161   8.785 -0.0377 -1.0371  0.5409
 3961SOL     OW14774   3.846   5.931   2.964 -0.3241 -0.5511 -0.7046
 3961SOL    HW114775   3.836   5.923   3.058  0.3216 -1.3570 -0.6943
 3961SOL    HW214776   3.770   5.982   2.936 -1.8592 -2.3933 -0.0718
 3962SOL     OW14777   0.779   4.810   1.791  0.0374 -0.1962  0.0988
 3962SOL    HW114778   0.849   4.803   1.855 -0.3093 -0.9394  0.4081
 3962SOL    HW214779   0.717   4.741   1.815  0.3603 -1.1479 -1.6052
 3963SOL     OW14780   9.298   8.715   7.249 -0.0824  0.4147 -0.0138
 3963SOL    HW114781   9.281   8.778   7.319  0.2032 -0.4000  0.8109
 3963SOL    HW214782   9.217   8.666   7.241 -0.2231  0.7217 -0.4876
 3964SOL     OW14783   5.021   1.149   6.436  0.5843  0.4052  0.0989
 3964SOL    HW114784   5.064   1.106   6.510 -0.4612 -1.1556 -0.1455
 3964SOL    HW214785   4.954   1.205   6.476  1.9879  1.9178  0.4242
 3965SOL     OW14786   5.140   1.565   8.351  0.1005  0.5176 -0.3079
 3965SOL    HW114787   5.119   1.637   8.292  0.8389  0.1055 -1.0999
 3965SOL    HW214788   5.233   1.547   8.335  0.2993  0.3310  0.9213
 3966SOL     OW14789   4.890   2.697   0.496  0.0885 -0.4182  0.0497
 3966SOL    HW114790   4.861   2.678   0.586 -1.0007  3.0018  0.5708
 3966SOL    HW214791   4.808   2.699   0.446  0.3924  0.2214 -0.4297
 3967SOL     OW14792   0.894   6.266   2.462 -0.0891 -0.1860 -0.3679
 3967SOL    HW114793   0.876   6.332   2.529  1.5925  0.1468 -0.2101
 3967SOL    HW214794   0.924   6.316   2.386  1.8202 -0.7392 -0.0438
 3968SOL     OW14795   6.070   8.420   5.363  0.0623 -0.8135 -0.3986
 3968SOL    HW114796   6.040   8.345   5.311 -1.0066 -0.5388 -0.2157
 3968SOL    HW214797   6.087   8.488   5.299  2.4520 -1.6119 -0.7073
 3969SOL     OW14798   5.230   6.294   2.198 -0.3690 -0.1205  0.6794
 3969SOL    HW114799   5.238   6.292   2.103 -1.6302  0.0857  0.5532
 3969SOL    HW214800   5.151   6.345   2.215  0.4181  0.7657  1.8800
 3970SOL     OW14801   2.734   4.263   0.637 -0.0420 -0.1180  0.5976
 3970SOL    HW114802   2.742   4.355   0.612  1.3703 -0.2284  0.5474
 3970SOL    HW214803   2.818   4.224   0.612 -0.0729 -1.1030  1.9309
 3971SOL     OW14804   5.425   8.984   1.340  0.4939 -0.1896  0.7220
 3971SOL    HW114805   5.514   8.990   1.374 -0.0212  1.3461  1.9053
 3971SOL    HW214806   5.416   9.061   1.284 -0.7104  0.8364  2.2486
 3972SOL     OW14807   5.733   1.453   6.903 -0.0962  0.1309  0.0204
 3972SOL    HW114808   5.743   1.384   6.968 -0.0413  0.4016  0.3023
 3972SOL    HW214809   5.744   1.534   6.952 -0.3870  0.3470 -0.2667
 3973SOL     OW14810   9.424   7.700   3.487  0.2405  0.0196  0.3287
 3973SOL    HW114811   9.444   7.738   3.573 -1.9226 -0.9850  1.3628
 3973SOL    HW214812   9.386   7.772   3.437  1.2009  0.5238  0.2885
 3974SOL     OW14813   3.552   2.334   3.884  0.4546  0.1309  0.3693
 3974SOL    HW114814   3.645   2.346   3.868  0.3396  0.8669  0.2311
 3974SOL    HW214815   3.514   2.318   3.798  0.3183  0.7630  0.3113
 3975SOL     OW14816   6.728   7.766   2.441  0.4151 -0.3127  0.2534
 3975SOL    HW114817   6.683   7.688   2.410 -0.0509  0.8959 -2.4501
 3975SOL    HW214818   6.716   7.765   2.536 -2.9484 -1.5036 -0.0365
 3976SOL     OW14819   6.582   2.703   8.181  0.2411 -0.0063 -0.1397
 3976SOL    HW114820   6.560   2.743   8.266 -1.4650  0.0231 -0.5597
 3976SOL    HW214821   6.547   2.764   8.117  2.6026  0.6027 -0.9575
 3977SOL     OW14822   1.740   2.128   5.446  0.4161 -0.2284 -0.4874
 3977SOL    HW114823   1.762   2.077   5.368  2.3898  0.3209 -0.3436
 3977SOL    HW214824   1.765   2.218   5.425  2.7345 -0.3317  1.3126
 3978SOL     OW14825   3.428   4.356   5.865  0.6814 -0.2418 -0.2287
 3978SOL    HW114826   3.461   4.399   5.944  1.2264  0.5597 -0.8671
 3978SOL    HW214827   3.501   4.362   5.803  0.0476 -0.2923 -0.9893
 3979SOL     OW14828   1.026   5.629   6.154 -0.1118 -0.2586  0.0852
 3979SOL    HW114829   1.032   5.678   6.072  0.2171 -0.9758 -0.3228
 3979SOL    HW214830   0.973   5.553   6.132  1.1599 -1.1978  0.1625
 3980SOL     OW14831   4.700   3.188   6.347 -0.5450  0.4245  0.3157
 3980SOL    HW114832   4.613   3.154   6.362 -0.1703 -0.7534 -0.0912
 3980SOL    HW214833   4.707   3.264   6.405 -2.0956  0.9875 -0.2113
 3981SOL     OW14834   3.856   5.476   0.829 -0.2863  0.6811  0.9744
 3981SOL    HW114835   3.942   5.465   0.868  0.1604  0.2000 -0.0881
 3981SOL    HW214836   3.798   5.498   0.902  0.8473  1.6404  1.5986
 3982SOL     OW14837   7.700   0.445   8.657  0.3863 -0.6296  0.0845
 3982SOL    HW114838   7.742   0.526   8.628  0.2761 -0.6675 -0.1806
 3982SOL    HW214839   7.749   0.420   8.736  0.9803 -0.7705 -0.3209
 3983SOL     OW14840   8.603   3.534   9.156  0.0391 -0.0021  0.0865
 3983SOL    HW114841   8.569   3.446   9.168 -0.0190  0.0383  0.2195
 3983SOL    HW214842   8.539   3.591   9.198 -0.3626  0.1776 -0.7402
 3984SOL     OW14843   8.182   6.190   5.495 -0.2911  0.1864 -0.6241
 3984SOL    HW114844   8.218   6.271   5.457  0.7443 -0.6047 -1.3941
 3984SOL    HW214845   8.106   6.170   5.440  0.7686 -0.5518 -1.8876
 3985SOL     OW14846   3.381   7.402   3.359  0.3659 -0.3332 -0.0111
 3985SOL    HW114847   3.474   7.378   3.358  0.5680  0.4378 -1.9104
 3985SOL    HW214848   3.337   7.328   3.317  0.1265 -0.5547  0.6062
 3986SOL     OW14849   4.034   4.789   6.116  0.0474  0.2565  0.0795
 3986SOL    HW114850   4.104   4.810   6.178  0.2485  0.5499 -0.2426
 3986SOL    HW214851   4.080   4.757   6.038 -0.2293 -0.9453  0.3767
 3987SOL     OW14852   0.350   5.659   4.316 -0.3825 -0.5248 -0.3917
 3987SOL    HW114853   0.289   5.632   4.247 -0.5167 -0.0192 -0.4799
 3987SOL    HW214854   0.306   5.734   4.358  0.6110  0.5089 -1.1270
 3988SOL     OW14855   6.886   7.780   8.616 -0.0596 -0.3835 -0.2682
 3988SOL    HW114856   6.921   7.860   8.654  0.9165 -0.8409 -0.1820
 3988SOL    HW214857   6.835   7.810   8.540 -0.5805  0.3881  0.3745
 3989SOL     OW14858   9.571   1.841   5.608  0.5792 -0.4266  0.1156
 3989SOL    HW114859   9.514   1.871   5.679  3.1465 -2.1171  3.1020
 3989SOL    HW214860   9.637   1.909   5.600  0.4397 -0.3596 -0.5602
 3990SOL     OW14861   0.977   5.774   4.107 -0.6203  0.7398 -0.8500
 3990SOL    HW114862   0.967   5.771   4.202 -0.1125  1.3306 -0.7674
 3990SOL    HW214863   0.896   5.813   4.075 -1.2666 -0.4892 -0.7637
 3991SOL     OW14864   4.635   4.049   3.416 -0.1626 -0.0796  0.3872
 3991SOL    HW114865   4.729   4.042   3.403 -0.3580 -1.0054 -0.6549
 3991SOL    HW214866   4.605   4.110   3.349 -0.1859  1.0942  1.4191
 3992SOL     OW14867   5.287   6.771   2.066  0.4162  0.1291  0.5169
 3992SOL    HW114868   5.193   6.772   2.085  0.4666  1.6238  0.8317
 3992SOL    HW214869   5.329   6.784   2.151  0.8602  0.6827  0.2233
 3993SOL     OW14870   0.569   8.668   8.783  0.4382  0.2308  0.3468
 3993SOL    HW114871   0.652   8.699   8.819  2.2482 -1.9208 -1.6512
 3993SOL    HW214872   0.556   8.722   8.705  0.3888 -0.0005  0.1964
 3994SOL     OW14873   3.106   8.505   3.717  0.4707  0.1653  0.2559
 3994SOL    HW114874   3.183   8.450   3.727  1.4454  1.5734  0.7441
 3994SOL    HW214875   3.068   8.509   3.804  2.3937  3.0326  1.0711
 3995SOL     OW14876   2.114   6.833   1.311 -0.3673 -0.1830 -0.1486
 3995SOL    HW114877   2.187   6.775   1.293 -0.2162 -0.2309  0.5893
 3995SOL    HW214878   2.091   6.815   1.402  1.0001  2.3405  0.8004
 3996SOL     OW14879   3.596   2.829   6.253 -0.6665 -0.1008 -0.0830
 3996SOL    HW114880   3.540   2.831   6.331  0.6681 -1.1507  0.9702
 3996SOL    HW214881   3.593   2.738   6.224  2.3164 -0.8315  1.4882
 3997SOL     OW14882   7.089   1.802   4.006 -0.3362 -0.5392  0.0381
 3997SOL    HW114883   7.029   1.800   4.081 -0.4010 -0.1082  0.0016
 3997SOL    HW214884   7.039   1.765   3.934 -0.5436 -0.2311  0.0206
 3998SOL     OW14885   4.269   1.876   4.364 -0.4126 -0.2026  0.1299
 3998SOL    HW114886   4.200   1.924   4.409  0.7195  0.8213  0.8554
 3998SOL    HW214887   4.329   1.849   4.434  0.6692  0.2120 -0.6050
 3999SOL     OW14888   4.338   8.974   0.752  0.2533  0.3328 -0.0070
 3999SOL    HW114889   4.423   9.007   0.722  0.9465 -1.4588 -0.1767
 3999SOL    HW214890   4.355   8.940   0.840 -0.4411  0.5414  0.2141
 4000SOL     OW14891   4.248   8.268   6.065 -0.4248 -0.5212 -0.3597
 4000SOL    HW114892   4.270   8.360   6.073  0.4461 -0.7739  0.3269
 4000SOL    HW214893   4.322   8.229   6.018 -0.3552 -1.0174  0.1393
 4001SOL     OW14894   4.451   2.150   8.097 -0.2969  0.5975  0.3822
 4001SOL    HW114895   4.402   2.115   8.023  0.6920  0.8018 -0.3899
 4001SOL    HW214896   4.530   2.098   8.101  0.3686  1.5694  0.3289
 4002SOL     OW14897   4.004   3.760   7.994  0.7138 -0.1102 -0.0022
 4002SOL    HW114898   4.097   3.764   8.012  0.7193 -0.5169  0.0566
 4002SOL    HW214899   3.997   3.715   7.910  0.6062  0.4937 -0.3216
 4003SOL     OW14900   6.550   2.599   6.930  0.0900 -0.0684 -0.5459
 4003SOL    HW114901   6.545   2.511   6.894  0.7673 -1.2001  1.9289
 4003SOL    HW214902   6.641   2.626   6.913  0.3003 -0.4423 -0.0263
 4004SOL     OW14903   7.271   5.096   6.819  0.0787 -0.9553  0.0004
 4004SOL    HW114904   7.324   5.040   6.875 -0.7337  0.9580  2.9143
 4004SOL    HW214905   7.182   5.063   6.829 -0.1826 -0.1275  0.5023
 4005SOL     OW14906   9.499   1.756   9.284 -0.4817 -0.0578  0.0800
 4005SOL    HW114907   9.433   1.733   9.350  0.2190 -0.6355  0.6026
 4005SOL    HW214908   9.564   1.806   9.332 -1.0182  1.3784 -0.6500
 4006SOL     OW14909   5.027   7.768   4.319 -0.1272 -0.2066 -0.1300
 4006SOL    HW114910   5.044   7.798   4.229 -0.7754 -2.5935 -1.1360
 4006SOL    HW214911   5.075   7.829   4.374 -0.0017  1.5688 -2.0752
 4007SOL     OW14912   7.338   7.078   0.240  0.1403  0.1029  0.0865
 4007SOL    HW114913   7.276   7.142   0.274 -1.7644 -1.5301 -0.1458
 4007SOL    HW214914   7.329   7.083   0.145  0.4251 -0.1028  0.0452
 4008SOL     OW14915   7.480   1.365   6.902 -0.2072 -0.2588 -0.3610
 4008SOL    HW114916   7.416   1.311   6.949  0.5824  0.7587  2.0726
 4008SOL    HW214917   7.547   1.303   6.873 -1.2296 -1.0539 -1.1081
 4009SOL     OW14918   0.443   8.751   4.931 -0.2213  0.2600  0.4814
 4009SOL    HW114919   0.367   8.720   4.981 -0.6506  1.4031  0.5793
 4009SOL    HW214920   0.443   8.846   4.945 -0.6460  0.7233 -2.0399
 4010SOL     OW14921   5.859   4.316   0.493 -0.0875 -0.4307  0.0010
 4010SOL    HW114922   5.878   4.398   0.539 -0.9291 -0.7630  0.9615
 4010SOL    HW214923   5.764   4.312   0.490 -0.0489 -0.9001 -0.9272
 4011SOL     OW14924   2.842   4.633   4.471  0.3289  0.1666 -0.2751
 4011SOL    HW114925   2.801   4.718   4.461  0.2292 -0.0902 -2.4710
 4011SOL    HW214926   2.799   4.594   4.547 -0.8955  1.3529 -0.3282
 4012SOL     OW14927   3.134   0.479   2.301  0.0105  0.0356  0.2580
 4012SOL    HW114928   3.158   0.392   2.331 -1.2367 -0.9639 -1.4500
 4012SOL    HW214929   3.137   0.534   2.380 -1.1566 -1.9718  1.7966
 4013SOL     OW14930   7.863   2.960   7.011 -0.3938  0.1746  0.5476
 4013SOL    HW114931   7.790   2.955   7.073 -2.0510 -0.5920 -1.3843
 4013SOL    HW214932   7.842   2.896   6.944  2.0992 -0.0655 -0.0809
 4014SOL     OW14933   2.994   7.213   0.569  0.1557 -0.2552 -0.3666
 4014SOL    HW114934   3.032   7.238   0.484 -1.4270 -0.2090 -1.0989
 4014SOL    HW214935   3.031   7.126   0.586  0.3151 -0.3715 -1.2300
 4015SOL     OW14936   1.094   6.829   5.995  0.3411 -0.0156  0.2107
 4015SOL    HW114937   1.039   6.904   5.972  0.8708  0.0183 -1.0036
 4015SOL    HW214938   1.067   6.806   6.084 -1.9067 -0.2526 -0.4836
 4016SOL     OW14939   1.086   4.528   4.985  0.4707  0.3985  0.5828
 4016SOL    HW114940   1.050   4.613   5.011  0.2879  0.2735  0.7453
 4016SOL    HW214941   1.037   4.465   5.038 -1.3228 -0.0447 -1.4992
 4017SOL     OW14942   9.316   5.244   4.262  0.2336 -0.1819 -0.4727
 4017SOL    HW114943   9.275   5.179   4.205  0.3348 -0.9310  0.2972
 4017SOL    HW214944   9.244   5.277   4.316  0.1329  0.5484 -1.0346
 4018SOL     OW14945   2.580   8.421   5.087 -0.4522  0.1895  0.5798
 4018SOL    HW114946   2.618   8.492   5.035 -0.7258  0.4497  0.7359
 4018SOL    HW214947   2.603   8.443   5.177  0.1817 -0.3581  0.5635
 4019SOL     OW14948   1.685   7.660   3.637  0.2747 -0.1582  0.3382
 4019SOL    HW114949   1.641   7.602   3.575 -0.4812 -0.6492  1.3004
 4019SOL    HW214950   1.774   7.625   3.644 -0.2259 -1.3651  1.0581
 4020SOL     OW14951   8.088   7.593   6.696 -0.4769 -0.0727 -0.1457
 4020SOL    HW114952   8.099   7.498   6.704 -0.9753  0.0300  3.0534
 4020SOL    HW214953   8.177   7.627   6.689 -0.2160 -0.7015  0.0102
 4021SOL     OW14954   7.033   3.444   2.918 -0.3777  0.0325  0.2126
 4021SOL    HW114955   7.056   3.482   2.833 -0.4323  1.0374  0.6302
 4021SOL    HW214956   7.003   3.519   2.970 -2.0511 -0.8237  0.5483
 4022SOL     OW14957   6.632   0.248   8.734 -0.3128 -0.0498  0.8226
 4022SOL    HW114958   6.580   0.173   8.707 -1.3199  1.9128 -3.4803
 4022SOL    HW214959   6.570   0.321   8.739  1.3072  1.4763 -0.0245
 4023SOL     OW14960   8.835   0.241   7.249 -0.0607 -0.6021  0.4336
 4023SOL    HW114961   8.772   0.312   7.236  0.4959 -0.3035 -0.6794
 4023SOL    HW214962   8.844   0.235   7.345 -0.3104  0.6518  0.5553
 4024SOL     OW14963   9.553   3.729   8.113  0.3706 -0.1982  0.3316
 4024SOL    HW114964   9.606   3.650   8.118 -0.1374 -0.6082 -0.5145
 4024SOL    HW214965   9.545   3.759   8.203  0.0018 -1.4884  0.7403
 4025SOL     OW14966   4.483   9.197   6.929 -0.0396  0.1511 -0.5253
 4025SOL    HW114967   4.486   9.291   6.909  1.7123  0.6144  1.5419
 4025SOL    HW214968   4.572   9.166   6.909  0.1010 -0.5228  1.0132
 4026SOL     OW14969   6.990   1.922   1.208  0.1865  0.5138 -0.1906
 4026SOL    HW114970   6.967   2.008   1.242  0.0242 -0.2341  1.7171
 4026SOL    HW214971   7.073   1.901   1.250  0.2908 -0.2182 -0.7370
 4027SOL     OW14972   4.329   5.437   2.958  0.6359  0.1792 -0.5414
 4027SOL    HW114973   4.335   5.525   2.923  1.6926  0.5005  0.3787
 4027SOL    HW214974   4.387   5.385   2.903 -0.3806 -0.0719 -1.4053
 4028SOL     OW14975   3.714   9.319   1.613 -0.2948 -0.7071  0.2979
 4028SOL    HW114976   3.809   9.335   1.611 -0.4499  0.4552  1.3498
 4028SOL    HW214977   3.699   9.257   1.541  1.2230 -0.7290 -0.0373
 4029SOL     OW14978   1.410   2.120   4.356  0.4158 -0.3056 -0.0095
 4029SOL    HW114979   1.413   2.093   4.264 -1.5463 -0.4007 -0.0908
 4029SOL    HW214980   1.484   2.075   4.397  1.4088 -0.1533 -1.5537
 4030SOL     OW14981   5.502   2.685   8.529 -0.1624  0.3368  0.2111
 4030SOL    HW114982   5.439   2.705   8.460 -0.1457 -1.3164 -0.3301
 4030SOL    HW214983   5.455   2.625   8.587 -0.1954  1.7308  1.7180
 4031SOL     OW14984   2.084   1.983   2.020  0.2599 -0.1140 -0.0959
 4031SOL    HW114985   2.067   1.992   2.114 -1.5078 -2.3034 -0.1010
 4031SOL    HW214986   2.026   2.047   1.979  0.3859  0.2471  0.2879
 4032SOL     OW14987   4.106   0.175   0.663 -0.3927 -0.6101  0.1887
 4032SOL    HW114988   4.069   0.144   0.581  2.6723 -2.1564 -0.7365
 4032SOL    HW214989   4.120   0.096   0.715 -0.3402  0.1279  1.3263
 4033SOL     OW14990   1.437   1.900   3.509  0.1442  0.0815 -0.3310
 4033SOL    HW114991   1.456   1.806   3.501  1.8147  0.3666 -0.2114
 4033SOL    HW214992   1.364   1.915   3.449  0.4385 -1.1409 -1.0360
 4034SOL     OW14993   6.808   7.803   0.007 -0.0493  0.1496  0.3348
 4034SOL    HW114994   6.787   7.891  -0.023 -0.7307 -0.4786 -1.1559
 4034SOL    HW214995   6.765   7.745  -0.056  0.5945 -1.2549  1.1219
 4035SOL     OW14996   2.506   0.464   2.727  0.0772  0.3533 -0.4604
 4035SOL    HW114997   2.439   0.511   2.678  0.7780  0.9093 -0.9048
 4035SOL    HW214998   2.458   0.396   2.775 -0.8795  1.1627 -0.2447
 4036SOL     OW14999   5.799   5.218   9.604 -0.2226  0.9694  0.1190
 4036SOL    HW115000   5.890   5.201   9.580 -0.4635 -1.2386  0.5515
 4036SOL    HW215001   5.800   5.305   9.643  1.4472  1.5425 -1.0915
 4037SOL     OW15002   0.844   3.328   8.262 -0.2626 -0.3694  0.1651
 4037SOL    HW115003   0.752   3.306   8.248 -0.4653 -0.7490  1.8670
 4037SOL    HW215004   0.842   3.408   8.313  0.4208  0.8402 -1.6015
 4038SOL     OW15005   6.073   9.549   7.811  0.5949 -0.4920 -0.4714
 4038SOL    HW115006   6.161   9.585   7.796  0.8624 -0.1251  1.7266
 4038SOL    HW215007   6.089   9.459   7.841  0.1592 -0.7241 -0.9170
 4039SOL     OW15008   9.458   1.496   3.176  0.3931 -0.2411  0.0894
 4039SOL    HW115009   9.456   1.513   3.082  1.9727  0.2507  0.1189
 4039SOL    HW215010   9.422   1.575   3.216  0.7455  0.0006 -0.0685
 4040SOL     OW15011   0.059   5.867   5.381 -0.2498 -0.0107  0.7509
 4040SOL    HW115012   0.133   5.904   5.430 -0.8079 -0.3965  1.9189
 4040SOL    HW215013   0.003   5.828   5.448 -2.0892  1.2312  0.0104
 4041SOL     OW15014   8.648   5.403   7.666  0.0196 -0.1974 -0.5206
 4041SOL    HW115015   8.651   5.310   7.690 -0.8718 -0.0016  0.4340
 4041SOL    HW215016   8.738   5.433   7.676  0.0974 -0.6873  0.3258
 4042SOL     OW15017   0.686   9.391   8.451  0.5680 -0.2241  0.3668
 4042SOL    HW115018   0.773   9.361   8.476  0.3391 -1.8222 -0.6432
 4042SOL    HW215019   0.631   9.372   8.527  1.3039  2.1840  1.6298
 4043SOL     OW15020   5.805   5.021   0.616  0.4775 -0.1708 -0.3584
 4043SOL    HW115021   5.750   4.952   0.580  0.9422 -1.7074  1.7156
 4043SOL    HW215022   5.750   5.063   0.683  1.1340 -0.3666  0.3078
 4044SOL     OW15023   5.653   6.687   3.557 -0.0228  0.2019  0.2674
 4044SOL    HW115024   5.721   6.747   3.588  0.8339 -0.8014  0.3790
 4044SOL    HW215025   5.634   6.632   3.633  0.4763 -0.8061 -0.3241
 4045SOL     OW15026   7.780   6.642   6.544  0.6270  0.7195  0.1890
 4045SOL    HW115027   7.719   6.715   6.553  3.0242  2.9715 -0.7311
 4045SOL    HW215028   7.805   6.620   6.634  1.4374  2.4601  0.4189
 4046SOL     OW15029   0.030   7.252   2.788  0.2553 -0.1543  0.2612
 4046SOL    HW115030  -0.022   7.173   2.776 -0.4152 -0.0230  2.0311
 4046SOL    HW215031   0.036   7.263   2.882  2.3715  0.6079  0.0907
 4047SOL     OW15032   7.754   6.478   7.674  0.3749  0.0474 -0.2930
 4047SOL    HW115033   7.783   6.409   7.614 -1.5432 -1.8765  0.8211
 4047SOL    HW215034   7.834   6.518   7.707  1.5245 -1.0656 -1.6565
 4048SOL     OW15035   1.667   7.906   0.966  0.0991  0.5051 -0.2205
 4048SOL    HW115036   1.707   7.843   0.906  1.0507  1.3640 -0.5114
 4048SOL    HW215037   1.653   7.985   0.913 -1.3157  0.4868  0.0653
 4049SOL     OW15038   0.362   5.929   6.890 -0.2513 -0.6011  0.4893
 4049SOL    HW115039   0.385   6.002   6.832  0.2603 -0.0873  1.3195
 4049SOL    HW215040   0.281   5.957   6.932 -2.1296 -2.0796 -1.8580
 4050SOL     OW15041   8.846   8.760   1.405 -0.1552  0.0999  0.3848
 4050SOL    HW115042   8.790   8.712   1.344 -1.2932  1.1553  0.5868
 4050SOL    HW215043   8.802   8.843   1.420  2.2797  1.7189 -0.7716
 4051SOL     OW15044   4.582   8.433   0.641  0.0064  0.0799 -0.9451
 4051SOL    HW115045   4.539   8.362   0.688  0.9822 -1.1330 -1.8034
 4051SOL    HW215046   4.632   8.480   0.708 -3.1832  2.0764  0.2406
 4052SOL     OW15047   0.605   6.768   5.751 -0.3948 -0.4002  0.0919
 4052SOL    HW115048   0.582   6.686   5.707  0.4481 -0.8841  0.5189
 4052SOL    HW215049   0.543   6.832   5.717 -0.4414 -0.9954 -0.9994
 4053SOL     OW15050   1.810   3.023   4.758 -0.3221  0.0301 -0.5012
 4053SOL    HW115051   1.747   3.071   4.704  0.2599  0.9513 -0.3942
 4053SOL    HW215052   1.895   3.042   4.717  0.1123  0.6370  0.6509
 4054SOL     OW15053   8.968   3.284   7.832  0.0805  0.2180 -0.1117
 4054SOL    HW115054   8.875   3.284   7.810  0.0104 -0.2580  0.1532
 4054SOL    HW215055   8.971   3.317   7.922  0.1461  0.0421 -0.0484
 4055SOL     OW15056   2.234   9.499   4.056  0.0596 -0.0065  0.6118
 4055SOL    HW115057   2.159   9.486   3.998  0.6285 -0.6805  0.0102
 4055SOL    HW215058   2.218   9.439   4.130  0.6959 -1.2347 -0.2143
 4056SOL     OW15059   0.378   2.767   6.883  0.9785  0.3140 -0.2018
 4056SOL    HW115060   0.442   2.751   6.814 -0.2750  2.0669 -1.8567
 4056SOL    HW215061   0.405   2.849   6.924  1.3710 -0.4036  1.0365
 4057SOL     OW15062   6.500   4.337   3.649 -0.2004 -0.3314 -0.4044
 4057SOL    HW115063   6.595   4.329   3.639 -0.2064 -0.1776 -0.5865
 4057SOL    HW215064   6.473   4.252   3.684  0.3020  0.3726  1.8948
 4058SOL     OW15065   4.128   7.027   1.693 -0.3408  0.0104 -0.0920
 4058SOL    HW115066   4.165   7.115   1.684  1.6724 -0.6928  0.8991
 4058SOL    HW215067   4.203   6.970   1.709 -1.6560 -1.8256 -0.1483
 4059SOL     OW15068   3.541   3.560   2.956 -0.2740 -0.4620 -0.0949
 4059SOL    HW115069   3.460   3.528   2.997 -0.9900  0.7025 -0.5527
 4059SOL    HW215070   3.511   3.617   2.885  0.8575  2.5840  1.6936
 4060SOL     OW15071   8.652   8.455   4.736  0.1213  0.5196  0.1817
 4060SOL    HW115072   8.584   8.435   4.672  1.0898  3.2091 -1.8698
 4060SOL    HW215073   8.622   8.535   4.779  2.4705  2.7154 -1.8695
 4061SOL     OW15074   0.612   3.956   8.567 -0.0190  0.1004  0.2359
 4061SOL    HW115075   0.683   4.003   8.524 -0.1301  1.6154  1.6339
 4061SOL    HW215076   0.598   3.879   8.511  0.6755  1.3006 -1.7091
 4062SOL     OW15077   7.622   5.543   8.647  0.2521 -0.0996  0.3157
 4062SOL    HW115078   7.573   5.587   8.578 -0.5063 -0.3848  0.6648
 4062SOL    HW215079   7.561   5.480   8.685  0.3330  0.7060  1.8829
 4063SOL     OW15080   5.584   3.586   8.803 -0.4691 -0.4837 -0.1384
 4063SOL    HW115081   5.625   3.562   8.886  0.0588  0.3174 -0.1557
 4063SOL    HW215082   5.550   3.503   8.768 -3.7450 -0.4060  2.4124
 4064SOL     OW15083   0.877   2.349   8.228  0.4944 -0.1028  0.3630
 4064SOL    HW115084   0.831   2.423   8.189 -0.5287  0.2109  2.0430
 4064SOL    HW215085   0.920   2.306   8.155 -2.2707 -0.2630 -1.3210
 4065SOL     OW15086   1.353   9.065   5.558  0.2193  0.1451  0.3319
 4065SOL    HW115087   1.376   9.060   5.466  0.5792  1.7614  0.3085
 4065SOL    HW215088   1.423   9.019   5.604 -0.6632 -1.9105 -0.2398
 4066SOL     OW15089   8.367   9.478   3.239 -0.3867 -0.6029  0.0704
 4066SOL    HW115090   8.405   9.509   3.322  0.8312  0.1930 -0.7494
 4066SOL    HW215091   8.276   9.459   3.260 -0.0695 -0.5204  1.6228
 4067SOL     OW15092   3.184   4.545   5.578  0.0377 -0.1410  0.1265
 4067SOL    HW115093   3.173   4.514   5.667  1.0445 -1.4509 -0.1662
 4067SOL    HW215094   3.265   4.596   5.580 -0.0420 -0.0101  0.0150
 4068SOL     OW15095   6.784   8.860   4.162 -0.3658  0.2459  0.7851
 4068SOL    HW115096   6.757   8.938   4.211 -0.5997  0.4526  0.3318
 4068SOL    HW215097   6.702   8.813   4.145 -0.4123  0.7131 -0.3136
 4069SOL     OW15098   5.315   2.222   1.992  0.1572 -0.3465  0.0059
 4069SOL    HW115099   5.271   2.141   1.965  0.8140 -1.1203  1.1442
 4069SOL    HW215100   5.327   2.212   2.086  0.8905  0.7708  0.0467
 4070SOL     OW15101   6.001   4.743   0.978  0.3197  0.1586 -0.3763
 4070SOL    HW115102   5.993   4.651   0.951  1.4337  0.1939 -0.8858
 4070SOL    HW215103   6.042   4.786   0.903 -2.3277  1.5959 -1.1228
 4071SOL     OW15104   4.576   1.656   1.461 -0.6826  0.0974  0.6785
 4071SOL    HW115105   4.514   1.586   1.442 -0.2977 -0.1143  0.1986
 4071SOL    HW215106   4.521   1.734   1.472 -0.9630  0.1329 -0.8034
 4072SOL     OW15107   7.859   4.113   7.535 -0.0412 -0.5180 -0.2513
 4072SOL    HW115108   7.893   4.108   7.624 -0.9797  0.4615  0.1914
 4072SOL    HW215109   7.778   4.063   7.537  0.7876 -1.9573 -1.0274
 4073SOL     OW15110   4.206   1.394   1.856 -0.4616  0.7578  0.3366
 4073SOL    HW115111   4.232   1.485   1.842  1.9209  0.7236  3.5437
 4073SOL    HW215112   4.285   1.343   1.842 -1.2214 -0.5860  0.7150
 4074SOL     OW15113   1.641   1.567   8.994 -0.1267 -0.1288 -0.1752
 4074SOL    HW115114   1.557   1.521   8.991 -0.5270  0.5227  0.5909
 4074SOL    HW215115   1.637   1.628   8.920 -0.4631  0.1154  0.0393
 4075SOL     OW15116   5.041   8.058   1.578 -0.1138 -0.8904  0.1321
 4075SOL    HW115117   5.049   7.988   1.642  3.1487 -0.4070  0.4242
 4075SOL    HW215118   5.070   8.136   1.624 -2.0185  0.3715 -0.6998
 4076SOL     OW15119   1.405   0.856   7.358 -0.9730 -0.1125 -0.1799
 4076SOL    HW115120   1.418   0.951   7.368 -1.9128  0.0232 -0.1513
 4076SOL    HW215121   1.485   0.818   7.393 -0.7421  0.6640  0.1767
 4077SOL     OW15122   1.265   7.604   5.273  0.2831  0.4718 -0.1657
 4077SOL    HW115123   1.264   7.508   5.269  2.2185  0.3904  0.1861
 4077SOL    HW215124   1.295   7.631   5.186 -0.9359  0.8003 -0.4915
 4078SOL     OW15125   7.111   4.164   8.736 -0.2895  0.1865 -0.2480
 4078SOL    HW115126   7.183   4.102   8.745  2.0343  2.7283 -0.0316
 4078SOL    HW215127   7.104   4.206   8.822 -2.4984 -0.3911 -0.0819
 4079SOL     OW15128   7.312   4.073   5.164 -0.2751 -0.2869  0.0942
 4079SOL    HW115129   7.293   4.148   5.220 -1.7997  0.5818 -1.4846
 4079SOL    HW215130   7.272   3.999   5.210 -0.0750  0.1049  0.9264
 4080SOL     OW15131   8.892   6.890   8.585  0.2968 -0.2782  0.3793
 4080SOL    HW115132   8.917   6.873   8.676 -1.8022 -2.2699  0.6576
 4080SOL    HW215133   8.909   6.808   8.539 -2.3408 -0.6561 -0.0977
 4081SOL     OW15134   8.209   4.506   8.386 -0.4004  0.0001 -0.6373
 4081SOL    HW115135   8.193   4.579   8.327 -0.5282  0.6648  0.1953
 4081SOL    HW215136   8.130   4.452   8.381 -0.8349  0.5989 -0.3050
 4082SOL     OW15137   4.294   1.520   8.929 -0.6538  0.3047 -0.1619
 4082SOL    HW115138   4.354   1.594   8.932  0.7869 -0.7351 -1.4720
 4082SOL    HW215139   4.209   1.556   8.953 -0.0199  2.3964 -0.8910
 4083SOL     OW15140   2.074   5.568   5.996  0.3892  0.0500 -0.1842
 4083SOL    HW115141   2.000   5.583   5.937  0.6780  1.3174 -0.2521
 4083SOL    HW215142   2.041   5.593   6.082  0.2028 -1.0971  0.1020
 4084SOL     OW15143   2.238   6.679   1.073  0.1588 -0.5256  0.6519
 4084SOL    HW115144   2.292   6.710   1.001 -0.9163 -0.8332 -0.3072
 4084SOL    HW215145   2.177   6.617   1.034 -1.0275 -0.0465  1.6536
 4085SOL     OW15146   5.227   6.066   4.071  0.2973  0.1418  0.0258
 4085SOL    HW115147   5.280   6.104   4.000  1.3570  0.7639  1.1110
 4085SOL    HW215148   5.185   5.990   4.031 -1.9685  2.3814 -2.2882
 4086SOL     OW15149   7.244   0.304   2.764 -0.3434 -0.0564  0.2980
 4086SOL    HW115150   7.319   0.247   2.747  0.6590  0.7825  1.6648
 4086SOL    HW215151   7.248   0.322   2.858 -0.3296  2.6186 -0.1426
 4087SOL     OW15152   4.719   6.238   1.247 -0.0766  0.5474 -1.1694
 4087SOL    HW115153   4.697   6.147   1.226  1.0083 -0.1776  0.6361
 4087SOL    HW215154   4.656   6.262   1.315 -1.1523  1.6016 -2.4863
 4088SOL     OW15155   6.993   9.191   7.276 -0.2823  0.4187  0.0086
 4088SOL    HW115156   7.040   9.219   7.355 -0.5442  0.4796  0.1464
 4088SOL    HW215157   6.904   9.172   7.307 -0.3383  0.2754 -0.2411
 4089SOL     OW15158   6.351   7.569   2.322  0.1378  0.0212 -0.2431
 4089SOL    HW115159   6.439   7.570   2.360  0.5621 -1.6542 -1.0799
 4089SOL    HW215160   6.305   7.501   2.370 -0.4308  0.2960 -0.3921
 4090SOL     OW15161   7.693   3.319   6.834  0.1715 -0.2324 -0.4040
 4090SOL    HW115162   7.755   3.269   6.782  0.4616 -0.7860  0.4558
 4090SOL    HW215163   7.637   3.253   6.875  0.6869  0.1129  0.9077
 4091SOL     OW15164   1.207   3.552   6.237 -0.1704 -0.0693 -0.1141
 4091SOL    HW115165   1.215   3.647   6.240 -1.6320  0.0542  0.5829
 4091SOL    HW215166   1.133   3.536   6.179  0.0545 -0.7958 -0.2177
 4092SOL     OW15167   1.910   0.679   0.035 -0.4400 -0.0251 -0.1857
 4092SOL    HW115168   1.883   0.605  -0.019 -0.1958  0.4334 -0.9544
 4092SOL    HW215169   1.858   0.753   0.003  0.9326  0.6370 -0.9818
 4093SOL     OW15170   1.899   7.327   8.429 -0.3399  0.1094  0.3625
 4093SOL    HW115171   1.822   7.365   8.473 -1.0497  1.6447 -2.0031
 4093SOL    HW215172   1.873   7.237   8.409 -0.8014  0.0470  1.2017
 4094SOL     OW15173   5.814   5.394   3.983 -0.2680 -0.3119 -0.0173
 4094SOL    HW115174   5.769   5.442   3.913 -1.1657 -0.1663  0.6333
 4094SOL    HW215175   5.743   5.366   4.041  0.4510 -0.5477  0.7577
 4095SOL     OW15176   3.192   1.506   7.602  0.2754  0.3179 -0.1310
 4095SOL    HW115177   3.136   1.441   7.560  1.7993 -1.0085 -0.1650
 4095SOL    HW215178   3.131   1.570   7.638 -1.2479 -0.9489 -0.3727
 4096SOL     OW15179   9.447   5.816   9.634  0.6244  0.5282 -0.5017
 4096SOL    HW115180   9.468   5.727   9.664 -0.0456 -0.1456 -1.9355
 4096SOL    HW215181   9.353   5.813   9.616  0.3848  1.8477  0.4214
 4097SOL     OW15182   7.784   0.646   0.556 -0.4658  0.1040  0.2071
 4097SOL    HW115183   7.800   0.552   0.549  1.2487  0.2454  1.5160
 4097SOL    HW215184   7.716   0.663   0.491  0.0357 -1.8214 -0.9311
 4098SOL     OW15185   0.437   5.314   4.776  0.2325  0.8639  0.0968
 4098SOL    HW115186   0.454   5.268   4.694  1.1471  0.2792  0.6011
 4098SOL    HW215187   0.522   5.349   4.802  0.0475  0.6492  1.0306
 4099SOL     OW15188   7.622   8.511   4.473 -0.0507  0.1155 -0.2294
 4099SOL    HW115189   7.532   8.501   4.505  0.4026  2.2675  1.9830
 4099SOL    HW215190   7.628   8.603   4.447  1.8914  0.4086  1.0622
 4100SOL     OW15191   3.913   9.028   1.579 -0.0081  0.3514  0.2448
 4100SOL    HW115192   3.838   9.046   1.523  0.6676  1.0954 -0.4419
 4100SOL    HW215193   3.961   9.111   1.582  0.6868 -0.0639  0.8180
 4101SOL     OW15194   0.845   4.026   3.643  0.1854  0.6721  0.3875
 4101SOL    HW115195   0.756   4.017   3.609 -0.1888 -0.2222  1.5459
 4101SOL    HW215196   0.889   4.084   3.581 -1.2414  1.2412 -0.1212
 4102SOL     OW15197   1.143   4.054   1.316 -0.3129 -0.0589 -0.0836
 4102SOL    HW115198   1.063   4.034   1.364 -0.6071  0.4613 -0.3426
 4102SOL    HW215199   1.136   4.148   1.297 -0.1673 -0.2421 -1.0788
 4103SOL     OW15200   5.021   7.744   2.295 -0.8830  0.2166 -0.2414
 4103SOL    HW115201   5.023   7.736   2.199 -1.9605  0.3982 -0.2891
 4103SOL    HW215202   5.016   7.838   2.311  0.1435  0.2437  0.0348
 4104SOL     OW15203   0.748   5.623   2.003 -0.0037 -0.1081 -0.0611
 4104SOL    HW115204   0.749   5.533   1.971  1.4712  0.1888 -0.9753
 4104SOL    HW215205   0.671   5.662   1.963  0.3277 -0.4972 -1.1193
 4105SOL     OW15206   5.682   9.060   4.796  0.3457  0.4002  0.2602
 4105SOL    HW115207   5.607   9.002   4.780 -1.5725  2.5176  0.9308
 4105SOL    HW215208   5.700   9.100   4.711  0.3301  0.3319  0.2244
 4106SOL     OW15209   9.456   5.770   0.872  0.2480  0.3778 -0.3406
 4106SOL    HW115210   9.436   5.692   0.822  1.5685  0.9945 -1.9182
 4106SOL    HW215211   9.371   5.807   0.894 -0.3710 -0.5559 -1.0950
 4107SOL     OW15212   1.238   5.884   6.524 -0.1170 -0.1455 -0.0807
 4107SOL    HW115213   1.332   5.869   6.518 -0.5088 -2.7201 -1.4911
 4107SOL    HW215214   1.211   5.908   6.436 -0.8888 -0.4608  0.0562
 4108SOL     OW15215   4.411   1.163   2.568  0.4122 -0.4646  0.4107
 4108SOL    HW115216   4.324   1.170   2.606  0.8753 -0.6187  1.5664
 4108SOL    HW215217   4.466   1.133   2.641  1.6278  0.6260 -0.0169
 4109SOL     OW15218   8.620   9.592   5.903  0.1046  0.6216  0.2019
 4109SOL    HW115219   8.714   9.575   5.901  0.2925  1.5872 -1.5737
 4109SOL    HW215220   8.584   9.541   5.831 -0.2256  2.5414 -1.0949
 4110SOL     OW15221   5.952   8.818   4.021  0.4474 -0.6806 -0.1332
 4110SOL    HW115222   5.882   8.874   4.055  0.8105 -0.2048 -0.1684
 4110SOL    HW215223   5.985   8.773   4.099  0.9373  0.0320  0.0826
 4111SOL     OW15224   6.968   1.804   1.781  0.1600  0.4687 -0.0819
 4111SOL    HW115225   7.009   1.838   1.860  1.2540 -0.1193 -0.3866
 4111SOL    HW215226   6.886   1.766   1.811  2.0206 -2.7646  1.3626
 4112SOL     OW15227   1.849   9.372   0.789  0.3404 -0.6738 -0.1112
 4112SOL    HW115228   1.907   9.327   0.851  0.0094 -1.6774 -0.5030
 4112SOL    HW215229   1.763   9.333   0.804 -0.0505  0.1518 -0.1659
 4113SOL     OW15230   6.714   0.326   1.979  0.4684  0.0985 -0.5891
 4113SOL    HW115231   6.771   0.325   1.903  0.6058  0.5522 -0.4944
 4113SOL    HW215232   6.682   0.416   1.985 -0.5940 -0.2464 -0.8883
 4114SOL     OW15233   7.097   9.363   2.696 -0.4461  0.6072  0.2681
 4114SOL    HW115234   7.129   9.453   2.688  2.5293 -0.3372  0.1208
 4114SOL    HW215235   7.166   9.317   2.745 -1.1331 -1.8854 -0.9011
 4115SOL     OW15236   8.751   0.054   1.562  0.4749 -0.2060  0.3236
 4115SOL    HW115237   8.844   0.031   1.571  0.5256  0.1609  0.7848
 4115SOL    HW215238   8.704  -0.026   1.587  0.6665 -0.3452  0.2414
 4116SOL     OW15239   0.566   8.532   0.524  0.6779 -0.3336  0.2050
 4116SOL    HW115240   0.474   8.543   0.547  0.2399 -2.6815 -0.1251
 4116SOL    HW215241   0.602   8.480   0.596  2.3195  2.1860  1.3327
 4117SOL     OW15242   2.653   3.933   0.150 -0.2580 -0.2918 -0.2830
 4117SOL    HW115243   2.618   3.996   0.212  0.0862 -0.2019 -0.1759
 4117SOL    HW215244   2.723   3.981   0.104  1.9507 -1.3718  1.7181
 4118SOL     OW15245   1.687   8.644   7.730  0.2381 -0.3591  0.0812
 4118SOL    HW115246   1.593   8.648   7.748  0.1090  0.5072 -0.7071
 4118SOL    HW215247   1.721   8.583   7.796 -0.7499 -0.1053  0.8618
 4119SOL     OW15248   7.763   2.555   8.480 -1.0391 -0.3589  0.2137
 4119SOL    HW115249   7.674   2.540   8.449 -1.3955  1.2601  0.3514
 4119SOL    HW215250   7.756   2.555   8.575 -1.1391  0.8918  0.2290
 4120SOL     OW15251   4.425   4.424   5.713 -0.5724  0.0938  0.1698
 4120SOL    HW115252   4.398   4.341   5.674 -0.2015  0.7946 -1.6840
 4120SOL    HW215253   4.368   4.489   5.672  0.7238  1.0254 -0.2172
 4121SOL     OW15254   9.540   6.180   5.781  0.1383  0.3346 -0.1887
 4121SOL    HW115255   9.476   6.196   5.850  0.4799  0.4656  0.1020
 4121SOL    HW215256   9.625   6.187   5.825  0.3759  0.9746 -0.7353
 4122SOL     OW15257   7.161   5.877   2.881 -0.1207  0.3589 -0.0058
 4122SOL    HW115258   7.167   5.850   2.789  0.2277  0.9362 -0.1541
 4122SOL    HW215259   7.199   5.804   2.930  1.6471  0.9187 -0.4664
 4123SOL     OW15260   6.355   5.798   0.853  0.1809  0.5021  0.3061
 4123SOL    HW115261   6.334   5.863   0.786  0.5541 -0.0115 -0.3349
 4123SOL    HW215262   6.450   5.784   0.844 -0.0781 -1.0286 -0.4342
 4124SOL     OW15263   0.038   3.079   5.876  0.2944 -0.3462  0.1461
 4124SOL    HW115264   0.111   3.137   5.857 -0.6424  1.7217  2.3489
 4124SOL    HW215265  -0.033   3.110   5.820 -0.0556  0.3927  0.9631
 4125SOL     OW15266   9.498   2.489   5.734  0.0389  0.7042  0.1186
 4125SOL    HW115267   9.543   2.406   5.744 -0.9360  0.3625  2.4230
 4125SOL    HW215268   9.511   2.533   5.818 -0.6544  2.2668 -0.5563
 4126SOL     OW15269   7.024   3.077   2.206  0.3384 -0.6326 -0.7710
 4126SOL    HW115270   7.022   3.020   2.282 -0.2527  0.9780  0.4894
 4126SOL    HW215271   6.932   3.096   2.188  0.4124 -1.6759 -2.4760
 4127SOL     OW15272   3.562   9.264   6.308 -0.0573  0.4071  0.2017
 4127SOL    HW115273   3.585   9.222   6.226 -0.2866  3.1623 -1.4115
 4127SOL    HW215274   3.639   9.253   6.364  0.5281 -0.5686 -0.7649
 4128SOL     OW15275   8.614   2.636   9.033 -0.5557 -0.5576  0.1407
 4128SOL    HW115276   8.604   2.582   8.955  1.5071  1.0145 -1.3275
 4128SOL    HW215277   8.606   2.726   9.001 -1.0087  0.1114  1.9976
 4129SOL     OW15278   3.940   2.203   2.646  0.1422 -0.0972 -0.0129
 4129SOL    HW115279   3.864   2.149   2.625  0.7008 -1.3172  1.0316
 4129SOL    HW215280   4.012   2.142   2.656  1.1116  0.9720 -0.2063
 4130SOL     OW15281   7.146   3.248   3.083  0.1525 -0.1742 -0.2004
 4130SOL    HW115282   7.116   3.326   3.037 -0.7644  0.6997  1.7796
 4130SOL    HW215283   7.110   3.175   3.032  1.4930  0.5863 -2.4140
 4131SOL     OW15284   6.235   5.514   0.844 -0.2215  0.6035 -0.0313
 4131SOL    HW115285   6.313   5.464   0.870 -1.7145 -1.4993  0.6637
 4131SOL    HW215286   6.266   5.604   0.838  2.4340 -0.2343 -0.4930
 4132SOL     OW15287   5.471   2.226   4.949  0.1239 -0.2185 -0.1796
 4132SOL    HW115288   5.399   2.174   4.914  0.7431  0.4501 -2.6767
 4132SOL    HW215289   5.513   2.264   4.872  2.8180 -0.1158  1.1837
 4133SOL     OW15290   8.583   3.968   3.265  0.0526  0.1559 -0.1164
 4133SOL    HW115291   8.640   4.043   3.253  0.8003 -0.6115 -1.6054
 4133SOL    HW215292   8.501   3.992   3.221 -0.6777  1.0659  1.6149
 4134SOL     OW15293   8.831   2.053   7.083  0.4535 -0.6348 -0.0492
 4134SOL    HW115294   8.900   2.101   7.038  0.3560 -0.3196  0.1311
 4134SOL    HW215295   8.791   1.998   7.016  0.3799 -0.2531 -0.3213
 4135SOL     OW15296   7.048   7.476   7.081  0.3696 -0.2620  0.3788
 4135SOL    HW115297   7.107   7.401   7.080 -1.5019 -1.8145 -0.2704
 4135SOL    HW215298   6.980   7.454   7.018 -0.1782  2.0713  0.0655
 4136SOL     OW15299   1.516   9.574   6.121 -0.0976  0.0305  0.1829
 4136SOL    HW115300   1.462   9.543   6.192  0.3551  0.0173  0.5256
 4136SOL    HW215301   1.498   9.668   6.116  0.4209  0.1651  0.8000
 4137SOL     OW15302   1.370   4.418   7.024 -0.1486 -0.5632  0.2660
 4137SOL    HW115303   1.434   4.348   7.018 -0.3345 -0.7143  0.0311
 4137SOL    HW215304   1.295   4.380   7.070 -0.0846 -0.3971  0.5114
 4138SOL     OW15305   0.054   3.497   1.221 -0.1593 -0.1485 -0.6454
 4138SOL    HW115306   0.072   3.514   1.129  0.9941 -0.1602 -0.4347
 4138SOL    HW215307   0.006   3.414   1.221 -0.5829  0.0888 -1.2555
 4139SOL     OW15308   7.605   3.043   5.753  0.4852  0.3623  0.1415
 4139SOL    HW115309   7.631   3.125   5.712  0.2111  0.7795  0.7937
 4139SOL    HW215310   7.572   2.990   5.680  2.9485 -0.1457 -0.7149
 4140SOL     OW15311   0.003   9.047   8.215  0.3477 -0.6708  0.2694
 4140SOL    HW115312   0.046   8.964   8.236  1.3845  0.3186  2.3822
 4140SOL    HW215313  -0.077   9.047   8.268  0.8473  0.0486  1.0636
 4141SOL     OW15314   7.093   5.387   1.328  0.0310  0.5947 -0.5247
 4141SOL    HW115315   7.128   5.300   1.349 -1.8323  0.1913  1.1960
 4141SOL    HW215316   7.054   5.376   1.241  0.2334 -0.1505 -0.5346
 4142SOL     OW15317   1.314   5.213   2.066  0.0132 -0.4426  0.0159
 4142SOL    HW115318   1.223   5.217   2.097  0.1967  1.0203  0.4197
 4142SOL    HW215319   1.312   5.260   1.982  0.2580 -1.1169 -0.3777
 4143SOL     OW15320   7.423   8.075   3.114  0.0022 -0.2329 -0.1165
 4143SOL    HW115321   7.353   8.131   3.149  0.2637 -0.0179  0.0722
 4143SOL    HW215322   7.407   7.989   3.152  0.4629  0.0733  0.7772
 4144SOL     OW15323   7.592   3.776   4.163 -0.0237  0.7497  0.6816
 4144SOL    HW115324   7.586   3.835   4.088 -0.4750  0.5514  0.5619
 4144SOL    HW215325   7.643   3.826   4.228 -0.2127  1.1861  0.5020
 4145SOL     OW15326   0.600   2.439   4.340 -0.5762  0.4169 -0.3285
 4145SOL    HW115327   0.549   2.463   4.417  0.9198 -1.4999  1.3542
 4145SOL    HW215328   0.673   2.501   4.340 -0.4834  0.3108 -0.0776
 4146SOL     OW15329   9.000   8.195   7.161  0.1224  0.1838  0.0437
 4146SOL    HW115330   9.027   8.220   7.249  0.4658  1.7208 -0.4702
 4146SOL    HW215331   9.074   8.145   7.126 -0.3441 -1.1425  0.8886
 4147SOL     OW15332   5.584   2.450   6.848 -0.2358  0.1177  0.3447
 4147SOL    HW115333   5.639   2.398   6.907 -0.6760 -1.4939 -0.6275
 4147SOL    HW215334   5.498   2.451   6.891 -1.0218 -2.4817 -0.9640
 4148SOL     OW15335   1.979   9.095   1.682  0.1823  0.6449 -0.0980
 4148SOL    HW115336   1.888   9.116   1.703 -0.1237  0.2656 -1.0161
 4148SOL    HW215337   2.015   9.178   1.650  0.2892  0.9026  0.6691
 4149SOL     OW15338   4.720   0.693   3.173 -0.2748 -0.3700  0.3240
 4149SOL    HW115339   4.726   0.641   3.253  1.7704  2.3676  2.1364
 4149SOL    HW215340   4.639   0.743   3.183 -0.0005 -0.0011  0.7051
 4150SOL     OW15341   6.567   6.397   2.357  0.5637  0.1430  0.0233
 4150SOL    HW115342   6.545   6.307   2.331 -0.5433  0.3747  0.1355
 4150SOL    HW215343   6.540   6.451   2.283  0.0169  0.5104  0.4849
 4151SOL     OW15344   3.293   7.207   7.258  0.1636  0.3930  0.4512
 4151SOL    HW115345   3.285   7.125   7.209 -1.3463  1.1356 -0.6433
 4151SOL    HW215346   3.228   7.200   7.327  0.5475  0.3773  0.8152
 4152SOL     OW15347   4.205   6.369   5.408  0.4685  0.1641 -0.3712
 4152SOL    HW115348   4.244   6.282   5.397 -0.6208 -0.2251 -1.4304
 4152SOL    HW215349   4.126   6.367   5.352 -0.5345  1.2348  0.9357
 4153SOL     OW15350   1.663   8.832   1.137 -0.3925  0.5638  0.0391
 4153SOL    HW115351   1.655   8.852   1.043 -0.7093 -2.9837 -0.8576
 4153SOL    HW215352   1.588   8.775   1.155 -0.4337  1.3057  2.5446
 4154SOL     OW15353   5.737   4.231   2.642 -0.5993  0.3862  0.1999
 4154SOL    HW115354   5.719   4.306   2.585 -2.1051 -0.5641 -0.6326
 4154SOL    HW215355   5.669   4.168   2.621 -1.0105 -0.1540  2.8158
 4155SOL     OW15356   5.882   1.492   2.970  0.3729  0.0365 -0.4729
 4155SOL    HW115357   5.842   1.456   2.891  0.0380 -2.4863  0.7406
 4155SOL    HW215358   5.949   1.428   2.995 -0.2606  0.1821  1.8401
 4156SOL     OW15359   4.747   3.559   5.385 -0.6438  0.5789  0.2117
 4156SOL    HW115360   4.815   3.623   5.408  1.1155 -0.4286 -1.8788
 4156SOL    HW215361   4.665   3.607   5.397  0.5581  3.0083 -0.5046
 4157SOL     OW15362   8.900   4.127   8.358  0.2733 -0.1770  0.1766
 4157SOL    HW115363   8.913   4.202   8.300  0.3689  0.2451  0.7353
 4157SOL    HW215364   8.918   4.161   8.446  0.6918 -0.9460  0.3997
 4158SOL     OW15365   6.332   2.547   5.281 -0.3317  0.0438 -0.1540
 4158SOL    HW115366   6.329   2.452   5.267 -0.1730 -0.0269  0.2682
 4158SOL    HW215367   6.249   2.567   5.326  0.4349 -0.1910  1.4398
 4159SOL     OW15368   3.385   9.191   4.562 -0.3779  0.1521 -0.3682
 4159SOL    HW115369   3.332   9.227   4.491  0.7153 -0.0131 -1.2995
 4159SOL    HW215370   3.406   9.102   4.534 -0.6439 -0.2061  0.5641
 4160SOL     OW15371   5.065   3.370   5.877 -0.2590 -0.1393 -0.0744
 4160SOL    HW115372   4.991   3.430   5.884 -0.4846 -0.4711  0.4160
 4160SOL    HW215373   5.073   3.354   5.783 -2.0048 -1.5723 -0.0261
 4161SOL     OW15374   0.488   4.789   4.533 -0.2459  0.0406  0.1951
 4161SOL    HW115375   0.525   4.827   4.454 -2.8051  0.7831 -0.7703
 4161SOL    HW215376   0.496   4.859   4.598  3.1780 -1.0617  1.1725
 4162SOL     OW15377   6.683   3.537   5.269 -0.4812 -0.4467 -0.4291
 4162SOL    HW115378   6.766   3.515   5.310 -1.6021  0.3791  2.5360
 4162SOL    HW215379   6.696   3.625   5.234 -0.1494 -0.2658  0.1424
 4163SOL     OW15380   4.603   7.867   3.489 -0.4862  0.1158  0.5300
 4163SOL    HW115381   4.642   7.891   3.405 -0.4218  1.6734  0.9612
 4163SOL    HW215382   4.511   7.890   3.480 -0.4374  0.4835  0.9469
 4164SOL     OW15383   5.352   4.525   4.086 -0.1344 -0.1368 -0.0558
 4164SOL    HW115384   5.359   4.592   4.018  0.4510  0.3669  0.4825
 4164SOL    HW215385   5.389   4.447   4.046 -1.5438 -0.3798 -0.9632
 4165SOL     OW15386   4.048   4.144   1.789  0.3328  0.3458  0.4185
 4165SOL    HW115387   4.090   4.068   1.829  0.4046  0.4030  0.4517
 4165SOL    HW215388   4.119   4.188   1.741  0.0559 -0.2554 -0.5801
 4166SOL     OW15389   6.748   5.576   1.252 -0.3019 -0.3703 -0.1893
 4166SOL    HW115390   6.655   5.555   1.265 -0.8878  1.5118 -0.9605
 4166SOL    HW215391   6.755   5.669   1.273  1.8111 -0.8673  1.6313
 4167SOL     OW15392   8.916   1.122   5.848 -0.0951 -0.3435 -0.1250
 4167SOL    HW115393   8.898   1.190   5.913  1.5195 -1.5058  1.6795
 4167SOL    HW215394   9.008   1.137   5.823  0.2714 -1.7902  0.2755
 4168SOL     OW15395   3.373   1.631   6.487  0.6210  0.0562  0.1055
 4168SOL    HW115396   3.381   1.538   6.463  0.6809 -0.3734  1.6616
 4168SOL    HW215397   3.404   1.678   6.409 -1.9104 -1.1164 -1.7478
 4169SOL     OW15398   5.338   3.733   5.775 -0.4028 -0.4203 -0.3127
 4169SOL    HW115399   5.326   3.638   5.779  1.1861 -0.6527 -0.3598
 4169SOL    HW215400   5.326   3.755   5.683  0.6486 -0.8030 -0.5502
 4170SOL     OW15401   6.875   7.290   4.733  0.6818 -0.2204  0.0568
 4170SOL    HW115402   6.835   7.239   4.803  0.5063 -0.9886 -0.5928
 4170SOL    HW215403   6.801   7.327   4.685  0.8066  0.6343  0.5001
 4171SOL     OW15404   0.113   9.200   1.977  0.3556 -0.4618  0.0773
 4171SOL    HW115405   0.209   9.205   1.984  0.4879 -0.1227 -1.5986
 4171SOL    HW215406   0.097   9.181   1.885 -1.2438  0.9319  0.0215
 4172SOL     OW15407   6.549   8.441   8.937 -0.3968 -0.4492 -0.0916
 4172SOL    HW115408   6.591   8.527   8.934 -1.6189  0.2307  1.3799
 4172SOL    HW215409   6.622   8.379   8.934  0.6414  0.6692  0.8853
 4173SOL     OW15410   1.864   1.050   1.489 -0.3184 -0.9862  0.2301
 4173SOL    HW115411   1.924   1.096   1.430  1.7799 -1.4849  1.8628
 4173SOL    HW215412   1.907   0.967   1.508 -1.1376 -1.0376  2.0768
 4174SOL     OW15413   8.090   6.463   8.548 -0.1138  0.6267  0.1679
 4174SOL    HW115414   8.165   6.518   8.522  0.8148 -0.9221 -0.5749
 4174SOL    HW215415   8.095   6.459   8.643  1.4605 -0.3471  0.0818
 4175SOL     OW15416   8.357   8.105   6.603  0.2047  0.7377 -0.7958
 4175SOL    HW115417   8.406   8.023   6.614  0.0691  0.8545  1.0425
 4175SOL    HW215418   8.412   8.171   6.646 -1.8800  0.7031  2.2848
 4176SOL     OW15419   7.151   9.506   3.607 -0.0866  0.6846 -0.6436
 4176SOL    HW115420   7.091   9.457   3.551 -2.2127 -1.2597  2.9827
 4176SOL    HW215421   7.219   9.442   3.630 -0.3871  0.7981  0.5999
 4177SOL     OW15422   3.430   8.672   0.375  0.2025  0.0799 -0.0331
 4177SOL    HW115423   3.512   8.711   0.407  0.7316 -1.3847  0.5144
 4177SOL    HW215424   3.455   8.625   0.296  0.2124 -1.4669  0.8372
 4178SOL     OW15425   4.595   0.737   2.559  0.3865  0.3104  0.1129
 4178SOL    HW115426   4.620   0.821   2.523 -2.0202  1.1644  0.2652
 4178SOL    HW215427   4.602   0.748   2.654  0.2521  0.2892  0.1264
 4179SOL     OW15428   8.029   6.681   3.767 -0.2007 -0.4115 -1.2084
 4179SOL    HW115429   8.053   6.755   3.823  2.6119  0.3920 -3.2079
 4179SOL    HW215430   7.946   6.707   3.728 -0.5933  0.4594  0.1305
 4180SOL     OW15431   2.586   6.731   2.101  0.4654 -0.2167 -0.1318
 4180SOL    HW115432   2.599   6.663   2.035 -0.6020 -0.5592  0.0014
 4180SOL    HW215433   2.566   6.810   2.050 -0.0742 -0.4163 -0.2404
 4181SOL     OW15434   7.725   1.952   4.982 -0.8992 -0.5189 -0.5529
 4181SOL    HW115435   7.659   1.896   4.942 -0.7133 -0.6580 -0.6644
 4181SOL    HW215436   7.719   2.034   4.932 -2.0036  0.0001  0.3856
 4182SOL     OW15437   5.524   9.187   0.857 -0.1781 -0.1741 -0.2842
 4182SOL    HW115438   5.452   9.232   0.812  1.0107  1.4288 -0.6924
 4182SOL    HW215439   5.571   9.141   0.787  0.7480  1.0251 -0.4879
 4183SOL     OW15440   5.643   0.254   1.998  0.5014 -0.2226  0.2622
 4183SOL    HW115441   5.679   0.169   1.974 -0.0057 -0.6139  0.8806
 4183SOL    HW215442   5.681   0.315   1.934  0.1885 -1.0441 -0.7306
 4184SOL     OW15443   8.356   3.327   5.920 -0.0689  0.1420  0.0267
 4184SOL    HW115444   8.395   3.359   5.838  2.9288 -1.1556  0.8178
 4184SOL    HW215445   8.334   3.236   5.902  2.9565 -0.9712  1.2024
 4185SOL     OW15446   3.481   2.800   8.397  0.4071  0.0925  0.4030
 4185SOL    HW115447   3.399   2.787   8.446  1.7918 -1.2860  2.5508
 4185SOL    HW215448   3.455   2.797   8.305 -1.9420 -0.4780  1.0106
 4186SOL     OW15449   1.147   5.168   0.647 -0.4138  0.2746 -0.1245
 4186SOL    HW115450   1.054   5.153   0.666 -0.2523 -0.9556 -0.2446
 4186SOL    HW215451   1.156   5.144   0.555  0.1818 -0.3533  0.0983
 4187SOL     OW15452   7.230   5.595   3.574  0.2026 -0.5301 -0.1951
 4187SOL    HW115453   7.242   5.657   3.647  1.7968 -0.0839 -0.8102
 4187SOL    HW215454   7.275   5.516   3.602  0.9372 -0.3114 -0.7346
 4188SOL     OW15455   6.730   2.638   6.129  0.0568  0.0866  0.6728
 4188SOL    HW115456   6.763   2.682   6.207  2.3332  0.3989 -0.3789
 4188SOL    HW215457   6.790   2.564   6.116 -0.4679 -0.1412 -0.5838
 4189SOL     OW15458   3.943   6.936   4.363  0.4707  0.6166 -0.0377
 4189SOL    HW115459   3.992   6.980   4.293  2.0132 -0.4918  0.3074
 4189SOL    HW215460   3.912   7.007   4.419  0.2583  1.4403 -1.1714
 4190SOL     OW15461   6.416   6.060   9.228  0.1417  0.0819 -0.1541
 4190SOL    HW115462   6.459   6.072   9.313  3.0494  1.4512 -1.6691
 4190SOL    HW215463   6.408   6.148   9.192  0.1542 -0.5673 -1.8373
 4191SOL     OW15464   9.422   0.203   4.690  0.2166  0.8266 -0.1858
 4191SOL    HW115465   9.346   0.164   4.646 -0.1866 -1.7209  2.4682
 4191SOL    HW215466   9.490   0.207   4.623 -1.3139  0.2973 -1.8496
 4192SOL     OW15467   9.217   7.392   3.296 -0.0194 -0.4015 -0.3364
 4192SOL    HW115468   9.266   7.462   3.252  0.3208 -0.0810  0.5292
 4192SOL    HW215469   9.195   7.331   3.226  2.9144 -1.3394 -0.6156
 4193SOL     OW15470   9.623   7.429   2.043 -0.2565  0.3714 -0.1324
 4193SOL    HW115471   9.659   7.446   2.130  1.0716 -1.6956 -0.2119
 4193SOL    HW215472   9.607   7.516   2.006  0.1144  1.2993  1.7738
 4194SOL     OW15473   7.299   3.090   4.034  0.5089 -0.2206 -0.5126
 4194SOL    HW115474   7.342   3.144   4.100  0.6251 -0.8557 -0.0693
 4194SOL    HW215475   7.248   3.153   3.982 -0.9430  0.0844  1.2196
 4195SOL     OW15476   8.178   9.243   9.408  0.1846 -0.4223  0.2916
 4195SOL    HW115477   8.274   9.235   9.407  0.1222 -1.4120  0.8559
 4195SOL    HW215478   8.161   9.318   9.465  0.6539  0.6490 -0.9272
 4196SOL     OW15479   4.410   9.639   2.468  0.3748 -0.0529 -0.4304
 4196SOL    HW115480   4.457   9.611   2.546 -0.0521  0.1827 -0.0858
 4196SOL    HW215481   4.343   9.699   2.500  0.0453 -0.1349 -0.9482
 4197SOL     OW15482   8.267   8.436   7.157  0.2792 -0.0711 -0.0745
 4197SOL    HW115483   8.199   8.455   7.092 -0.2906 -0.2346  0.4640
 4197SOL    HW215484   8.291   8.522   7.192 -0.8143 -0.1141  0.8758
 4198SOL     OW15485   1.964   0.160   6.108 -0.1864 -0.4897  0.4235
 4198SOL    HW115486   1.889   0.167   6.167  0.6122  0.0298  1.3962
 4198SOL    HW215487   2.031   0.116   6.159  0.1192 -1.1626 -0.5181
 4199SOL     OW15488   3.459   4.430   4.560 -0.2209 -0.1225  0.1654
 4199SOL    HW115489   3.437   4.488   4.487  0.4961 -0.2106 -0.1258
 4199SOL    HW215490   3.376   4.418   4.606 -0.7132 -0.1757 -0.7087
 4200SOL     OW15491   2.589   2.050   4.024  0.1322  0.1873  0.0931
 4200SOL    HW115492   2.646   1.975   4.043 -0.9013 -0.3420  1.2573
 4200SOL    HW215493   2.573   2.090   4.110 -0.5245  0.8444 -0.3255
 4201SOL     OW15494   8.626   3.939   6.513  0.5185 -0.1977  0.3591
 4201SOL    HW115495   8.600   3.971   6.600  0.8379  0.8248  0.0953
 4201SOL    HW215496   8.582   3.998   6.452 -0.9066 -1.7945 -0.2541
 4202SOL     OW15497   0.705   7.832   2.865  0.1720  0.0286  0.7586
 4202SOL    HW115498   0.755   7.825   2.946 -0.9476  1.2550  1.5796
 4202SOL    HW215499   0.723   7.749   2.819  2.6013  0.2278  1.1808
 4203SOL     OW15500   1.195   4.062   0.959  0.5538  0.3461 -0.4938
 4203SOL    HW115501   1.247   3.993   1.001  0.5050 -1.1746 -2.7795
 4203SOL    HW215502   1.250   4.140   0.966  1.6800 -0.4597  0.0745
 4204SOL     OW15503   2.317   0.668   2.093  0.2590  0.1224 -0.5996
 4204SOL    HW115504   2.338   0.611   2.019 -2.4896  0.0918 -1.4577
 4204SOL    HW215505   2.395   0.721   2.105  1.9183 -1.9539 -1.5045
 4205SOL     OW15506   4.832   1.757   3.621  0.1553 -0.5549 -0.0289
 4205SOL    HW115507   4.763   1.806   3.667  0.3359 -1.7063  1.5443
 4205SOL    HW215508   4.785   1.709   3.553 -0.0500  1.5744 -1.5099
 4206SOL     OW15509   9.480   9.547   4.189  0.5045 -0.1154  0.2192
 4206SOL    HW115510   9.499   9.640   4.177  0.2317 -0.1192 -0.2866
 4206SOL    HW215511   9.489   9.509   4.101 -2.1331 -0.0535 -0.1696
 4207SOL     OW15512   3.649   9.092   0.627 -0.4298 -0.1575 -0.4660
 4207SOL    HW115513   3.716   9.114   0.563 -0.2132  1.9807  0.4087
 4207SOL    HW215514   3.667   9.001   0.651  2.5753  0.5091  0.2021
 4208SOL     OW15515   2.308   3.959   7.550  0.0398  0.0418 -0.2204
 4208SOL    HW115516   2.290   3.923   7.637 -0.8823 -1.0633 -0.8316
 4208SOL    HW215517   2.377   3.902   7.514 -0.8768 -0.6785 -0.8941
 4209SOL     OW15518   1.417   1.852   3.800  0.7495 -0.0462  0.1917
 4209SOL    HW115519   1.467   1.873   3.722  0.2633  1.1210  0.1655
 4209SOL    HW215520   1.331   1.825   3.767  1.6856 -3.4612  0.1502
 4210SOL     OW15521   7.786   5.295   2.473 -0.0646 -0.0871  0.3767
 4210SOL    HW115522   7.875   5.262   2.486 -0.2702 -0.4672  0.8774
 4210SOL    HW215523   7.797   5.382   2.436  0.5172 -0.0361  0.6720
 4211SOL     OW15524   3.158   4.005   8.925  0.3185 -0.5590  0.3231
 4211SOL    HW115525   3.158   3.919   8.882  1.3261  0.6156 -2.2756
 4211SOL    HW215526   3.238   4.047   8.893  0.4112  0.9630  2.3933
 4212SOL     OW15527   9.548   2.482   8.074  0.3268 -0.4470  0.0115
 4212SOL    HW115528   9.600   2.489   7.995  1.1035  0.0464  0.5517
 4212SOL    HW215529   9.530   2.573   8.099 -1.4540 -0.5890 -0.5751
 4213SOL     OW15530   8.366   5.585   2.660 -0.6622  0.1086 -0.2586
 4213SOL    HW115531   8.354   5.676   2.631 -1.4156  1.1710  3.0236
 4213SOL    HW215532   8.278   5.550   2.666 -0.3964 -0.7442 -1.0545
 4214SOL     OW15533   4.733   6.308   4.105 -0.0693 -0.0455  0.1114
 4214SOL    HW115534   4.655   6.364   4.097  0.3418  0.5752  0.3955
 4214SOL    HW215535   4.806   6.365   4.083  0.4413 -0.2352  1.2638
 4215SOL     OW15536   1.993   3.757   3.972  0.0142 -0.3372  0.2622
 4215SOL    HW115537   1.972   3.723   3.885 -0.6996 -0.2307  0.3829
 4215SOL    HW215538   2.024   3.846   3.956 -1.8653  0.3606  0.2271
 4216SOL     OW15539   2.042   5.151   3.372 -0.3304 -0.3579 -0.3587
 4216SOL    HW115540   2.044   5.246   3.384 -0.1581 -0.4500  0.3843
 4216SOL    HW215541   1.950   5.132   3.351 -0.5814 -0.1428  0.5238
 4217SOL     OW15542   7.287   3.709   5.711  0.0995  0.3280  0.1148
 4217SOL    HW115543   7.297   3.798   5.679  2.0417  0.4310  0.8571
 4217SOL    HW215544   7.377   3.680   5.729 -0.5353 -1.5592  0.4604
 4218SOL     OW15545   5.939   3.856   2.832  0.6155 -0.2531 -0.3031
 4218SOL    HW115546   5.947   3.775   2.882  1.1007 -0.1275 -0.1691
 4218SOL    HW215547   6.007   3.849   2.765 -0.2667 -0.5820 -1.1851
 4219SOL     OW15548   4.122   9.156   8.345 -0.0344 -0.0715  0.0468
 4219SOL    HW115549   4.121   9.125   8.254 -0.8780  0.3211 -0.0911
 4219SOL    HW215550   4.212   9.144   8.373  0.3496  0.2178 -0.9970
 4220SOL     OW15551   1.466   6.057   2.885  0.2157  0.0181 -0.2543
 4220SOL    HW115552   1.501   6.050   2.796 -0.2122  1.3102 -0.5405
 4220SOL    HW215553   1.432   5.969   2.904  1.2475 -0.5632 -0.9487
 4221SOL     OW15554   5.952   8.771   2.272  0.8138 -0.1756  0.3475
 4221SOL    HW115555   5.859   8.768   2.249  0.4188  2.4435  1.2985
 4221SOL    HW215556   5.952   8.772   2.368  1.6965  1.2909  0.3590
 4222SOL     OW15557   1.612   3.069   6.080  0.3467  0.6705 -0.5630
 4222SOL    HW115558   1.573   3.124   6.013  2.2400  1.8751 -0.7709
 4222SOL    HW215559   1.632   3.129   6.152  0.8385 -0.0805 -0.0497
 4223SOL     OW15560   7.877   7.721   1.436  0.5394 -0.4727  0.0237
 4223SOL    HW115561   7.948   7.777   1.468 -0.4604  1.1563 -0.4832
 4223SOL    HW215562   7.902   7.701   1.346  0.3620  0.1422 -0.1715
 4224SOL     OW15563   1.173   6.475   0.900 -0.1899 -0.0727  0.0204
 4224SOL    HW115564   1.197   6.403   0.958 -0.3263  0.8352  1.2289
 4224SOL    HW215565   1.090   6.508   0.934 -0.9750 -0.3516 -1.4939
 4225SOL     OW15566   5.356   1.131   5.854 -0.3772 -0.2126  0.3867
 4225SOL    HW115567   5.295   1.170   5.917 -0.8960 -0.2418 -0.0972
 4225SOL    HW215568   5.431   1.190   5.854 -0.5083 -0.0400  0.7935
 4226SOL     OW15569   8.866   0.127   6.447 -1.0643  0.3137 -0.3034
 4226SOL    HW115570   8.925   0.201   6.467 -1.6883  0.9244 -0.6643
 4226SOL    HW215571   8.795   0.167   6.396 -2.7357 -0.0732  1.6165
 4227SOL     OW15572   9.441   0.396   8.172 -0.2254  0.0603  0.1869
 4227SOL    HW115573   9.382   0.324   8.192 -0.3944  0.5107  1.3518
 4227SOL    HW215574   9.528   0.356   8.169 -0.2950 -0.1602  1.0338
 4228SOL     OW15575   4.465   0.918   0.022 -0.2077 -0.4738  0.3878
 4228SOL    HW115576   4.426   0.858   0.085 -1.5168 -1.7233 -1.4981
 4228SOL    HW215577   4.546   0.876  -0.005  0.1422 -0.1394  0.8886
 4229SOL     OW15578   6.890   8.234   2.348 -0.1709 -0.0011 -0.1597
 4229SOL    HW115579   6.844   8.158   2.313  1.9625 -1.4287 -0.0786
 4229SOL    HW215580   6.865   8.237   2.440 -1.5459  0.4237 -0.5304
 4230SOL     OW15581   8.075   1.805   9.288 -0.7683  0.1841 -0.1512
 4230SOL    HW115582   8.075   1.731   9.349 -0.4718  1.5930  1.6402
 4230SOL    HW215583   8.067   1.765   9.202  0.0138 -1.9687  0.7113
 4231SOL     OW15584   4.978   1.486   6.827  0.1096  0.3151 -0.1707
 4231SOL    HW115585   4.954   1.564   6.776 -0.7197 -0.2331 -0.6317
 4231SOL    HW215586   4.896   1.439   6.839  0.4823 -0.1284  0.7384
 4232SOL     OW15587   2.837   9.640   3.910  0.1854  0.1590  0.0454
 4232SOL    HW115588   2.813   9.700   3.840 -2.1717  0.7019  1.2034
 4232SOL    HW215589   2.831   9.693   3.990 -0.4759 -1.1987  0.9446
 4233SOL     OW15590   7.553   6.384   8.303  0.0351  0.0120  0.7033
 4233SOL    HW115591   7.530   6.452   8.240 -1.3565 -0.1387  1.0156
 4233SOL    HW215592   7.537   6.424   8.389  2.0956  0.2823  1.0308
 4234SOL     OW15593   1.339   3.037   1.910 -0.7584  0.2747 -0.7543
 4234SOL    HW115594   1.314   2.944   1.904 -0.3263  0.0577  0.4805
 4234SOL    HW215595   1.277   3.074   1.972 -0.3903  0.6150 -0.5891
 4235SOL     OW15596   5.517   7.869   8.449  0.2149 -0.4386  0.0786
 4235SOL    HW115597   5.573   7.945   8.465 -0.0630  0.6246 -3.2113
 4235SOL    HW215598   5.428   7.903   8.456  0.0533  0.2948 -3.5651
 4236SOL     OW15599   1.836   9.361   7.010 -0.4635 -0.6864  0.3365
 4236SOL    HW115600   1.908   9.396   7.063 -0.0794 -0.8159 -0.0957
 4236SOL    HW215601   1.821   9.427   6.943 -0.4840 -0.8407  0.1887
 4237SOL     OW15602   0.090   7.856   2.606 -0.2255  0.5478 -0.3832
 4237SOL    HW115603   0.020   7.817   2.659  0.1826  0.6706  0.2587
 4237SOL    HW215604   0.045   7.906   2.539 -0.7596  0.8348  0.1798
 4238SOL     OW15605   4.301   8.721   3.810  0.0167 -0.4047  0.2789
 4238SOL    HW115606   4.271   8.724   3.719 -1.3172 -0.1348  0.7131
 4238SOL    HW215607   4.225   8.691   3.860  0.5239  0.1102  1.3977
 4239SOL     OW15608   2.605   7.706   7.970 -0.2400  0.5331  0.3646
 4239SOL    HW115609   2.566   7.650   8.038  0.9782  0.0797  0.7284
 4239SOL    HW215610   2.531   7.735   7.917 -1.0702 -0.2256  1.0700
 4240SOL     OW15611   7.188   9.545   4.450  0.1729 -0.4461 -0.6121
 4240SOL    HW115612   7.101   9.545   4.410  0.6169 -0.1813 -1.6359
 4240SOL    HW215613   7.201   9.636   4.479  0.5811 -0.1774 -1.5900
 4241SOL     OW15614   5.834   5.466   2.844  0.1092 -0.7780  0.0759
 4241SOL    HW115615   5.865   5.381   2.874  3.0554  0.1975  0.1293
 4241SOL    HW215616   5.885   5.529   2.894  1.2202  0.9557 -2.9577
 4242SOL     OW15617   0.926   0.657   9.641  0.4685 -0.1845  0.3970
 4242SOL    HW115618   0.995   0.692   9.697 -0.6824  1.8937  0.6241
 4242SOL    HW215619   0.861   0.622   9.701  0.6402 -0.8000  0.2320
 4243SOL     OW15620   6.461   0.681   3.345 -0.2913 -0.0153  0.7560
 4243SOL    HW115621   6.438   0.730   3.266  1.2673  0.1206  0.3483
 4243SOL    HW215622   6.416   0.597   3.336 -1.5244  0.6359  0.5820
 4244SOL     OW15623   3.758   3.563   4.509  0.0577 -1.0235 -0.4609
 4244SOL    HW115624   3.707   3.488   4.479 -0.5267 -0.6789 -0.3440
 4244SOL    HW215625   3.762   3.621   4.433 -0.7252 -0.5242 -0.1407
 4245SOL     OW15626   8.699   5.155   7.799  0.1812 -0.1014 -0.2664
 4245SOL    HW115627   8.644   5.076   7.807 -0.0882  0.0681 -0.4609
 4245SOL    HW215628   8.720   5.177   7.889  0.2430 -0.3868 -0.2079
 4246SOL     OW15629   7.913   4.741   4.648  0.0800 -0.1192 -0.0026
 4246SOL    HW115630   7.933   4.727   4.555  1.2525  0.4800  0.1477
 4246SOL    HW215631   7.973   4.810   4.676  0.8038 -1.3321  1.5849
 4247SOL     OW15632   5.742   0.927   2.975 -0.0852  0.3995  0.2810
 4247SOL    HW115633   5.764   0.862   2.908 -0.8044 -0.6721  1.0500
 4247SOL    HW215634   5.673   0.980   2.936 -1.5325 -1.1271  0.6448
 4248SOL     OW15635   3.239   3.679   5.188  0.5886  0.1551 -0.1040
 4248SOL    HW115636   3.224   3.747   5.122 -1.9335  0.4041  0.5989
 4248SOL    HW215637   3.260   3.727   5.267 -0.0091  0.0755  0.1096
 4249SOL     OW15638   8.783   4.619   7.826 -0.3130  0.0240  0.3395
 4249SOL    HW115639   8.730   4.653   7.898 -0.4029 -0.6617  0.6069
 4249SOL    HW215640   8.848   4.562   7.868  0.1516  0.2604 -0.0527
 4250SOL     OW15641   3.889   4.285   5.270 -0.5901 -0.4813 -0.4154
 4250SOL    HW115642   3.969   4.267   5.221  0.4322  0.8287  0.6909
 4250SOL    HW215643   3.818   4.259   5.210  0.5788  0.9299 -2.5370
 4251SOL     OW15644   3.151   8.179   6.237 -0.0926 -0.4994 -0.4448
 4251SOL    HW115645   3.216   8.249   6.242  1.2002 -1.7479  1.2237
 4251SOL    HW215646   3.110   8.191   6.151  1.5002  1.0582 -1.0494
 4252SOL     OW15647   1.045   3.291   6.483 -0.1338  0.2626 -0.3664
 4252SOL    HW115648   1.133   3.279   6.517 -0.9238  0.4759  1.9586
 4252SOL    HW215649   0.995   3.218   6.520 -0.8344 -0.2475 -2.1871
 4253SOL     OW15650   3.202   1.326   0.312  0.4471 -0.8379  0.1392
 4253SOL    HW115651   3.175   1.234   0.315 -0.7310 -0.6171 -1.8886
 4253SOL    HW215652   3.136   1.371   0.364 -0.7327 -0.8364 -1.2748
 4254SOL     OW15653   5.220   0.221   0.447 -0.2941 -0.5450 -0.2395
 4254SOL    HW115654   5.135   0.260   0.466 -0.1509 -0.2296 -0.2450
 4254SOL    HW215655   5.223   0.217   0.351 -0.0700 -0.0343 -0.2569
 4255SOL     OW15656   2.588   0.991   8.653  0.7087  0.1703  0.6090
 4255SOL    HW115657   2.507   1.034   8.680  1.1653  0.3305  1.7890
 4255SOL    HW215658   2.573   0.968   8.562 -0.1419  1.4401  0.3901
 4256SOL     OW15659   3.897   6.451   4.696  0.3246  0.3510  0.0274
 4256SOL    HW115660   3.924   6.542   4.701  0.5957  0.4064 -1.8081
 4256SOL    HW215661   3.836   6.440   4.770  0.3622  1.9662  0.3323
 4257SOL     OW15662   0.037   7.775   4.215  0.1584 -0.6337 -0.0167
 4257SOL    HW115663   0.132   7.781   4.226  0.1175 -2.0169  1.3796
 4257SOL    HW215664   0.018   7.681   4.219 -1.5799 -0.2881  3.0312
 4258SOL     OW15665   1.803   8.143   3.547 -0.0001  0.4293  0.3322
 4258SOL    HW115666   1.777   8.229   3.515 -1.0546 -0.4961 -1.4315
 4258SOL    HW215667   1.850   8.103   3.475 -0.8834 -1.0502  0.5406
 4259SOL     OW15668   7.978   1.498   2.388 -0.5147 -0.0549 -0.1150
 4259SOL    HW115669   8.052   1.544   2.350  0.5245 -1.3386  0.2850
 4259SOL    HW215670   8.017   1.428   2.440 -1.9896 -0.3045  0.7245
 4260SOL     OW15671   5.597   2.040   1.345  0.0788 -0.1362  0.0806
 4260SOL    HW115672   5.589   1.980   1.419 -1.7684  0.6868  0.6140
 4260SOL    HW215673   5.656   2.109   1.375  0.6809 -0.6721  0.1535
 4261SOL     OW15674   3.187   6.546   7.588  0.4642 -0.4676  0.1920
 4261SOL    HW115675   3.151   6.470   7.543  0.3525  0.1522 -0.8052
 4261SOL    HW215676   3.113   6.584   7.635  0.1211 -0.0122 -0.6977
 4262SOL     OW15677   4.942   0.992   6.188 -0.3550  0.0863 -0.4212
 4262SOL    HW115678   4.933   0.898   6.202 -0.5221  0.1808  0.0906
 4262SOL    HW215679   4.994   1.022   6.262  0.4701  0.2556 -1.0501
 4263SOL     OW15680   6.451   3.435   2.221  0.0745  0.4557  0.0985
 4263SOL    HW115681   6.486   3.524   2.217  0.8848  0.1763  0.7741
 4263SOL    HW215682   6.356   3.446   2.220  0.1403  1.2288 -1.7481
 4264SOL     OW15683   2.978   6.165   5.371  0.1826  0.6663 -0.1050
 4264SOL    HW115684   2.922   6.101   5.415  1.1719 -0.0144  0.2051
 4264SOL    HW215685   2.940   6.250   5.396  0.6915  0.3163  2.1193
 4265SOL     OW15686   6.206   7.497   9.412 -0.5864  0.0951 -0.2275
 4265SOL    HW115687   6.286   7.526   9.369 -0.9478 -1.0440 -1.7788
 4265SOL    HW215688   6.139   7.499   9.343 -1.4308 -0.8478  0.5144
 4266SOL     OW15689   5.771   0.755   8.756 -0.0785 -0.3208  0.7537
 4266SOL    HW115690   5.738   0.700   8.685 -1.5822 -2.1527  2.7550
 4266SOL    HW215691   5.692   0.794   8.794  0.5855 -0.2177  2.0737
 4267SOL     OW15692   5.276   5.612   8.978  0.0919 -0.0703 -0.2586
 4267SOL    HW115693   5.317   5.697   8.963 -2.2861  1.1484 -0.4266
 4267SOL    HW215694   5.275   5.602   9.073  1.7865 -0.7126 -0.2741
 4268SOL     OW15695   2.542   1.270   0.358  0.2441  0.3876 -0.1178
 4268SOL    HW115696   2.446   1.259   0.359  0.2252  0.5612  0.1247
 4268SOL    HW215697   2.557   1.349   0.306  0.0500  2.1737  2.3571
 4269SOL     OW15698   4.902   1.703   8.144  0.9544  0.0938  0.3866
 4269SOL    HW115699   4.914   1.780   8.200  0.0612  0.2069  0.4373
 4269SOL    HW215700   4.909   1.629   8.204  1.1567  0.1623  0.4497
 4270SOL     OW15701   5.633   0.069   5.655  0.3492  0.2301  0.5706
 4270SOL    HW115702   5.634   0.056   5.560  2.7816  0.9895  0.4264
 4270SOL    HW215703   5.671  -0.012   5.690  1.2170  0.6786  0.7174
 4271SOL     OW15704   2.552   6.248   5.577 -0.1971  0.2220  0.2609
 4271SOL    HW115705   2.585   6.288   5.657  2.0341 -1.4237  0.2661
 4271SOL    HW215706   2.489   6.182   5.607  0.1981  0.0083  0.6246
 4272SOL     OW15707   9.642   1.332   3.964 -0.7543 -0.5684 -0.3979
 4272SOL    HW115708   9.553   1.327   3.928 -0.3143  0.5557 -1.6967
 4272SOL    HW215709   9.636   1.397   4.034 -0.7749  0.2044 -1.1018
 4273SOL     OW15710   4.449   7.123   6.577  0.6745 -0.8275  0.2241
 4273SOL    HW115711   4.399   7.047   6.605  0.0484 -0.9756 -1.1980
 4273SOL    HW215712   4.392   7.197   6.594  0.5728 -0.8502 -0.0156
 4274SOL     OW15713   0.747   7.704   5.275 -0.4835  0.2175 -0.4407
 4274SOL    HW115714   0.842   7.715   5.285 -0.7140  2.2858 -0.0077
 4274SOL    HW215715   0.718   7.785   5.233 -2.0713 -0.4054 -0.6198
 4275SOL     OW15716   7.509   8.273   7.240 -0.8051 -0.0044 -0.8610
 4275SOL    HW115717   7.571   8.216   7.195 -0.5311  0.9529 -1.7382
 4275SOL    HW215718   7.515   8.248   7.332  0.4765 -0.3005 -1.0142
 4276SOL     OW15719   1.883   9.065   8.720  0.0287  0.2635  0.0198
 4276SOL    HW115720   1.896   9.101   8.807 -3.8891 -2.3111  1.9584
 4276SOL    HW215721   1.810   9.116   8.684 -0.1634 -0.4535 -0.6187
 4277SOL     OW15722   6.655   1.799   8.989 -0.4373  0.2031 -0.3972
 4277SOL    HW115723   6.586   1.733   9.003 -0.2783  0.3172  1.0530
 4277SOL    HW215724   6.607   1.881   8.976 -0.6054  0.0283 -0.8998
 4278SOL     OW15725   1.643   8.987   4.688 -0.4645 -0.0416 -0.3376
 4278SOL    HW115726   1.685   8.961   4.769  0.2435  1.1707 -0.2915
 4278SOL    HW215727   1.715   9.001   4.626 -0.8082  1.5488 -0.4117
 4279SOL     OW15728   1.025   7.952   0.082 -0.2848  0.4208  0.0168
 4279SOL    HW115729   1.023   8.031   0.028  1.1020  1.4294  1.3581
 4279SOL    HW215730   1.040   7.881   0.019 -3.3164  0.9062 -1.4435
 4280SOL     OW15731   2.355   5.004   1.700 -0.2301  0.1241 -0.0403
 4280SOL    HW115732   2.297   5.019   1.776 -2.3829 -1.5098 -1.2324
 4280SOL    HW215733   2.300   5.024   1.624  1.0707 -0.6163 -1.2203
 4281SOL     OW15734   5.770   6.899   5.590 -0.3390  0.3750  0.1981
 4281SOL    HW115735   5.866   6.900   5.584 -0.4273  0.8723 -2.7314
 4281SOL    HW215736   5.747   6.807   5.580 -0.1994  0.0934  2.0536
 4282SOL     OW15737   8.331   7.831   1.797 -0.7036 -0.9070 -0.1102
 4282SOL    HW115738   8.320   7.894   1.868  0.7394 -0.3124 -0.3724
 4282SOL    HW215739   8.400   7.772   1.828 -1.6945 -2.0843 -0.0743
 4283SOL     OW15740   1.889   0.297   4.788  0.5158  0.5316 -0.9615
 4283SOL    HW115741   1.801   0.333   4.777 -0.6271 -1.7579 -0.0872
 4283SOL    HW215742   1.947   0.358   4.742 -1.7031  1.2915 -2.9039
 4284SOL     OW15743   8.712   7.998   1.682  0.1478 -0.7842 -0.4564
 4284SOL    HW115744   8.791   7.963   1.724  1.2780  1.7759 -0.2620
 4284SOL    HW215745   8.727   7.984   1.589  0.0507 -1.7960 -0.3304
 4285SOL     OW15746   3.974   4.799   5.506  0.0567 -0.4122  0.1499
 4285SOL    HW115747   3.931   4.883   5.526 -0.4449 -0.3716 -1.0273
 4285SOL    HW215748   4.002   4.766   5.591  0.5366  1.0977  0.6123
 4286SOL     OW15749   0.684   6.275   0.994  0.2775 -0.1414  0.1140
 4286SOL    HW115750   0.730   6.356   1.015 -0.7601  0.6602 -0.6257
 4286SOL    HW215751   0.618   6.266   1.062  2.5489 -2.2389  2.2405
 4287SOL     OW15752   4.929   9.439   0.884  0.9020  0.6288  0.1828
 4287SOL    HW115753   4.980   9.511   0.848  0.6786 -0.8565 -3.5199
 4287SOL    HW215754   4.841   9.450   0.847  0.2857 -0.3795  1.2645
 4288SOL     OW15755   8.803   3.340   6.640  0.0069 -0.4219  0.0300
 4288SOL    HW115756   8.849   3.397   6.702  0.8964  1.1884 -1.9547
 4288SOL    HW215757   8.862   3.335   6.564 -1.7948 -0.7719 -1.4278
 4289SOL     OW15758   2.054   5.660   5.006  0.2313  0.0463 -0.3863
 4289SOL    HW115759   1.984   5.675   4.942  0.4512  1.4596 -0.3178
 4289SOL    HW215760   2.095   5.577   4.978 -1.2484 -0.6353 -0.6012
 4290SOL     OW15761   1.313   9.168   8.098  0.1119 -0.4849 -0.1664
 4290SOL    HW115762   1.270   9.247   8.132 -1.2901 -0.6646 -1.3863
 4290SOL    HW215763   1.377   9.201   8.034  0.6026 -0.2787  0.4281
 4291SOL     OW15764   1.425   0.598   5.088 -0.6298 -0.4487  0.3541
 4291SOL    HW115765   1.371   0.603   5.008 -0.2140  0.0840  0.1012
 4291SOL    HW215766   1.468   0.513   5.082  2.0814  0.9379 -1.7633
 4292SOL     OW15767   6.725   3.926   3.473  0.0599  0.3489 -0.0499
 4292SOL    HW115768   6.729   3.966   3.560  1.5706 -0.5480  0.3278
 4292SOL    HW215769   6.731   4.000   3.413  0.1676  0.8963  0.6210
 4293SOL     OW15770   4.284   8.061   9.128 -0.2157  0.1535 -0.3235
 4293SOL    HW115771   4.367   8.097   9.097 -1.7444  1.1413 -3.7009
 4293SOL    HW215772   4.230   8.139   9.145 -0.6420 -0.4823  1.5443
 4294SOL     OW15773   6.358   8.308   9.137  0.0388 -0.0852 -0.0219
 4294SOL    HW115774   6.418   8.369   9.095 -0.3211  0.3139  0.0265
 4294SOL    HW215775   6.271   8.341   9.115 -0.1604 -0.4623  0.1813
 4295SOL     OW15776   3.039   9.072   5.156 -0.2646 -0.4055 -0.1744
 4295SOL    HW115777   3.123   9.098   5.119 -0.2420  0.2740  0.3575
 4295SOL    HW215778   3.060   8.996   5.210  0.0634 -0.0499  0.2073
 4296SOL     OW15779   4.876   6.174   4.933 -0.2863  0.5065 -0.3627
 4296SOL    HW115780   4.836   6.195   4.849 -0.2063 -0.2782 -0.6034
 4296SOL    HW215781   4.863   6.253   4.986 -0.7997  0.8149 -0.9348
 4297SOL     OW15782   1.217   5.839   2.904  0.5113 -0.0521  0.4808
 4297SOL    HW115783   1.185   5.928   2.890  0.7471  0.0344  0.4822
 4297SOL    HW215784   1.168   5.807   2.980 -2.1708 -1.1939 -1.5464
 4298SOL     OW15785   6.170   5.059   0.983 -0.4060  0.3285 -0.2665
 4298SOL    HW115786   6.217   4.998   0.926 -0.2225  0.7502 -0.5709
 4298SOL    HW215787   6.089   5.079   0.935 -1.5070 -1.3513  0.8010
 4299SOL     OW15788   2.246   8.389   8.132  0.4587  0.7863 -0.1540
 4299SOL    HW115789   2.168   8.427   8.172  0.5583  0.5950  0.2201
 4299SOL    HW215790   2.284   8.333   8.200  0.5333  0.3252 -0.5650
 4300SOL     OW15791   3.998   3.403   3.490 -0.1705 -0.1440  0.0110
 4300SOL    HW115792   3.906   3.424   3.473 -0.0792  0.1282 -0.1631
 4300SOL    HW215793   3.998   3.310   3.512 -0.2922 -0.5650 -1.6316
 4301SOL     OW15794   7.400   2.826   0.489  0.0675 -0.0413 -0.3192
 4301SOL    HW115795   7.479   2.818   0.436  0.0758  0.8804 -0.4707
 4301SOL    HW215796   7.417   2.772   0.566  1.8865  1.9734  0.8267
 4302SOL     OW15797   5.640   6.931   3.062  0.2930 -0.0997  0.1173
 4302SOL    HW115798   5.620   6.919   3.155  0.7882 -1.8251  0.0361
 4302SOL    HW215799   5.595   7.012   3.038 -2.1365 -1.0272  1.2226
 4303SOL     OW15800   2.928   7.673   3.205 -0.0561  0.5017 -0.3263
 4303SOL    HW115801   2.973   7.720   3.135  0.5702  0.4517  0.0326
 4303SOL    HW215802   2.840   7.710   3.206 -0.0630  0.5143 -1.1248
 4304SOL     OW15803   2.590   5.207   7.657 -0.1252 -0.2719 -0.1016
 4304SOL    HW115804   2.544   5.287   7.634 -0.3851 -0.1201  0.9107
 4304SOL    HW215805   2.549   5.178   7.738  2.1752  0.3654  1.3580
 4305SOL     OW15806   6.476   0.193   3.247 -0.0341  0.7342 -0.2987
 4305SOL    HW115807   6.567   0.213   3.225  0.6171 -1.1132  0.5260
 4305SOL    HW215808   6.469   0.098   3.238 -1.4955  0.6750  1.0380
 4306SOL     OW15809   4.556   4.499   9.096 -0.5319  0.3419  0.1497
 4306SOL    HW115810   4.545   4.513   9.190  2.0252 -1.2918  0.7901
 4306SOL    HW215811   4.649   4.484   9.084 -1.1654 -2.9786 -2.1059
 4307SOL     OW15812   1.028   9.513   6.762 -0.1322  0.4443  0.5114
 4307SOL    HW115813   1.041   9.608   6.763  1.2810  0.2920 -0.1455
 4307SOL    HW215814   0.946   9.501   6.715 -0.0779  1.3320  0.1645
 4308SOL     OW15815   8.003   5.310   2.252  1.2232 -0.0003  0.1695
 4308SOL    HW115816   7.989   5.235   2.309  1.0897 -0.7101 -0.7730
 4308SOL    HW215817   7.929   5.308   2.191  1.6171  0.4435 -0.3398
 4309SOL     OW15818   8.001   5.617   1.678 -0.4060 -0.9452 -0.1650
 4309SOL    HW115819   7.912   5.588   1.658 -0.0049 -1.0249 -2.0673
 4309SOL    HW215820   8.051   5.592   1.601  1.1692 -0.4357  0.6611
 4310SOL     OW15821   3.117   8.426   4.998 -0.1685 -0.8216  0.3890
 4310SOL    HW115822   3.111   8.397   5.089  2.0406 -0.0971  0.8102
 4310SOL    HW215823   3.146   8.348   4.951  1.4918 -0.4753  0.8013
 4311SOL     OW15824   3.659   4.116   3.238 -0.1874 -0.2080 -0.0554
 4311SOL    HW115825   3.585   4.098   3.296 -0.4227 -1.5166 -0.7063
 4311SOL    HW215826   3.631   4.192   3.186 -0.0874  0.7919  1.3080
 4312SOL     OW15827   5.052   9.379   4.424  0.2201  0.1496 -0.2370
 4312SOL    HW115828   5.028   9.287   4.430  1.0143 -0.0753 -0.4096
 4312SOL    HW215829   5.147   9.380   4.434 -0.0193  1.2830  3.2337
 4313SOL     OW15830   0.825   7.680   3.329 -0.2054  0.1612  0.1436
 4313SOL    HW115831   0.808   7.609   3.390  1.4321 -0.1830  0.2599
 4313SOL    HW215832   0.742   7.727   3.322 -0.6387 -0.2628  1.9976
 4314SOL     OW15833   1.485   1.595   5.865 -0.0929 -0.4703  0.4915
 4314SOL    HW115834   1.574   1.596   5.828 -0.0500  0.4447  0.6054
 4314SOL    HW215835   1.428   1.598   5.789 -0.0052  1.0950  0.4665
 4315SOL     OW15836   7.430   3.575   2.158 -0.2177 -0.0958 -0.2002
 4315SOL    HW115837   7.448   3.525   2.078  0.7444  1.4933 -1.0104
 4315SOL    HW215838   7.516   3.593   2.195 -0.6317 -0.3207  0.9065
 4316SOL     OW15839   2.549   4.643   2.173  0.7835  0.1709 -0.0585
 4316SOL    HW115840   2.618   4.698   2.209  0.7787  0.0769  0.0955
 4316SOL    HW215841   2.521   4.588   2.246 -0.3115  1.0645  0.2207
 4317SOL     OW15842   6.852   2.481   7.163 -0.3472 -0.1033 -0.0693
 4317SOL    HW115843   6.811   2.563   7.187 -0.4013 -0.1122 -0.1314
 4317SOL    HW215844   6.779   2.424   7.138 -0.2873 -0.0826 -0.2869
 4318SOL     OW15845   5.160   2.623   4.817  0.3304 -0.1746 -0.4756
 4318SOL    HW115846   5.251   2.612   4.787  0.5336  1.0317 -0.3643
 4318SOL    HW215847   5.127   2.534   4.825  1.6797 -0.6705  0.0193
 4319SOL     OW15848   5.406   8.754   9.443  0.0776 -0.5149 -0.2715
 4319SOL    HW115849   5.474   8.818   9.466 -1.4306  1.1797 -0.2868
 4319SOL    HW215850   5.424   8.733   9.351  1.7171 -1.6276  0.2550
 4320SOL     OW15851   1.378   0.306   3.568  0.0048  0.1504 -0.3951
 4320SOL    HW115852   1.346   0.277   3.653 -1.0678 -0.0001 -0.8334
 4320SOL    HW215853   1.299   0.312   3.514  0.2607  2.9615 -0.6009
 4321SOL     OW15854   5.756   3.729   3.495  1.1925 -0.5369  0.2629
 4321SOL    HW115855   5.719   3.699   3.412 -0.9686  1.0766  0.5447
 4321SOL    HW215856   5.813   3.658   3.524  0.1224 -2.1565 -1.4249
 4322SOL     OW15857   9.054   0.809   7.277  0.2073 -0.2066 -0.2946
 4322SOL    HW115858   8.969   0.774   7.250  1.0675 -1.8279 -1.0730
 4322SOL    HW215859   9.035   0.897   7.309 -1.8348 -0.7324  0.0906
 4323SOL     OW15860   8.576   1.643   4.069  0.2064 -0.3892  0.4974
 4323SOL    HW115861   8.554   1.644   3.976 -1.1625  0.6447  0.7877
 4323SOL    HW215862   8.590   1.551   4.090  1.5410 -0.5468 -0.9277
 4324SOL     OW15863   4.638   1.173   7.619  0.1965 -0.0169  0.6725
 4324SOL    HW115864   4.714   1.115   7.627  0.0108 -0.0262  2.7257
 4324SOL    HW215865   4.675   1.260   7.606  0.5324 -0.1327  0.8658
 4325SOL     OW15866   4.111   8.080   9.612  0.2899 -0.2888  0.3305
 4325SOL    HW115867   4.122   8.013   9.545 -1.6441 -0.1387 -0.1743
 4325SOL    HW215868   4.168   8.051   9.684  0.2852 -1.9154 -0.2832
 4326SOL     OW15869   5.785   7.190   7.526  0.9351  0.1429  0.3121
 4326SOL    HW115870   5.840   7.261   7.493  0.3174 -0.0630 -1.2967
 4326SOL    HW215871   5.716   7.235   7.575  0.9351  0.6131 -0.1038
 4327SOL     OW15872   7.456   1.187   4.795 -0.9254  0.2025  0.2949
 4327SOL    HW115873   7.538   1.138   4.785 -1.3208 -0.4706  0.2758
 4327SOL    HW215874   7.432   1.176   4.887 -1.6900 -0.7472 -0.0039
 4328SOL     OW15875   2.106   2.434   1.470 -0.4501  0.2500  0.1206
 4328SOL    HW115876   2.170   2.478   1.414 -1.8230  1.0037 -0.9116
 4328SOL    HW215877   2.097   2.491   1.546 -0.1276  0.2874  0.1319
 4329SOL     OW15878   2.734   9.138   0.604  0.4353 -0.5313  0.2620
 4329SOL    HW115879   2.816   9.089   0.607 -0.2603 -1.8576 -1.0184
 4329SOL    HW215880   2.695   9.114   0.520 -2.0149 -1.2123  1.4939
 4330SOL     OW15881   8.634   5.314   3.169  0.3209  0.2089  0.0188
 4330SOL    HW115882   8.663   5.373   3.099  1.2918 -0.8002 -0.4565
 4330SOL    HW215883   8.708   5.310   3.230  0.0305 -0.0326  0.3615
 4331SOL     OW15884   5.146   6.761   3.990  0.3702  0.4432  0.3270
 4331SOL    HW115885   5.190   6.749   4.074  0.3422  3.1994  0.8344
 4331SOL    HW215886   5.053   6.768   4.012  0.0042 -1.7345 -0.3249
 4332SOL     OW15887   8.553   6.145   7.684  0.9067 -0.7392  0.1513
 4332SOL    HW115888   8.599   6.100   7.755  1.5895  1.0757  0.9068
 4332SOL    HW215889   8.477   6.185   7.727  1.1361  0.0857 -0.2098
 4333SOL     OW15890   0.575   1.877   6.064  0.2714  0.1656  0.1856
 4333SOL    HW115891   0.532   1.865   5.979  0.1606  0.5109  0.1907
 4333SOL    HW215892   0.519   1.831   6.126  1.1102 -1.3326 -0.1229
 4334SOL     OW15893   3.536   6.047   2.106 -0.0409  0.0857  0.3560
 4334SOL    HW115894   3.576   6.010   2.185 -0.1977  0.8764  0.8162
 4334SOL    HW215895   3.586   6.126   2.088  1.1372 -0.9802 -1.3862
 4335SOL     OW15896   8.798   7.432   2.161  0.8510 -0.2836 -0.0746
 4335SOL    HW115897   8.808   7.485   2.082  3.5366 -0.4039  0.0829
 4335SOL    HW215898   8.767   7.347   2.130  2.8203 -0.6504 -1.1883
 4336SOL     OW15899   9.626   9.624   3.519  0.3412 -0.0234  0.1743
 4336SOL    HW115900   9.646   9.686   3.589  0.8141 -0.6872  0.6380
 4336SOL    HW215901   9.625   9.677   3.439 -1.8446  1.0607  0.8411
 4337SOL     OW15902   8.006   2.376   2.827  0.2403  0.0475 -0.5911
 4337SOL    HW115903   8.097   2.352   2.845 -0.4144 -1.3656  1.0893
 4337SOL    HW215904   7.961   2.293   2.812 -1.0362  0.5999  0.0048
 4338SOL     OW15905   9.154   3.830   3.555 -0.3986 -0.2992  0.0241
 4338SOL    HW115906   9.100   3.851   3.479  0.1017  1.7261  0.1641
 4338SOL    HW215907   9.235   3.794   3.518  0.0430  1.1348 -0.4841
 4339SOL     OW15908   3.696   7.138   0.053 -0.3576 -0.4643  0.4023
 4339SOL    HW115909   3.762   7.145   0.122  0.0339 -0.3761  0.0265
 4339SOL    HW215910   3.647   7.059   0.074 -0.1737 -0.4947  0.7217
 4340SOL     OW15911   8.291   2.405   4.061 -0.5624  0.4354 -0.0065
 4340SOL    HW115912   8.240   2.340   4.012  1.3124 -1.6360  0.5929
 4340SOL    HW215913   8.307   2.364   4.146  1.1588  1.4360  0.1922
 4341SOL     OW15914   9.633   1.410   1.546 -0.4148 -0.0325 -0.0813
 4341SOL    HW115915   9.699   1.402   1.616 -0.1384  0.1649 -0.3158
 4341SOL    HW215916   9.672   1.363   1.472  0.8331  2.5810 -1.1916
 4342SOL     OW15917   8.815   9.098   8.631  0.4197  0.6483  0.5144
 4342SOL    HW115918   8.721   9.116   8.634 -0.3483 -2.3488 -1.2649
 4342SOL    HW215919   8.845   9.140   8.551  0.6831  1.7307  1.1572
 4343SOL     OW15920   5.980   6.351   0.386  0.4969  1.0220 -0.1856
 4343SOL    HW115921   6.007   6.427   0.335  0.7777  0.2941 -1.1670
 4343SOL    HW215922   6.028   6.278   0.346  0.7623  0.4212  1.1549
 4344SOL     OW15923   6.793   7.511   8.691 -0.9056 -0.1247  0.0055
 4344SOL    HW115924   6.846   7.475   8.762 -1.7694 -1.4799 -0.0175
 4344SOL    HW215925   6.839   7.591   8.666  0.4303 -0.6012  0.8277
 4345SOL     OW15926   6.773   8.245   0.303 -0.4560  0.3030  0.0306
 4345SOL    HW115927   6.763   8.208   0.390 -0.0639 -0.7388 -0.3432
 4345SOL    HW215928   6.853   8.297   0.307  0.3788 -0.9485 -0.0850
 4346SOL     OW15929   6.640   6.685   2.979 -0.1607 -0.1039 -0.0834
 4346SOL    HW115930   6.619   6.761   3.034  0.1082 -1.1622  1.5754
 4346SOL    HW215931   6.577   6.618   3.005  1.0297 -1.1745  0.1985
 4347SOL     OW15932   2.123   6.006   0.235  0.1046  0.4303 -0.1326
 4347SOL    HW115933   2.153   6.034   0.322  0.9003 -1.2639  0.1829
 4347SOL    HW215934   2.049   5.948   0.253  0.0212  0.3860 -0.6194
 4348SOL     OW15935   0.646   2.493   7.680 -0.3390 -0.3590 -0.2671
 4348SOL    HW115936   0.555   2.517   7.663 -0.0774  0.2826 -0.8020
 4348SOL    HW215937   0.641   2.426   7.748 -1.1582  0.4554  0.5046
 4349SOL     OW15938   8.741   6.477   0.748  0.1597 -0.0739  0.0694
 4349SOL    HW115939   8.721   6.467   0.655 -0.0140 -0.0905  0.1067
 4349SOL    HW215940   8.727   6.390   0.785 -0.2410  0.0378  0.1934
 4350SOL     OW15941   2.349   1.354   4.326  0.1289  0.5967 -0.3360
 4350SOL    HW115942   2.413   1.420   4.355  0.7028  0.5696 -1.4515
 4350SOL    HW215943   2.338   1.372   4.232 -2.3604  1.2997  0.0204
 4351SOL     OW15944   0.646   8.970   7.452 -0.7758 -1.1150 -0.4514
 4351SOL    HW115945   0.712   8.914   7.493  1.4142  0.8733 -1.0260
 4351SOL    HW215946   0.584   8.989   7.522  1.1866 -0.2888  1.1759
 4352SOL     OW15947   2.386   3.592   6.167  0.4916 -0.1139  0.2526
 4352SOL    HW115948   2.295   3.566   6.155 -0.0204  1.6923 -0.0473
 4352SOL    HW215949   2.407   3.647   6.092  1.4782  0.3784  0.8505
 4353SOL     OW15950   7.608   1.148   6.788 -0.8154  0.2486  0.3845
 4353SOL    HW115951   7.619   1.145   6.693  0.7940 -1.4536  0.5553
 4353SOL    HW215952   7.544   1.079   6.807  1.0080 -1.4611  0.6911
 4354SOL     OW15953   6.217   8.508   2.792  0.1238 -0.5503  0.3438
 4354SOL    HW115954   6.171   8.475   2.870  0.4139 -1.0948  0.2855
 4354SOL    HW215955   6.175   8.593   2.774  0.7896  0.1098  1.7450
 4355SOL     OW15956   9.151   1.224   5.798  0.1358 -0.3966  0.2560
 4355SOL    HW115957   9.174   1.281   5.725  0.7902 -1.4889 -0.4065
 4355SOL    HW215958   9.212   1.247   5.867 -0.8843  1.0792  0.7139
 4356SOL     OW15959   5.035   2.852   2.704 -0.0408  0.0575  0.3139
 4356SOL    HW115960   5.099   2.906   2.657 -0.0089  0.0193  0.3143
 4356SOL    HW215961   4.974   2.916   2.743  0.0128  0.0942  0.3369
 4357SOL     OW15962   1.693   0.941   7.953 -0.0525  0.0865  0.7703
 4357SOL    HW115963   1.753   1.002   7.997  0.2618  0.8680 -0.6790
 4357SOL    HW215964   1.657   0.992   7.880 -1.0696 -0.9574  0.5210
 4358SOL     OW15965   4.319   2.410   1.222 -0.4423 -0.2645 -0.7749
 4358SOL    HW115966   4.351   2.498   1.202 -1.2327  0.1919 -0.0764
 4358SOL    HW215967   4.374   2.381   1.296 -1.3843  0.3882  0.2068
 4359SOL     OW15968   5.196   6.200   9.194 -0.2286  0.0369 -0.4194
 4359SOL    HW115969   5.257   6.128   9.208  0.2590  0.5348  0.0127
 4359SOL    HW215970   5.115   6.172   9.238 -0.2258 -0.4872 -0.7355
 4360SOL     OW15971   6.328   0.367   6.166 -0.1094 -0.1387 -0.0252
 4360SOL    HW115972   6.249   0.329   6.205 -0.5172 -0.9037 -1.5065
 4360SOL    HW215973   6.347   0.444   6.220 -1.1004 -0.6862  1.1522
 4361SOL     OW15974   3.675   7.000   1.735  0.5660  0.5484  0.3495
 4361SOL    HW115975   3.690   6.913   1.771 -0.5976  0.0045 -0.4305
 4361SOL    HW215976   3.735   7.056   1.784  1.4517 -0.7037  0.7531
 4362SOL     OW15977   4.330   6.125   1.326 -0.2197  0.2241 -0.4793
 4362SOL    HW115978   4.260   6.065   1.300  0.0242 -0.3768  0.2140
 4362SOL    HW215979   4.388   6.072   1.381  2.2312 -0.0555 -3.0839
 4363SOL     OW15980   8.276   8.550   5.731  0.1436  0.2643 -0.1962
 4363SOL    HW115981   8.357   8.523   5.688  1.6084  2.1090  1.2518
 4363SOL    HW215982   8.271   8.496   5.809 -0.5583 -0.4916 -0.7430
 4364SOL     OW15983   4.425   2.974   2.288 -0.3046 -0.8634 -0.1169
 4364SOL    HW115984   4.416   3.068   2.270 -2.6613 -1.1993 -1.0365
 4364SOL    HW215985   4.371   2.960   2.366 -0.0747 -1.4832 -0.0655
 4365SOL     OW15986   7.792   9.635   5.629 -0.1738  0.0883  0.1750
 4365SOL    HW115987   7.707   9.657   5.591  0.0720  0.5636 -0.1078
 4365SOL    HW215988   7.819   9.714   5.677  1.6118  1.2113 -2.4490
 4366SOL     OW15989   2.265   4.317   2.397 -0.3041  0.5961  0.3742
 4366SOL    HW115990   2.284   4.276   2.481  1.3790  0.2440 -0.1498
 4366SOL    HW215991   2.260   4.244   2.335  0.8851  1.0242 -0.2442
 4367SOL     OW15992   7.588   7.438   8.765 -0.0903  0.2199  0.4651
 4367SOL    HW115993   7.566   7.488   8.687  2.6896 -0.2877 -0.7802
 4367SOL    HW215994   7.551   7.351   8.750 -0.2460  0.3543  0.0742
 4368SOL     OW15995   6.651   5.011   2.740  0.1681 -0.0644  0.0652
 4368SOL    HW115996   6.732   5.021   2.789 -0.6437 -0.2438  1.5020
 4368SOL    HW215997   6.593   5.079   2.776 -1.0212 -1.3170  0.6196
 4369SOL     OW15998   3.995   3.463   6.691  0.0270  0.1342  0.2091
 4369SOL    HW115999   4.054   3.391   6.711  2.3838  1.9876  0.4201
 4369SOL    HW216000   4.014   3.486   6.600 -0.9761  0.2785  0.0183
 4370SOL     OW16001   8.733   8.249   3.139 -0.3363  0.5506 -0.0655
 4370SOL    HW116002   8.757   8.341   3.145 -2.1783  0.9947  2.1939
 4370SOL    HW216003   8.637   8.249   3.142 -0.4188 -1.3906 -1.1475
 4371SOL     OW16004   1.215   5.473   2.817  0.0422  0.1494 -0.7564
 4371SOL    HW116005   1.245   5.489   2.907 -1.8499  0.4406 -0.1277
 4371SOL    HW216006   1.257   5.543   2.766 -0.0651  0.9339  0.1832
 4372SOL     OW16007   1.501   5.578   4.665  0.3183  0.1819 -0.4851
 4372SOL    HW116008   1.434   5.633   4.707 -0.1912 -0.3239 -0.6173
 4372SOL    HW216009   1.579   5.588   4.719  0.5412  1.8047 -1.0417
 4373SOL     OW16010   6.368   8.652   6.440 -0.1948  0.3909  0.5894
 4373SOL    HW116011   6.443   8.603   6.407 -0.7673 -0.1912  0.1059
 4373SOL    HW216012   6.400   8.697   6.517  0.9760  1.1136 -0.2799
 4374SOL     OW16013   2.155   1.673   3.210  0.3148  0.2615  0.2927
 4374SOL    HW116014   2.238   1.720   3.221 -0.2220  0.6960  3.1357
 4374SOL    HW216015   2.165   1.594   3.263 -0.1121 -1.1578 -1.6099
 4375SOL     OW16016   4.235   7.953   4.338 -0.0227  0.5265 -0.8524
 4375SOL    HW116017   4.152   7.988   4.371 -0.1295 -0.9339  0.5445
 4375SOL    HW216018   4.212   7.868   4.300  0.8120  0.1728 -0.5827
 4376SOL     OW16019   5.256   1.894   1.314 -0.0375 -0.3723 -0.0301
 4376SOL    HW116020   5.250   1.802   1.340 -0.0414 -0.5721 -0.7233
 4376SOL    HW216021   5.276   1.941   1.395  1.2943 -1.1303  0.0944
 4377SOL     OW16022   2.378   0.339   0.569  0.6275  0.2250  0.1252
 4377SOL    HW116023   2.355   0.262   0.516 -1.7729 -0.8261  2.4788
 4377SOL    HW216024   2.345   0.413   0.517 -0.9065 -0.6912 -0.2833
 4378SOL     OW16025   3.233   1.621   1.176  0.2208  0.3804  0.0287
 4378SOL    HW116026   3.270   1.685   1.236  1.2805 -0.0756 -0.1213
 4378SOL    HW216027   3.252   1.536   1.216  0.2111  0.1064 -0.5401
 4379SOL     OW16028   1.687   2.333   3.409 -0.0816 -0.0989 -0.2898
 4379SOL    HW116029   1.687   2.426   3.430  1.3626 -0.5788  2.3058
 4379SOL    HW216030   1.606   2.300   3.449 -0.8086  0.0472 -1.5705
 4380SOL     OW16031   0.174   8.281   4.466  0.4565 -0.3948 -0.0040
 4380SOL    HW116032   0.119   8.326   4.402 -0.7757 -1.2583  0.4020
 4380SOL    HW216033   0.132   8.300   4.550  1.2163 -0.4683  0.3960
 4381SOL     OW16034   7.318   0.944   4.440  0.1571 -0.8816 -0.4167
 4381SOL    HW116035   7.253   0.876   4.457  0.4730 -0.8274  1.1381
 4381SOL    HW216036   7.392   0.921   4.496  0.9632 -0.2054 -1.1709
 4382SOL     OW16037   0.560   6.306   1.680 -0.5172 -0.4115  0.3049
 4382SOL    HW116038   0.592   6.366   1.747  0.9719  0.6435 -1.2562
 4382SOL    HW216039   0.639   6.260   1.650 -1.3314 -1.7093  0.0575
 4383SOL     OW16040   8.970   3.663   3.656  0.4848 -0.3311 -0.0913
 4383SOL    HW116041   9.044   3.602   3.663  0.8810  0.1235 -0.2412
 4383SOL    HW216042   9.006   3.740   3.611 -0.3417 -0.5259 -1.1305
 4384SOL     OW16043   4.705   3.057   9.399 -0.3530 -0.7608  0.5513
 4384SOL    HW116044   4.709   3.077   9.305 -0.9994 -2.3524  0.1408
 4384SOL    HW216045   4.639   3.117   9.433 -0.5222 -0.5466 -0.1263
 4385SOL     OW16046   9.504   2.730   0.788  0.7086 -0.1714  0.3767
 4385SOL    HW116047   9.556   2.650   0.790 -2.6761 -2.6637 -0.4487
 4385SOL    HW216048   9.425   2.708   0.837 -1.7328  1.4902 -2.4815
 4386SOL     OW16049   0.927   2.480   1.510  0.1396 -0.2962  0.0963
 4386SOL    HW116050   0.928   2.514   1.421  0.8135  1.8656  0.8366
 4386SOL    HW216051   0.999   2.417   1.513 -0.5276 -1.1406 -1.1196
 4387SOL     OW16052   9.133   1.059   0.696 -0.1177  1.1856  0.2981
 4387SOL    HW116053   9.056   1.015   0.734 -0.0815 -0.9995 -1.8659
 4387SOL    HW216054   9.201   0.991   0.695  0.5738  1.8405 -1.4113
 4388SOL     OW16055   4.446   8.427   1.738 -0.5525 -0.0993 -0.0097
 4388SOL    HW116056   4.394   8.435   1.659 -0.4320  0.7655 -0.0143
 4388SOL    HW216057   4.536   8.446   1.710 -0.8745  3.3441  0.8024
 4389SOL     OW16058   8.813   8.429   6.472  0.1582  0.1067  0.0311
 4389SOL    HW116059   8.842   8.374   6.545 -1.5047 -1.9246 -0.7284
 4389SOL    HW216060   8.767   8.368   6.414  1.4999  1.5963 -2.7955
 4390SOL     OW16061   7.881   0.942   1.870  0.3539 -0.3474 -0.6844
 4390SOL    HW116062   7.826   0.956   1.792  0.1429  1.2193 -0.2836
 4390SOL    HW216063   7.906   1.030   1.898 -1.3602 -0.7022  2.3205
 4391SOL     OW16064   5.764   5.845   4.385  0.3448 -0.2613  0.3549
 4391SOL    HW116065   5.767   5.940   4.372 -0.1613 -0.2442  0.3581
 4391SOL    HW216066   5.691   5.815   4.330 -0.1278 -0.5241  1.1147
 4392SOL     OW16067   2.132   3.767   2.444 -0.2786 -0.3076 -0.2374
 4392SOL    HW116068   2.202   3.796   2.503 -1.2216  0.8287  0.3517
 4392SOL    HW216069   2.169   3.778   2.357  0.6756 -0.8077  0.0846
 4393SOL     OW16070   2.278   3.848   8.469  0.4023 -0.3709 -0.4173
 4393SOL    HW116071   2.215   3.866   8.400  0.9285  0.0717 -0.7996
 4393SOL    HW216072   2.319   3.766   8.444  0.2577 -0.4549 -0.3776
 4394SOL     OW16073   6.127   1.589   2.702 -0.6524  0.0048  0.0925
 4394SOL    HW116074   6.117   1.620   2.792  1.2532  1.0699  0.0056
 4394SOL    HW216075   6.123   1.668   2.649 -1.5610 -0.5958 -0.7446
 4395SOL     OW16076   5.820   2.406   2.964  0.0596  0.4021 -0.3281
 4395SOL    HW116077   5.825   2.491   2.922 -1.8799  0.5929 -0.2588
 4395SOL    HW216078   5.749   2.360   2.919 -0.9173 -0.0420  1.5428
 4396SOL     OW16079   3.460   7.944   3.079  0.2496  0.3182  0.6799
 4396SOL    HW116080   3.411   7.896   3.145 -0.4894  0.8779  0.5475
 4396SOL    HW216081   3.404   7.945   3.001 -0.6150  2.9360  1.2259
 4397SOL     OW16082   2.609   0.764   2.658  0.3116  0.7395 -0.8045
 4397SOL    HW116083   2.577   0.837   2.605  0.6906  0.7578 -1.0117
 4397SOL    HW216084   2.536   0.702   2.661  0.4788  0.4858 -1.8130
 4398SOL     OW16085   3.638   1.957   8.586 -0.3651  0.7681 -0.4240
 4398SOL    HW116086   3.681   1.875   8.561 -0.4880  0.6570 -0.2780
 4398SOL    HW216087   3.605   1.940   8.675 -1.1333  0.6853 -0.7208
 4399SOL     OW16088   9.525   2.091   0.858 -0.7543  0.5146  0.2713
 4399SOL    HW116089   9.540   2.044   0.939  1.2735 -0.5634 -0.6722
 4399SOL    HW216090   9.549   2.182   0.877 -0.0111  0.2116  0.7892
 4400SOL     OW16091   5.378   0.652   5.681 -0.2361  0.1804 -0.0256
 4400SOL    HW116092   5.413   0.686   5.599 -0.6299  0.1605 -0.2061
 4400SOL    HW216093   5.350   0.730   5.729  1.1565  0.2843  0.6396
 4401SOL     OW16094   6.615   1.753   3.377  0.1971 -0.1360 -0.5630
 4401SOL    HW116095   6.596   1.779   3.286  0.2367  0.3949 -0.4204
 4401SOL    HW216096   6.615   1.835   3.426  1.6656 -0.2617 -0.3344
 4402SOL     OW16097   6.639   3.187   7.800 -0.1081  0.5142 -0.2224
 4402SOL    HW116098   6.673   3.270   7.767 -0.0283  0.3336 -0.5990
 4402SOL    HW216099   6.659   3.188   7.893  0.9920  0.3959 -0.4329
 4403SOL     OW16100   6.753   0.212   7.179 -0.3530  0.4283  0.6990
 4403SOL    HW116101   6.669   0.247   7.151 -0.2965 -0.1063 -0.1596
 4403SOL    HW216102   6.817   0.279   7.155 -0.3370  0.0903 -0.2311
 4404SOL     OW16103   9.249   8.951   3.314  0.4310 -0.2878  0.6298
 4404SOL    HW116104   9.178   8.912   3.365 -0.1117  0.9266  0.8533
 4404SOL    HW216105   9.218   9.040   3.295  1.9967  0.3673  0.9624
 4405SOL     OW16106   7.309   5.992   0.194 -0.7970  0.0999 -0.2723
 4405SOL    HW116107   7.269   6.063   0.143  0.4883  1.8595  1.0303
 4405SOL    HW216108   7.240   5.964   0.255 -1.2510  0.3647 -0.6575
 4406SOL     OW16109   5.278   0.172   2.775  0.6376 -0.0950  0.1393
 4406SOL    HW116110   5.245   0.092   2.817  0.3312 -0.8007 -1.3585
 4406SOL    HW216111   5.201   0.227   2.764  0.8766  0.5064  1.3222
 4407SOL     OW16112   8.021   4.031   1.658 -0.3088 -0.9629  0.0621
 4407SOL    HW116113   8.097   4.053   1.605  1.4542 -1.3791  2.2858
 4407SOL    HW216114   7.947   4.068   1.610  1.4896  1.3534 -1.1202
 4408SOL     OW16115   3.039   2.638   2.295 -0.2341  0.3593  0.2081
 4408SOL    HW116116   3.034   2.650   2.200 -1.1969 -0.1453  0.1827
 4408SOL    HW216117   3.082   2.553   2.306  0.3532  0.6548  0.2437
 4409SOL     OW16118   3.533   9.204   4.808  0.2094 -0.4127 -0.2520
 4409SOL    HW116119   3.483   9.212   4.727 -2.1008  0.5231  1.1508
 4409SOL    HW216120   3.549   9.110   4.817 -2.4326 -0.9303 -0.2001
 4410SOL     OW16121   1.658   5.921   6.690  0.0109 -0.0439  0.1362
 4410SOL    HW116122   1.688   5.895   6.777  1.6870 -0.8706 -0.6444
 4410SOL    HW216123   1.564   5.932   6.699  0.3414  1.5833  2.4628
 4411SOL     OW16124   3.381   7.342   5.673  0.2790  0.2291  0.3350
 4411SOL    HW116125   3.423   7.280   5.613  1.7777  0.5577  0.9962
 4411SOL    HW216126   3.296   7.361   5.632  0.7612 -0.4537 -1.0589
 4412SOL     OW16127   1.816   1.698   8.707  0.2809  0.2838  0.0184
 4412SOL    HW116128   1.878   1.718   8.777  0.4136  0.8018 -0.2413
 4412SOL    HW216129   1.802   1.603   8.714  1.5681  0.0457 -0.2901
 4413SOL     OW16130   5.135   0.759   9.435 -0.2700 -0.3311 -0.2013
 4413SOL    HW116131   5.118   0.733   9.344 -0.3083  1.0838 -0.6182
 4413SOL    HW216132   5.222   0.799   9.434 -0.5560  0.3299  0.2339
 4414SOL     OW16133   1.245   2.492   4.641 -0.6430  1.0222 -0.5575
 4414SOL    HW116134   1.240   2.454   4.553 -0.5508 -0.3684  0.0186
 4414SOL    HW216135   1.331   2.533   4.644  0.0249 -0.3247 -0.5923
 4415SOL     OW16136   8.753   3.323   8.725  0.1238  1.1284 -0.4871
 4415SOL    HW116137   8.798   3.252   8.678 -1.7940 -1.0030  0.6778
 4415SOL    HW216138   8.688   3.355   8.663 -0.6496  0.1276 -0.2215
 4416SOL     OW16139   6.250   7.966   2.332 -0.3232 -0.5799  0.2066
 4416SOL    HW116140   6.200   7.902   2.281  1.9591 -1.0183 -1.6500
 4416SOL    HW216141   6.337   7.928   2.340 -0.0869  0.2866  3.0488
 4417SOL     OW16142   9.338   6.491   9.259  0.4177 -0.4279 -0.5244
 4417SOL    HW116143   9.295   6.413   9.225  1.6581 -0.0133 -3.3476
 4417SOL    HW216144   9.359   6.542   9.181  1.5574  1.7193  1.0916
 4418SOL     OW16145   4.169   5.836   7.190 -0.3614 -0.1875 -0.1771
 4418SOL    HW116146   4.214   5.759   7.156  1.2566  1.0755 -1.0439
 4418SOL    HW216147   4.079   5.827   7.159  0.0071 -1.3255 -0.9753
 4419SOL     OW16148   2.435   7.084   8.976  0.3320  0.3865 -0.0939
 4419SOL    HW116149   2.395   6.998   8.969 -0.5196  0.7918 -0.3264
 4419SOL    HW216150   2.367   7.145   8.945  1.0228  1.1096 -0.2289
 4420SOL     OW16151   5.927   8.632   7.856 -0.0935  0.4256  0.0024
 4420SOL    HW116152   5.976   8.713   7.842  0.1674  0.2807  0.0511
 4420SOL    HW216153   5.977   8.566   7.809  0.9518 -0.1217  1.7684
 4421SOL     OW16154   7.760   2.290   7.290 -0.1169  0.3250  0.4320
 4421SOL    HW116155   7.842   2.339   7.292  1.3251 -1.9599  2.0543
 4421SOL    HW216156   7.731   2.296   7.199  2.5995  0.1246 -0.5616
 4422SOL     OW16157   5.802   0.746   2.271 -0.2807  0.1744  0.6926
 4422SOL    HW116158   5.839   0.726   2.357  1.3359 -0.2696 -0.0667
 4422SOL    HW216159   5.769   0.663   2.238  0.2291  0.0927  0.3780
 4423SOL     OW16160   3.667   6.900   5.028  0.0549 -0.5926  0.2872
 4423SOL    HW116161   3.616   6.944   4.961  1.3035  1.6371  0.6943
 4423SOL    HW216162   3.625   6.924   5.111 -0.1030 -1.3868  0.4440
 4424SOL     OW16163   0.895   6.689   2.330  0.3162 -0.7376  0.2123
 4424SOL    HW116164   0.970   6.740   2.302  0.7923 -0.9783  1.0453
 4424SOL    HW216165   0.910   6.602   2.292 -0.2176 -0.4348 -0.7357
 4425SOL     OW16166   0.154   4.961   1.710  0.0031  0.0811  0.0662
 4425SOL    HW116167   0.064   4.979   1.681 -0.3991  1.3148  1.9464
 4425SOL    HW216168   0.203   5.040   1.685  0.8137 -0.9450 -1.7524
 4426SOL     OW16169   4.065   2.145   6.637  0.3283  0.0288 -0.4419
 4426SOL    HW116170   4.019   2.136   6.721  1.0374 -2.0158 -0.2245
 4426SOL    HW216171   4.052   2.061   6.593  0.7226  0.7578 -2.0160
 4427SOL     OW16172   1.588   1.762   8.009 -0.1179 -0.2619 -0.2791
 4427SOL    HW116173   1.670   1.768   7.960  1.3645  0.3271  2.0841
 4427SOL    HW216174   1.578   1.847   8.051 -1.6168 -0.5319 -0.0018
 4428SOL     OW16175   0.632   6.906   5.333  0.1066  0.2038  0.2280
 4428SOL    HW116176   0.551   6.949   5.308  0.2823  0.5295  0.2077
 4428SOL    HW216177   0.605   6.827   5.379 -0.2559 -1.1130 -2.0769
 4429SOL     OW16178   4.807   3.989   2.400  0.2334  0.1958 -0.1992
 4429SOL    HW116179   4.787   3.898   2.381 -1.8477  0.8302 -1.4192
 4429SOL    HW216180   4.883   4.009   2.345 -0.7099 -0.2276 -1.7349
 4430SOL     OW16181   1.727   0.928   8.767  0.5112  0.2701  0.2926
 4430SOL    HW116182   1.664   0.998   8.749 -0.0382 -0.7771 -2.3671
 4430SOL    HW216183   1.677   0.862   8.814 -0.0740 -0.0152 -0.7028
 4431SOL     OW16184   9.376   0.845   9.450 -0.5585 -0.2234  0.0520
 4431SOL    HW116185   9.448   0.803   9.404 -0.8543 -0.9748  0.2620
 4431SOL    HW216186   9.379   0.810   9.539 -0.6965  0.3486  0.2905
 4432SOL     OW16187   0.865   4.828   1.511 -0.1428  0.1207 -0.2879
 4432SOL    HW116188   0.959   4.831   1.529 -0.0454 -1.3404 -0.4479
 4432SOL    HW216189   0.824   4.825   1.597  0.0319 -0.5794 -0.2226
 4433SOL     OW16190   4.793   4.426   4.922 -0.4231 -0.1668 -0.0707
 4433SOL    HW116191   4.777   4.371   4.999 -0.3990 -0.4986 -0.3009
 4433SOL    HW216192   4.865   4.483   4.949 -1.0915  0.4278  0.5053
 4434SOL     OW16193   7.937   8.203   9.047 -0.2134 -0.5174  0.4293
 4434SOL    HW116194   7.999   8.238   8.984 -0.5782 -0.5069  0.0724
 4434SOL    HW216195   7.917   8.277   9.105 -1.9135  0.2592 -1.0477
 4435SOL     OW16196   7.974   8.889   2.909 -0.2831 -0.3206  0.2167
 4435SOL    HW116197   8.066   8.877   2.887 -0.1433  0.0088  0.6167
 4435SOL    HW216198   7.971   8.884   3.005 -1.0082 -2.6537  0.1501
 4436SOL     OW16199   7.202   4.775   8.542  0.9889 -0.1623 -0.2375
 4436SOL    HW116200   7.181   4.831   8.467  0.3418  0.1752  0.1955
 4436SOL    HW216201   7.297   4.763   8.536  1.3461  1.9297  0.3023
 4437SOL     OW16202   0.170   3.374   0.144  0.1902  0.1715  0.0691
 4437SOL    HW116203   0.263   3.387   0.129  0.3406  0.9012  1.4519
 4437SOL    HW216204   0.153   3.284   0.117  1.3736 -0.0879  0.1363
 4438SOL     OW16205   9.638   8.251   7.389  0.5433  0.4718 -0.3250
 4438SOL    HW116206   9.702   8.180   7.381  1.3360  1.1341 -0.0266
 4438SOL    HW216207   9.689   8.326   7.420 -0.0776  1.4662 -1.5878
 4439SOL     OW16208   2.130   6.049   4.355  0.0360  0.1568  0.0718
 4439SOL    HW116209   2.037   6.070   4.359 -0.1643 -0.2518 -1.5419
 4439SOL    HW216210   2.141   5.976   4.416 -0.8231 -0.1108 -0.0813
 4440SOL     OW16211   2.436   1.255   3.268  0.1293 -0.1817  0.0828
 4440SOL    HW116212   2.444   1.176   3.321  0.0227  0.2262  0.7293
 4440SOL    HW216213   2.525   1.274   3.240  0.2859 -0.0566  0.6453
 4441SOL     OW16214   1.203   6.154   1.329  0.0254  0.2399 -0.1224
 4441SOL    HW116215   1.154   6.235   1.341 -1.2808 -0.6508  0.8139
 4441SOL    HW216216   1.137   6.085   1.328  1.2443 -1.0293  1.2118
 4442SOL     OW16217   2.515   3.977   2.805 -0.5069 -0.1178 -0.0364
 4442SOL    HW116218   2.463   3.999   2.882 -1.1682 -0.0241 -0.4979
 4442SOL    HW216219   2.605   3.967   2.838 -0.4394  1.7189  0.4573
 4443SOL     OW16220   5.331   5.868   0.141 -0.2978  0.5776  0.2802
 4443SOL    HW116221   5.395   5.918   0.190 -0.6090  2.0190 -0.7224
 4443SOL    HW216222   5.314   5.790   0.195  0.5194  1.3297  1.6675
 4444SOL     OW16223   7.170   9.323   6.889 -0.1675 -0.1883  0.3057
 4444SOL    HW116224   7.137   9.370   6.965 -0.7443  0.0923 -0.1080
 4444SOL    HW216225   7.244   9.272   6.922 -0.0728  0.3471  0.9362
 4445SOL     OW16226   3.930   9.443   3.273  0.2692 -0.1536 -0.1502
 4445SOL    HW116227   4.008   9.477   3.229 -0.1074  3.8799  1.8418
 4445SOL    HW216228   3.963   9.402   3.354  0.4039  0.2177 -0.0186
 4446SOL     OW16229   3.871   6.269   5.513  0.3448  0.2741  0.1628
 4446SOL    HW116230   3.782   6.291   5.485  0.2759 -0.4180 -0.1860
 4446SOL    HW216231   3.860   6.196   5.573  0.6152  0.7773  0.8310
 4447SOL     OW16232   0.818   3.653   2.970 -0.2960  0.0222  0.1280
 4447SOL    HW116233   0.873   3.580   2.942  0.1302 -0.2944  1.6836
 4447SOL    HW216234   0.742   3.649   2.912  0.4421 -0.6724 -0.8372
 4448SOL     OW16235   9.100   1.380   3.074  0.7740 -1.0098 -0.5696
 4448SOL    HW116236   9.128   1.469   3.094  0.9765 -0.7487 -1.9187
 4448SOL    HW216237   9.071   1.344   3.158 -0.0695  0.5947 -0.1389
 4449SOL     OW16238   8.242   5.262   7.485  0.0120 -0.1001  0.0049
 4449SOL    HW116239   8.334   5.256   7.460 -0.2014  2.5653 -1.8149
 4449SOL    HW216240   8.200   5.190   7.439  0.7774  0.4489 -1.6227
 4450SOL     OW16241   7.791   2.527   2.706  0.6465  0.3592 -0.7218
 4450SOL    HW116242   7.767   2.581   2.781  1.9759  2.0528 -1.4471
 4450SOL    HW216243   7.887   2.520   2.711  0.8688  1.2549 -2.6917
 4451SOL     OW16244   8.665   3.152   2.612 -0.0678  0.3154  0.0262
 4451SOL    HW116245   8.595   3.217   2.603 -1.8279 -1.5804 -0.6756
 4451SOL    HW216246   8.627   3.084   2.667  1.5929 -0.3170  0.4302
 4452SOL     OW16247   7.683   8.253   8.907 -0.2942  0.0707 -0.1409
 4452SOL    HW116248   7.689   8.303   8.826 -0.2028  0.2208 -0.0415
 4452SOL    HW216249   7.650   8.316   8.971 -4.4073 -0.9499 -0.9374
 4453SOL     OW16250   8.082   2.336   7.666  0.2574  0.7427  0.0729
 4453SOL    HW116251   8.064   2.352   7.758 -0.6039 -0.6202  0.1727
 4453SOL    HW216252   8.093   2.241   7.660 -0.3407  0.7385 -1.3269
 4454SOL     OW16253   7.322   7.326   2.185 -0.3493 -0.8807  0.5910
 4454SOL    HW116254   7.365   7.409   2.206  0.2968 -1.2414  0.7447
 4454SOL    HW216255   7.395   7.266   2.168 -0.8280 -1.1220 -0.6486
 4455SOL     OW16256   0.970   5.147   8.409  0.5028 -0.2746 -0.2227
 4455SOL    HW116257   0.937   5.114   8.493  1.5904 -2.5578 -0.6466
 4455SOL    HW216258   0.891   5.164   8.358 -0.1448 -2.3590 -0.0020
 4456SOL     OW16259   8.204   5.898   1.875  0.2395  0.0752  0.3271
 4456SOL    HW116260   8.134   5.866   1.818  0.6950 -0.2181 -0.0652
 4456SOL    HW216261   8.203   5.838   1.950  0.2768 -0.1177  0.1732
 4457SOL     OW16262   2.582   1.438   5.960 -0.5444  0.5928  0.1351
 4457SOL    HW116263   2.491   1.424   5.932 -1.0944  2.6723  0.7474
 4457SOL    HW216264   2.577   1.508   6.024  1.5392  0.8533  0.0693
 4458SOL     OW16265   3.868   7.908   3.873  0.4682 -0.0877 -0.3348
 4458SOL    HW116266   3.853   8.002   3.867 -2.3733 -0.4585 -0.1510
 4458SOL    HW216267   3.889   7.892   3.965  4.6147  0.6937 -0.9474
 4459SOL     OW16268   5.244   0.539   9.607 -0.4804 -0.3227  0.1533
 4459SOL    HW116269   5.313   0.531   9.540 -0.7716  2.1376 -0.5306
 4459SOL    HW216270   5.172   0.582   9.562 -1.0499  0.5319  1.8168
 4460SOL     OW16271   3.284   8.130   1.531  0.0382 -0.3475 -0.0484
 4460SOL    HW116272   3.370   8.106   1.497  0.0020 -0.9087  0.2428
 4460SOL    HW216273   3.229   8.136   1.453  0.0154 -1.3749 -0.1215
 4461SOL     OW16274   4.783   8.385   2.932  0.1435 -0.0798 -0.4010
 4461SOL    HW116275   4.731   8.332   2.993  0.2130 -0.7301 -0.8974
 4461SOL    HW216276   4.741   8.471   2.933 -0.9006 -0.5716 -0.7451
 4462SOL     OW16277   0.470   7.080   6.555 -0.3699  0.3419 -0.7051
 4462SOL    HW116278   0.460   7.023   6.631 -0.7237 -1.1144 -1.8131
 4462SOL    HW216279   0.446   7.026   6.481 -2.0206  2.3346 -1.7130
 4463SOL     OW16280   0.886   3.972   2.095 -0.2231  0.4874  0.1475
 4463SOL    HW116281   0.932   3.930   2.023  1.0237  1.2268  0.4780
 4463SOL    HW216282   0.802   3.998   2.059 -1.4478 -2.9410  0.1188
 4464SOL     OW16283   5.895   4.409   6.818 -0.0620 -0.3044  0.2890
 4464SOL    HW116284   5.942   4.326   6.829  1.0340  0.3621  0.8171
 4464SOL    HW216285   5.964   4.475   6.819 -0.8438  0.5505 -1.0678
 4465SOL     OW16286   2.250   8.155   3.080 -0.3591  0.0967 -0.4349
 4465SOL    HW116287   2.208   8.237   3.053 -1.4207  0.0701  0.9900
 4465SOL    HW216288   2.184   8.088   3.062  0.4974 -0.4649 -1.5819
 4466SOL     OW16289   7.487   3.209   1.982 -0.0731 -0.5730  0.5617
 4466SOL    HW116290   7.562   3.265   2.005  0.6093 -1.0761 -0.3592
 4466SOL    HW216291   7.514   3.121   2.010  0.0170 -0.8875 -0.4794
 4467SOL     OW16292   2.979   1.608   2.006 -0.1882  0.1297 -0.5652
 4467SOL    HW116293   3.006   1.627   2.096  1.0886 -0.9328 -0.6922
 4467SOL    HW216294   2.915   1.676   1.985 -0.5099  0.3956  1.1379
 4468SOL     OW16295   1.017   1.470   1.843  0.1364 -0.4857  0.1292
 4468SOL    HW116296   1.104   1.449   1.877  0.4976 -0.5430 -0.7978
 4468SOL    HW216297   0.957   1.448   1.915  0.9945  1.1200  1.4004
 4469SOL     OW16298   2.118   4.867   5.818  0.2715 -0.0730 -0.4232
 4469SOL    HW116299   2.059   4.852   5.892 -0.3756  1.7723 -0.5061
 4469SOL    HW216300   2.173   4.941   5.845  0.7604 -0.0790 -1.3654
 4470SOL     OW16301   2.474   5.314   1.766  0.2312 -0.2889  0.1283
 4470SOL    HW116302   2.448   5.271   1.847  0.2425  0.3870  0.5014
 4470SOL    HW216303   2.540   5.378   1.793 -0.4867  0.6399 -0.2578
 4471SOL     OW16304   2.395   5.929   7.900  0.5204 -0.1337 -0.2642
 4471SOL    HW116305   2.310   5.893   7.924  0.3022  0.5318 -0.0414
 4471SOL    HW216306   2.377   5.983   7.823  0.6563  0.4102  0.0845
 4472SOL     OW16307   4.251   7.812   3.960  0.6189 -0.1562  0.4984
 4472SOL    HW116308   4.299   7.893   3.980  0.4857  0.1051 -0.2173
 4472SOL    HW216309   4.216   7.826   3.872  0.3752 -0.8931  0.4730
 4473SOL     OW16310   3.103   1.141   2.819 -0.2257 -0.4139  0.7176
 4473SOL    HW116311   3.146   1.064   2.856 -0.6163 -0.9661  0.0461
 4473SOL    HW216312   3.033   1.106   2.764 -0.8933  0.4439  0.9920
 4474SOL     OW16313   2.465   1.249   4.935  0.1186 -0.2445  0.0152
 4474SOL    HW116314   2.490   1.221   5.023 -0.5659 -0.4379  0.1551
 4474SOL    HW216315   2.401   1.184   4.906 -0.8821  0.7007  0.0210
 4475SOL     OW16316   7.043   6.579   4.100 -0.0425  0.2618  0.3907
 4475SOL    HW116317   6.949   6.577   4.080 -0.2675  2.6874  0.9151
 4475SOL    HW216318   7.086   6.585   4.014 -0.4001  0.0232  0.1916
 4476SOL     OW16319   4.925   2.972   6.852  0.2618  0.5603 -0.4136
 4476SOL    HW116320   4.942   2.941   6.763 -1.8768 -1.2707 -0.2470
 4476SOL    HW216321   4.913   2.892   6.904  1.5536  1.5768  1.5916
 4477SOL     OW16322   5.069   3.795   1.405 -0.2087 -0.4920  0.2824
 4477SOL    HW116323   4.984   3.755   1.424 -1.2040  0.9935 -0.8591
 4477SOL    HW216324   5.063   3.821   1.313  0.3491  2.3302  0.9723
 4478SOL     OW16325   5.337   3.435   5.818 -0.7352  0.0794 -0.0409
 4478SOL    HW116326   5.321   3.425   5.724 -0.7457 -0.4660  0.0197
 4478SOL    HW216327   5.259   3.398   5.860  0.2602 -1.8133  0.2390
 4479SOL     OW16328   7.050   4.892   0.807  0.1824 -0.0301  0.3414
 4479SOL    HW116329   6.981   4.958   0.816 -1.2499 -1.4135  0.0220
 4479SOL    HW216330   7.091   4.887   0.893 -1.6092 -0.7217  1.1973
 4480SOL     OW16331   1.475   4.175   7.980  0.0007 -0.1576 -0.2714
 4480SOL    HW116332   1.545   4.178   7.915  1.1789  0.6582  0.9959
 4480SOL    HW216333   1.519   4.188   8.064 -1.2570 -2.7761  0.9087
 4481SOL     OW16334   0.064   6.707   7.077 -0.6528 -0.3842  0.1732
 4481SOL    HW116335   0.008   6.647   7.028  0.3202  0.5571 -2.2694
 4481SOL    HW216336   0.123   6.651   7.126  0.1889 -1.5206 -1.9874
 4482SOL     OW16337   1.286   8.578   3.496  0.1387 -0.3179  0.4056
 4482SOL    HW116338   1.249   8.608   3.413  0.8312 -0.2876  0.1074
 4482SOL    HW216339   1.295   8.657   3.549 -1.6110 -0.5001  1.0553
 4483SOL     OW16340   3.218   0.780   7.930 -0.0639 -0.3483 -0.0697
 4483SOL    HW116341   3.246   0.865   7.964  0.0158 -0.6733  0.7127
 4483SOL    HW216342   3.124   0.777   7.946 -0.5212  0.5314 -2.2313
 4484SOL     OW16343   0.538   8.971   3.178  0.3035  0.4521 -0.6782
 4484SOL    HW116344   0.479   9.033   3.222 -1.2972 -0.6548 -1.1775
 4484SOL    HW216345   0.533   8.892   3.232  0.4008 -0.0470 -1.3943
 4485SOL     OW16346   8.399   5.766   3.090 -0.2245 -0.0736  0.4364
 4485SOL    HW116347   8.346   5.804   3.160 -0.2428 -1.4693  1.2177
 4485SOL    HW216348   8.446   5.694   3.132 -0.2991 -0.9975 -1.0035
 4486SOL     OW16349   6.393   3.584   7.640  0.0025  0.2945  0.2731
 4486SOL    HW116350   6.410   3.653   7.576  1.3722 -0.4929 -0.2559
 4486SOL    HW216351   6.299   3.586   7.653 -0.0606  1.7966 -0.2590
 4487SOL     OW16352   6.327   6.891   8.070 -0.0312  0.0014  0.3932
 4487SOL    HW116353   6.411   6.929   8.096  0.1568  1.5593 -2.1143
 4487SOL    HW216354   6.345   6.853   7.983 -1.4923 -1.3323  0.6319
 4488SOL     OW16355   8.692   3.337   7.794  0.0649 -0.5972 -0.2565
 4488SOL    HW116356   8.674   3.323   7.701  0.5987 -1.4102 -0.2429
 4488SOL    HW216357   8.611   3.375   7.828  0.0633  0.2607 -1.1661
 4489SOL     OW16358   5.653   6.298   4.701  0.3237  0.3033  0.1669
 4489SOL    HW116359   5.629   6.367   4.639 -0.8002 -0.2687 -0.0745
 4489SOL    HW216360   5.724   6.250   4.658  0.1193  0.4233 -0.3159
 4490SOL     OW16361   6.881   0.512   9.485  0.3442  0.0179 -0.3127
 4490SOL    HW116362   6.838   0.576   9.428  0.3350  1.2789  1.0209
 4490SOL    HW216363   6.953   0.478   9.434  1.2116  2.1610 -0.6266
 4491SOL     OW16364   8.266   3.531   8.442 -0.3570  0.0624 -0.5802
 4491SOL    HW116365   8.320   3.575   8.376 -0.3302 -1.5063 -1.6714
 4491SOL    HW216366   8.304   3.443   8.448 -2.4420 -0.9360 -1.0082
 4492SOL     OW16367   4.665   2.297   3.404  0.0464  0.0893  0.4639
 4492SOL    HW116368   4.639   2.380   3.443 -2.3463 -1.4056  2.3030
 4492SOL    HW216369   4.754   2.282   3.438 -0.7762  0.3415  2.9116
 4493SOL     OW16370   8.169   8.068   8.152  0.2753  0.3064 -0.3651
 4493SOL    HW116371   8.175   8.085   8.246  1.6844  1.0782 -0.5689
 4493SOL    HW216372   8.157   8.154   8.112 -2.8730 -0.2027 -0.7898
 4494SOL     OW16373   6.010   9.531   0.144 -0.3767 -0.6709  0.2704
 4494SOL    HW116374   5.965   9.591   0.203 -1.6845  0.3219 -1.6269
 4494SOL    HW216375   5.969   9.446   0.161 -1.1044 -0.2977  0.4164
 4495SOL     OW16376   9.454   0.487   5.582 -0.3364 -0.3375 -0.1908
 4495SOL    HW116377   9.394   0.546   5.628  0.5797  0.7230 -0.2922
 4495SOL    HW216378   9.444   0.510   5.490  1.9267  1.6319 -0.0615
 4496SOL     OW16379   1.683   0.626   2.154 -0.0548 -0.0265 -0.1258
 4496SOL    HW116380   1.648   0.713   2.169  0.5742 -0.1688  2.9567
 4496SOL    HW216381   1.764   0.623   2.206 -1.0726 -2.9824  1.6015
 4497SOL     OW16382   3.777   8.620   7.717  0.6590  0.2998  0.3292
 4497SOL    HW116383   3.853   8.607   7.660  0.1169 -1.2491 -0.0989
 4497SOL    HW216384   3.712   8.662   7.662  0.4000 -0.5046  0.0173
 4498SOL     OW16385   7.252   3.679   3.440 -0.4339 -0.0685  0.0226
 4498SOL    HW116386   7.183   3.745   3.437  0.8150  1.2884 -0.6874
 4498SOL    HW216387   7.236   3.624   3.364  0.0625  1.1290 -0.9836
 4499SOL     OW16388   0.336   2.774   7.389 -0.1837 -0.0592  0.1107
 4499SOL    HW116389   0.411   2.770   7.330  0.6629 -0.3816  1.1779
 4499SOL    HW216390   0.306   2.865   7.383 -0.8137 -0.3426 -1.6244
 4500SOL     OW16391   9.467   1.377   8.438 -0.2282 -0.4102 -0.4183
 4500SOL    HW116392   9.417   1.320   8.380  3.5174 -0.7953 -3.6929
 4500SOL    HW216393   9.450   1.466   8.405 -0.6363 -0.2939  0.0941
 4501SOL     OW16394   9.409   2.477   8.949  0.3602  0.0842  0.6703
 4501SOL    HW116395   9.400   2.488   8.854 -0.9902 -1.1596  0.6281
 4501SOL    HW216396   9.335   2.526   8.986 -0.5197 -1.4080  0.9351
 4502SOL     OW16397   2.970   3.824   0.147 -0.4910 -0.5403 -0.3622
 4502SOL    HW116398   3.020   3.897   0.183 -0.4617 -1.0340  0.6289
 4502SOL    HW216399   2.904   3.805   0.214  0.5597 -2.4935  0.1825
 4503SOL     OW16400   1.086   3.639   7.677  0.3546 -0.2219  0.0933
 4503SOL    HW116401   1.166   3.591   7.698  1.1093  0.2569 -1.5184
 4503SOL    HW216402   1.097   3.724   7.720 -0.3687 -0.9526  1.8038
 4504SOL     OW16403   2.015   6.052   3.508  0.5250  0.2002  0.4623
 4504SOL    HW116404   1.934   6.021   3.550  1.5562 -1.7088  1.1670
 4504SOL    HW216405   2.082   6.044   3.577  1.8477 -0.9740 -0.8989
 4505SOL     OW16406   0.720   1.444   6.236  0.1298 -0.8944 -0.2463
 4505SOL    HW116407   0.770   1.481   6.308  1.5728 -2.2066 -0.5082
 4505SOL    HW216408   0.651   1.392   6.279 -1.1164  0.9534  0.1145
 4506SOL     OW16409   5.906   6.082   1.560 -0.0768 -0.1241 -0.4569
 4506SOL    HW116410   5.918   6.165   1.606  3.9096  1.0337 -3.0237
 4506SOL    HW216411   5.882   6.107   1.470  0.1447 -1.8014 -1.0246
 4507SOL     OW16412   7.608   8.743   2.458 -0.3267  0.5919 -0.4113
 4507SOL    HW116413   7.524   8.770   2.422 -0.0106  1.6136 -0.3911
 4507SOL    HW216414   7.595   8.746   2.553 -0.6853 -0.6138 -0.4041
 4508SOL     OW16415   9.466   4.704   6.434 -0.5761 -0.1296  0.6918
 4508SOL    HW116416   9.442   4.652   6.357  0.3851 -1.4046  1.2261
 4508SOL    HW216417   9.495   4.640   6.499  0.6302  1.0693  1.3905
 4509SOL     OW16418   4.908   1.076   4.449  0.5046 -0.7767  0.4299
 4509SOL    HW116419   4.967   1.085   4.374  1.5598 -3.0463  0.9311
 4509SOL    HW216420   4.820   1.079   4.410  0.7491  3.1665 -0.2715
 4510SOL     OW16421   6.174   1.634   6.231  0.0515  0.2386 -0.2465
 4510SOL    HW116422   6.192   1.563   6.293  2.5406  0.1835 -0.9188
 4510SOL    HW216423   6.156   1.710   6.285 -0.9586 -0.5067  0.4983
 4511SOL     OW16424   5.351   9.177   8.114  0.2662 -0.1839  0.1417
 4511SOL    HW116425   5.364   9.124   8.036 -0.0529  0.5179 -0.4014
 4511SOL    HW216426   5.304   9.255   8.083  1.6455  0.9241  0.7107
 4512SOL     OW16427   8.765   6.572   1.761  0.5184  0.7341 -0.5560
 4512SOL    HW116428   8.797   6.624   1.835  0.9831 -1.2307  0.7185
 4512SOL    HW216429   8.681   6.538   1.790  0.2726  0.6748 -1.3109
 4513SOL     OW16430   0.217   6.759   2.041 -0.2717  0.7970 -1.1698
 4513SOL    HW116431   0.263   6.707   1.975  0.1939 -1.4729  0.8188
 4513SOL    HW216432   0.285   6.790   2.100 -0.9586 -0.9063  0.6583
 4514SOL     OW16433   0.514   4.828   1.404  0.3816 -0.4720 -0.2675
 4514SOL    HW116434   0.524   4.733   1.415  1.1190 -0.2809  0.9524
 4514SOL    HW216435   0.552   4.865   1.484 -2.8870  0.7253  0.8975
 4515SOL     OW16436   9.110   4.546   8.767 -0.2958 -0.8112 -0.0116
 4515SOL    HW116437   9.067   4.590   8.841  0.4968 -2.0779  1.2498
 4515SOL    HW216438   9.193   4.515   8.803 -0.3936 -2.4414 -1.1208
 4516SOL     OW16439   1.625   5.070   8.916  0.9290  0.6584 -0.1483
 4516SOL    HW116440   1.592   5.143   8.968  0.2352  0.8379 -0.8071
 4516SOL    HW216441   1.718   5.067   8.935  0.8402  1.2539  0.4445
 4517SOL     OW16442   0.998   0.672   1.109 -0.4459  0.6065 -0.3407
 4517SOL    HW116443   1.004   0.658   1.203  0.5530  0.6462 -0.3937
 4517SOL    HW216444   0.995   0.767   1.099  0.3294  0.6356 -0.3840
 4518SOL     OW16445   7.821   4.217   4.979 -0.0255  0.0115  0.2364
 4518SOL    HW116446   7.889   4.281   5.003  0.9514 -0.3373 -1.4124
 4518SOL    HW216447   7.744   4.271   4.960 -0.7572  0.3349  3.4579
 4519SOL     OW16448   1.055   1.004   4.419 -0.1118 -0.5001 -0.2846
 4519SOL    HW116449   1.069   0.920   4.464 -0.8279  0.0555  1.0313
 4519SOL    HW216450   1.137   1.051   4.429 -0.9276  0.5071  2.4767
 4520SOL     OW16451   9.598   5.838   7.155  0.1461 -0.8325  0.7732
 4520SOL    HW116452   9.596   5.819   7.249  1.8259 -1.4665  0.7117
 4520SOL    HW216453   9.691   5.833   7.132  0.0176  1.3886 -0.5189
 4521SOL     OW16454   7.335   2.849   5.188  0.4022 -0.6195 -0.0816
 4521SOL    HW116455   7.409   2.905   5.211  0.0129 -0.0003 -0.3113
 4521SOL    HW216456   7.358   2.764   5.224  1.2151 -0.4327 -0.1314
 4522SOL     OW16457   2.072   8.545   7.750 -0.6836 -0.4065 -0.4711
 4522SOL    HW116458   2.087   8.600   7.673  1.4563 -0.3875 -0.1062
 4522SOL    HW216459   2.155   8.550   7.799 -0.4407 -3.8206 -0.3268
 4523SOL     OW16460   6.774   1.075   5.823 -0.3081 -0.0092  0.1421
 4523SOL    HW116461   6.712   1.003   5.834  0.7401 -0.9256  0.2340
 4523SOL    HW216462   6.854   1.033   5.789  0.5026  1.0271  0.6990
 4524SOL     OW16463   1.749   4.254   1.961 -0.0889 -0.6769 -0.3943
 4524SOL    HW116464   1.737   4.309   1.884 -0.3365 -0.7157 -0.3828
 4524SOL    HW216465   1.844   4.254   1.975 -0.1561  0.7792  0.3327
 4525SOL     OW16466   3.072   1.109   4.030  0.2019  0.1841  0.4135
 4525SOL    HW116467   2.977   1.106   4.037  0.2131  1.1016  1.1733
 4525SOL    HW216468   3.103   1.091   4.119  0.6483  2.3714  0.7519
 4526SOL     OW16469   0.963   2.707   2.775 -0.1324  0.0226 -0.8509
 4526SOL    HW116470   0.886   2.715   2.720  0.3490  1.6873 -1.3377
 4526SOL    HW216471   0.974   2.794   2.814 -0.2260 -0.9703  1.5906
 4527SOL     OW16472   7.659   2.280   1.210  0.1256  0.7071 -0.4792
 4527SOL    HW116473   7.737   2.335   1.204  1.2587 -0.8549 -0.7287
 4527SOL    HW216474   7.652   2.239   1.123  0.1886 -0.6346  0.1192
 4528SOL     OW16475   8.380   7.508   3.942  0.2958 -0.5625 -0.1529
 4528SOL    HW116476   8.408   7.481   4.030  1.7054  0.1031 -0.3691
 4528SOL    HW216477   8.353   7.600   3.953 -0.5528 -0.7919 -0.2255
 4529SOL     OW16478   0.979   1.345   1.319 -0.6797 -0.1436 -0.2928
 4529SOL    HW116479   0.887   1.333   1.294 -1.2323  0.2806  1.4378
 4529SOL    HW216480   0.976   1.373   1.410  1.2738 -2.9287  0.7658
 4530SOL     OW16481   7.550   5.951   9.286 -0.2303 -0.3620 -0.3696
 4530SOL    HW116482   7.624   5.923   9.231  1.0307 -1.7144  1.8574
 4530SOL    HW216483   7.480   5.890   9.264  0.8996 -2.1985  0.8419
 4531SOL     OW16484   7.940   5.907   3.848  0.6466 -0.6181  0.5557
 4531SOL    HW116485   7.996   5.836   3.815  1.6851  0.6768 -0.5989
 4531SOL    HW216486   7.901   5.944   3.769  0.5409  0.4364  1.0912
 4532SOL     OW16487   0.451   4.289   4.890  0.2333 -0.2247  0.0604
 4532SOL    HW116488   0.496   4.210   4.861  1.8760  0.2821  1.0506
 4532SOL    HW216489   0.409   4.324   4.811  0.5506 -1.3922 -0.6440
 4533SOL     OW16490   7.735   3.981   1.543  0.6239 -0.5200 -0.0275
 4533SOL    HW116491   7.678   3.905   1.538  0.7405 -0.7774  1.7938
 4533SOL    HW216492   7.690   4.049   1.493 -0.1363 -1.3870 -0.5425
 4534SOL     OW16493   6.098   7.390   6.005  0.3008  0.4153 -0.0658
 4534SOL    HW116494   6.144   7.416   5.925 -0.6937 -1.0856 -1.1720
 4534SOL    HW216495   6.078   7.473   6.049  3.0273  1.1833 -0.0738
 4535SOL     OW16496   8.895   1.007   0.883  0.6162  0.2594  0.1699
 4535SOL    HW116497   8.874   0.916   0.904  2.8417 -0.7217 -1.4749
 4535SOL    HW216498   8.966   1.030   0.943  0.6864  0.5988 -0.0393
 4536SOL     OW16499   9.511   5.207   1.154  0.0831 -0.1904 -0.2359
 4536SOL    HW116500   9.503   5.237   1.244 -0.7194  0.7492 -0.6074
 4536SOL    HW216501   9.459   5.127   1.150  0.9890 -0.8179  0.3892
 4537SOL     OW16502   1.547   0.556   7.246 -0.2797 -0.2544 -0.0394
 4537SOL    HW116503   1.554   0.461   7.248  0.6827 -0.2956 -2.1431
 4537SOL    HW216504   1.545   0.578   7.152 -1.4442  1.7471  0.3796
 4538SOL     OW16505   8.214   0.755   6.334  0.1565 -0.3147 -0.0983
 4538SOL    HW116506   8.122   0.727   6.326  0.2543 -0.2603 -1.8434
 4538SOL    HW216507   8.262   0.673   6.341  0.0388 -0.3699  0.0940
 4539SOL     OW16508   1.864   9.285   7.334  0.1061  0.0258 -0.6494
 4539SOL    HW116509   1.802   9.250   7.270 -0.6277 -2.6423  1.3200
 4539SOL    HW216510   1.886   9.210   7.389  1.3583  1.9578  1.6662
 4540SOL     OW16511   0.726   5.113   3.151 -0.2113  0.7242  0.1489
 4540SOL    HW116512   0.721   5.182   3.084 -0.7660 -0.4325 -1.0450
 4540SOL    HW216513   0.716   5.160   3.234 -0.0022  2.1480 -0.5927
 4541SOL     OW16514   8.923   8.106   4.549  0.1053  0.5304 -0.0467
 4541SOL    HW116515   9.014   8.136   4.550  0.4856 -0.2776  3.7676
 4541SOL    HW216516   8.882   8.149   4.624 -2.7151  0.8182 -1.6192
 4542SOL     OW16517   1.947   7.437   1.334  0.3377 -0.8335 -0.2744
 4542SOL    HW116518   2.011   7.395   1.392  0.2439 -0.7754 -0.1285
 4542SOL    HW216519   1.952   7.386   1.253  0.5919 -0.8095 -0.2766
 4543SOL     OW16520   7.202   6.864   6.390 -0.1822  0.2995  0.8550
 4543SOL    HW116521   7.236   6.937   6.339  0.4965 -1.4189 -1.2994
 4543SOL    HW216522   7.241   6.874   6.477 -0.6797  2.8358  0.8492
 4544SOL     OW16523   2.215   3.305   3.989 -0.5023  0.1179 -0.3470
 4544SOL    HW116524   2.297   3.336   3.952  1.3103 -0.8699  2.4507
 4544SOL    HW216525   2.202   3.218   3.950 -1.1675  0.9556 -2.0473
 4545SOL     OW16526   3.562   8.848   2.975  0.5579  0.3265  0.0323
 4545SOL    HW116527   3.587   8.928   3.021  1.0690 -0.3958  1.0403
 4545SOL    HW216528   3.504   8.802   3.035 -2.1433  1.2714 -1.6841
 4546SOL     OW16529   2.734   8.954   9.134 -0.0386  0.5010  0.3266
 4546SOL    HW116530   2.756   8.954   9.227 -2.8867  1.0242  1.0891
 4546SOL    HW216531   2.643   8.923   9.130 -0.0955  0.7628 -2.2583
 4547SOL     OW16532   7.908   8.833   5.964 -0.6117  0.3349 -0.2641
 4547SOL    HW116533   7.834   8.781   5.932 -1.1923  1.0416 -0.1049
 4547SOL    HW216534   7.879   8.924   5.955 -1.3778  0.6190  3.3900
 4548SOL     OW16535   4.007   8.528   9.191 -0.4564 -0.3925  0.6331
 4548SOL    HW116536   3.911   8.525   9.193 -0.6098  0.4767 -1.8621
 4548SOL    HW216537   4.028   8.621   9.197  0.1123 -0.4305 -0.4389
 4549SOL     OW16538   9.079   4.238   4.814 -0.1333  0.1117 -0.8854
 4549SOL    HW116539   9.127   4.171   4.765  1.0397  0.6933 -0.5762
 4549SOL    HW216540   8.989   4.206   4.817  0.7846 -2.6074  1.2285
 4550SOL     OW16541   0.901   6.880   0.682  0.1527 -0.1590 -0.3783
 4550SOL    HW116542   0.874   6.972   0.689 -0.7628 -0.4908  0.7067
 4550SOL    HW216543   0.820   6.830   0.690  0.7591 -1.1018  0.0460
 4551SOL     OW16544   2.473   0.361   5.593 -0.2756 -0.2777 -0.0317
 4551SOL    HW116545   2.403   0.394   5.536 -1.0866  1.3719  1.7965
 4551SOL    HW216546   2.552   0.403   5.560 -0.6958  0.4860 -0.0907
 4552SOL     OW16547   1.221   0.452   1.669 -0.0076 -0.0017  0.0221
 4552SOL    HW116548   1.135   0.452   1.628 -0.3034  0.0185  0.6323
 4552SOL    HW216549   1.281   0.424   1.600 -0.6586 -1.2189 -0.0711
 4553SOL     OW16550   4.262   3.743   8.620 -0.0003  0.1021  0.3207
 4553SOL    HW116551   4.309   3.792   8.687 -0.4065  0.4507  0.3617
 4553SOL    HW216552   4.209   3.679   8.668 -1.4705  1.3563  0.4777
 4554SOL     OW16553   5.633   7.423   3.485 -0.2137 -0.2131  0.0137
 4554SOL    HW116554   5.659   7.395   3.397 -2.4008 -0.9828 -0.4642
 4554SOL    HW216555   5.637   7.343   3.538 -0.4103 -0.0864  0.2225
 4555SOL     OW16556   3.091   6.308   6.916  0.2331  0.3494  0.2703
 4555SOL    HW116557   3.013   6.332   6.966 -0.2079 -1.0111  0.2808
 4555SOL    HW216558   3.061   6.307   6.825  0.3477  0.2668  0.2328
 4556SOL     OW16559   0.346   3.554   9.353  0.2768 -0.4239  0.1153
 4556SOL    HW116560   0.355   3.640   9.312 -2.2036  0.3837  1.1204
 4556SOL    HW216561   0.402   3.557   9.430 -1.0253  0.9357  1.0467
 4557SOL     OW16562   7.344   7.645   7.497 -0.0217 -0.0997 -0.9173
 4557SOL    HW116563   7.439   7.635   7.503  0.1661  0.3449 -2.6509
 4557SOL    HW216564   7.327   7.660   7.404 -1.7780  0.0348 -0.6116
 4558SOL     OW16565   6.880   7.905   5.561 -0.3099  0.3118  0.1038
 4558SOL    HW116566   6.915   7.937   5.478 -0.5051 -1.0963 -0.5410
 4558SOL    HW216567   6.926   7.957   5.627  1.0400  0.3602 -0.8246
 4559SOL     OW16568   4.601   7.473   8.619  0.6159  0.3533 -0.3245
 4559SOL    HW116569   4.626   7.406   8.555  1.7194  0.2558  0.1962
 4559SOL    HW216570   4.626   7.437   8.703 -0.2416  0.7611  0.1253
 4560SOL     OW16571   4.955   2.022   3.017 -0.3504 -0.3923 -0.5800
 4560SOL    HW116572   4.923   1.933   3.032  1.4012 -1.0360 -0.3712
 4560SOL    HW216573   4.962   2.030   2.922 -0.6482 -0.4132 -0.6051
 4561SOL     OW16574   7.966   8.097   2.759  0.0564 -0.5180  0.3344
 4561SOL    HW116575   8.010   8.128   2.838  0.3996 -0.5914  0.1769
 4561SOL    HW216576   7.990   8.004   2.753  0.1889 -0.4649  0.0410
 4562SOL     OW16577   3.403   3.097   6.026 -0.1826 -0.5483  0.2955
 4562SOL    HW116578   3.355   3.016   6.008  2.5110 -2.4336  0.8384
 4562SOL    HW216579   3.489   3.067   6.055  0.4341  2.5325  2.1098
 4563SOL     OW16580   4.747   5.958   4.486 -0.1976 -0.3997 -0.6445
 4563SOL    HW116581   4.674   5.910   4.448 -0.9932 -0.2822  0.6952
 4563SOL    HW216582   4.771   6.022   4.419 -0.7811 -0.9663 -1.4141
 4564SOL     OW16583   1.063   0.780   4.141  0.1044 -0.1743  0.1712
 4564SOL    HW116584   1.012   0.842   4.194  0.5961  0.3904 -0.0026
 4564SOL    HW216585   1.121   0.736   4.203  0.3088  0.1063  0.1792
 4565SOL     OW16586   7.496   4.748   4.557 -0.6139  0.1422 -0.6528
 4565SOL    HW116587   7.421   4.781   4.507 -0.4089  0.3451 -0.8261
 4565SOL    HW216588   7.572   4.775   4.506 -0.4036  0.3710 -0.2152
 4566SOL     OW16589   7.836   5.431   4.648  1.0788 -0.1070 -0.2376
 4566SOL    HW116590   7.782   5.483   4.588  0.0789  0.7191  1.2992
 4566SOL    HW216591   7.777   5.408   4.719  2.7884  1.0994  1.6823
 4567SOL     OW16592   9.356   3.721   7.930  0.3507 -0.3230  0.0322
 4567SOL    HW116593   9.396   3.741   7.845  0.0097 -0.6695 -0.2103
 4567SOL    HW216594   9.429   3.728   7.993  0.7621 -0.7871 -0.3862
 4568SOL     OW16595   3.530   9.576   3.440  0.3568  0.2639  0.0360
 4568SOL    HW116596   3.442   9.556   3.471  0.4029  0.7601  0.5128
 4568SOL    HW216597   3.556   9.500   3.388  0.2082 -0.5184  1.0788
 4569SOL     OW16598   1.241   6.732   5.383  0.2524  0.3483  0.0016
 4569SOL    HW116599   1.195   6.721   5.300 -1.0777 -1.4109  0.8871
 4569SOL    HW216600   1.227   6.824   5.406  1.5475  1.1433 -2.1744
 4570SOL     OW16601   7.278   3.274   1.517  0.5862 -0.0828 -0.7082
 4570SOL    HW116602   7.203   3.219   1.541  0.2591  0.4621 -0.4616
 4570SOL    HW216603   7.311   3.236   1.436 -0.3579  0.0608 -1.1737
 4571SOL     OW16604   5.018   5.166   2.634 -0.2916  0.1678 -0.5727
 4571SOL    HW116605   4.945   5.203   2.683 -1.3975 -0.3578 -1.7878
 4571SOL    HW216606   5.043   5.088   2.684  1.5981  2.0296  1.6095
 4572SOL     OW16607   7.802   7.411   2.117  0.6918  0.3382 -0.5084
 4572SOL    HW116608   7.774   7.335   2.167 -0.7854  1.1704 -0.0221
 4572SOL    HW216609   7.721   7.450   2.084  1.1927  2.9135  1.0189
 4573SOL     OW16610   7.204   3.391   7.209  0.0655  0.0261 -0.1245
 4573SOL    HW116611   7.112   3.373   7.192 -0.0277  0.2702  0.1241
 4573SOL    HW216612   7.210   3.486   7.211  0.3803  0.0168 -0.4441
 4574SOL     OW16613   7.365   5.093   6.552  0.0099 -0.4460  0.0435
 4574SOL    HW116614   7.391   5.115   6.641  0.1140 -0.9516  0.1388
 4574SOL    HW216615   7.282   5.138   6.539  1.0172  1.4338 -0.3582
 4575SOL     OW16616   0.188   0.121   6.147 -0.2632  0.5846 -0.6613
 4575SOL    HW116617   0.114   0.111   6.207  0.5027 -0.5145  0.1367
 4575SOL    HW216618   0.209   0.031   6.120  1.8352  0.6824  0.4658
 4576SOL     OW16619   7.446   8.017   9.047 -0.0968  0.3102 -0.3925
 4576SOL    HW116620   7.507   8.020   9.120  0.3858 -1.4390 -0.6642
 4576SOL    HW216621   7.498   7.984   8.973 -0.8514  0.8873 -1.2043
 4577SOL     OW16622   3.964   9.137   3.792 -0.2377 -0.0113 -0.0008
 4577SOL    HW116623   4.050   9.116   3.828 -0.0902  1.6824  0.7140
 4577SOL    HW216624   3.939   9.058   3.744  0.8819 -1.2272  1.3168
 4578SOL     OW16625   6.043   7.660   5.459 -0.1119 -0.4029 -0.0712
 4578SOL    HW116626   6.030   7.622   5.372 -0.1287  0.9577 -0.6847
 4578SOL    HW216627   5.985   7.736   5.461 -0.6615 -0.8228  1.4170
 4579SOL     OW16628   8.839   2.665   9.307  0.5691  0.4196  0.4229
 4579SOL    HW116629   8.864   2.756   9.291 -0.5735  1.0923  2.1929
 4579SOL    HW216630   8.753   2.656   9.266  1.3249 -0.3367 -1.0568
 4580SOL     OW16631   9.467   4.102   2.872  0.5134  0.2055 -0.4427
 4580SOL    HW116632   9.451   4.181   2.924  1.1283  0.3186 -0.4144
 4580SOL    HW216633   9.512   4.043   2.932 -0.4011 -0.3767 -0.3076
 4581SOL     OW16634   2.179   0.067   9.003  0.0034 -0.2220 -0.5350
 4581SOL    HW116635   2.086   0.047   9.003 -0.2195  0.5115  1.8005
 4581SOL    HW216636   2.188   0.140   9.065  2.1305 -0.2961 -0.6787
 4582SOL     OW16637   7.995   9.005   0.074 -0.3568  0.0655 -0.1713
 4582SOL    HW116638   8.089   9.001   0.091 -0.3356 -0.8987 -0.4215
 4582SOL    HW216639   7.956   9.029   0.158  0.2164  2.2070 -0.4713
 4583SOL     OW16640   6.923   3.769   3.773 -0.0971 -0.0640  0.3935
 4583SOL    HW116641   6.982   3.707   3.814  0.7647  0.1638 -0.4720
 4583SOL    HW216642   6.911   3.736   3.684 -0.8592  0.1797  0.3977
 4584SOL     OW16643   3.112   9.528   1.626 -0.0000 -0.1213  0.0782
 4584SOL    HW116644   3.104   9.434   1.610 -0.9234 -0.0475  0.0669
 4584SOL    HW216645   3.146   9.563   1.544 -1.9111 -0.1376 -0.7633
 4585SOL     OW16646   6.979   2.138   1.747  0.2773 -0.2407 -0.4008
 4585SOL    HW116647   7.014   2.079   1.814 -1.2235 -0.6838  0.0300
 4585SOL    HW216648   6.887   2.112   1.738  0.0910  0.7609 -1.6130
 4586SOL     OW16649   2.329   7.425   0.440 -0.1846 -0.2940 -0.0200
 4586SOL    HW116650   2.326   7.519   0.421 -0.4234  0.2698  2.5575
 4586SOL    HW216651   2.412   7.396   0.402 -0.5580  0.6960 -1.7318
 4587SOL     OW16652   2.581   2.387   4.085  0.2686  0.1733  0.1504
 4587SOL    HW116653   2.671   2.414   4.104 -0.4071  2.2965  0.5737
 4587SOL    HW216654   2.568   2.309   4.138  1.3528  0.7722  1.3744
 4588SOL     OW16655   5.245   8.206   1.109 -0.8780  0.2038  0.3037
 4588SOL    HW116656   5.258   8.286   1.057 -1.5096  1.2907  1.7697
 4588SOL    HW216657   5.173   8.227   1.169  0.4278 -0.6580  2.2783
 4589SOL     OW16658   9.135   3.137   6.085  0.0212 -0.5396 -0.2247
 4589SOL    HW116659   9.071   3.068   6.071 -1.0677  0.1430  1.0674
 4589SOL    HW216660   9.107   3.208   6.027 -0.2331 -0.3430  0.1365
 4590SOL     OW16661   6.731   1.344   3.623 -0.0703 -0.4965 -0.0110
 4590SOL    HW116662   6.764   1.267   3.670 -0.5856 -1.8092 -1.7155
 4590SOL    HW216663   6.661   1.378   3.679  1.6650  0.1454  1.8732
 4591SOL     OW16664   0.725   7.838   8.136 -0.0436 -0.2748 -0.2639
 4591SOL    HW116665   0.800   7.808   8.186 -0.6776  0.1940  1.0112
 4591SOL    HW216666   0.663   7.765   8.138  1.2177 -1.5966 -3.3029
 4592SOL     OW16667   0.053   3.894   5.140  0.1612  0.2894  0.8631
 4592SOL    HW116668   0.118   3.826   5.155  0.6853  0.5997  0.0401
 4592SOL    HW216669  -0.028   3.857   5.176  0.6315 -0.3763  1.2744
 4593SOL     OW16670   5.269   3.974   5.940  0.2878  0.2798  0.3578
 4593SOL    HW116671   5.313   4.012   5.864  0.0011  0.3704  0.2368
 4593SOL    HW216672   5.285   3.880   5.932 -1.0952  0.0950 -0.7091
 4594SOL     OW16673   7.967   8.033   6.113 -0.1844  0.2756 -0.5440
 4594SOL    HW116674   8.048   8.063   6.073  0.2261  0.5440  0.4472
 4594SOL    HW216675   7.918   8.113   6.134  0.0420  0.1958  0.3418
 4595SOL     OW16676   7.742   0.910   0.072 -0.0230 -0.5055 -0.2195
 4595SOL    HW116677   7.657   0.912   0.116  0.7510 -1.6245  1.4019
 4595SOL    HW216678   7.804   0.879   0.138  1.3870 -1.2381 -1.7877
 4596SOL     OW16679   1.577   8.450   8.628  0.2829 -0.2262  0.5053
 4596SOL    HW116680   1.537   8.495   8.553  2.0052  1.7946  0.7003
 4596SOL    HW216681   1.569   8.357   8.607 -2.2652  0.1480 -0.5658
 4597SOL     OW16682   1.873   9.569   0.105  0.1809  0.0402 -0.2355
 4597SOL    HW116683   1.906   9.605   0.023 -0.1936 -0.2492 -0.5164
 4597SOL    HW216684   1.942   9.509   0.135  0.0753 -0.2748 -0.6224
 4598SOL     OW16685   6.860   9.546   0.113 -0.6611  0.5638 -0.2977
 4598SOL    HW116686   6.905   9.511   0.190 -0.5936 -1.8793 -1.3545
 4598SOL    HW216687   6.930   9.582   0.058 -0.5476  0.9763  0.1079
 4599SOL     OW16688   1.520   6.638   1.636 -0.5818  0.0275  0.6893
 4599SOL    HW116689   1.613   6.616   1.626 -0.5087  0.3320  0.6855
 4599SOL    HW216690   1.519   6.713   1.695 -0.6663  1.3712 -0.9316
 4600SOL     OW16691   4.049   4.726   7.642 -0.4958  0.4637  0.1302
 4600SOL    HW116692   3.983   4.677   7.691 -0.8871  0.9630  0.0981
 4600SOL    HW216693   4.001   4.769   7.572  0.1799 -0.9891 -1.3060
 4601SOL     OW16694   7.734   0.950   3.221 -0.1968  0.3128  0.2887
 4601SOL    HW116695   7.648   0.972   3.185 -0.6097  0.8796  1.5581
 4601SOL    HW216696   7.714   0.908   3.305  0.7600  0.1372  0.4310
 4602SOL     OW16697   0.719   1.248   3.812  0.2946 -0.4073 -0.3849
 4602SOL    HW116698   0.757   1.267   3.898 -0.0639  0.5446 -0.4324
 4602SOL    HW216699   0.790   1.267   3.750  0.5393 -1.0523 -0.3120
 4603SOL     OW16700   7.987   3.654   4.927 -0.6636  0.0484  0.7661
 4603SOL    HW116701   8.024   3.727   4.876 -0.7830 -0.1510  0.3860
 4603SOL    HW216702   7.913   3.623   4.874 -2.1977  1.2452  2.1077
 4604SOL     OW16703   3.330   2.000   1.495 -0.0137 -0.3185 -0.3602
 4604SOL    HW116704   3.289   2.085   1.514  0.0020 -0.0004 -1.6210
 4604SOL    HW216705   3.357   1.966   1.580 -0.8754  0.5087  0.2580
 4605SOL     OW16706   4.627   0.491   2.477 -0.0701 -0.2375 -0.2002
 4605SOL    HW116707   4.543   0.448   2.467  0.0095 -0.8270  1.3883
 4605SOL    HW216708   4.606   0.576   2.517  0.2471 -1.9223  4.0552
 4606SOL     OW16709   0.410   0.566   6.479  0.3363 -0.5677 -0.2500
 4606SOL    HW116710   0.366   0.608   6.554  0.0615 -2.1240  0.5106
 4606SOL    HW216711   0.361   0.596   6.403 -0.8356 -0.7076  0.4197
 4607SOL     OW16712   9.632   1.161   5.507 -0.5576 -0.1542  0.0776
 4607SOL    HW116713   9.724   1.139   5.492 -1.0123 -2.3958  0.2337
 4607SOL    HW216714   9.583   1.105   5.446 -1.8062  2.0805 -1.0864
 4608SOL     OW16715   6.604   7.210   0.753 -0.3119  0.1868  0.6980
 4608SOL    HW116716   6.522   7.214   0.802  0.0168 -0.9990  1.3842
 4608SOL    HW216717   6.627   7.301   0.736 -2.3320  0.5419 -0.4726
 4609SOL     OW16718   7.204   0.782   7.434  0.5167 -0.3845 -0.0536
 4609SOL    HW116719   7.272   0.730   7.391  0.0072  0.0836 -1.4819
 4609SOL    HW216720   7.182   0.850   7.371 -0.2485  0.3674  0.9807
 4610SOL     OW16721   0.425   6.128   8.472 -0.0776  0.6176  0.2992
 4610SOL    HW116722   0.344   6.159   8.432 -0.2111 -1.6648 -1.4293
 4610SOL    HW216723   0.397   6.069   8.542  0.0818  0.3439  0.1369
 4611SOL     OW16724   8.593   4.090   8.946 -0.0725 -0.0993 -0.5625
 4611SOL    HW116725   8.593   4.143   8.866  0.4168  1.4896  0.4539
 4611SOL    HW216726   8.502   4.088   8.974  0.0630  1.2280  0.0222
 4612SOL     OW16727   2.784   7.509   8.009  0.3726  0.3217 -0.0611
 4612SOL    HW116728   2.731   7.459   8.072  1.0280  0.2184  0.4202
 4612SOL    HW216729   2.729   7.584   7.986 -0.5200 -0.4843 -0.5964
 4613SOL     OW16730   6.245   7.005   1.165  0.1470 -0.1414  0.1370
 4613SOL    HW116731   6.163   7.016   1.116 -1.0469 -1.4641  1.7317
 4613SOL    HW216732   6.256   7.087   1.212 -0.1443  0.1264 -0.2545
 4614SOL     OW16733   9.046   0.176   2.883  0.0617  0.2126  0.3983
 4614SOL    HW116734   9.047   0.080   2.888 -0.1682  0.2668  1.7707
 4614SOL    HW216735   9.108   0.204   2.950  1.8404  1.0229 -1.4687
 4615SOL     OW16736   5.820   0.383   8.906  0.4465  0.2085 -0.0828
 4615SOL    HW116737   5.788   0.389   8.816  3.0173 -0.3277 -1.1339
 4615SOL    HW216738   5.871   0.463   8.919 -0.1729  0.4464  1.0500
 4616SOL     OW16739   0.877   9.087   7.759 -0.2398  0.5277  0.3499
 4616SOL    HW116740   0.900   9.105   7.668  3.1619 -0.1839  0.9367
 4616SOL    HW216741   0.939   9.139   7.810 -1.3170  0.0342  2.2408
 4617SOL     OW16742   9.532   7.707   1.674 -0.3926  0.3201  0.0799
 4617SOL    HW116743   9.504   7.702   1.766  2.1814  1.8102  1.0216
 4617SOL    HW216744   9.544   7.615   1.649 -1.5595 -0.1356  1.0628
 4618SOL     OW16745   6.179   4.205   5.689  0.2770 -0.2379 -0.6091
 4618SOL    HW116746   6.094   4.236   5.660 -0.0328  0.4703  0.9387
 4618SOL    HW216747   6.242   4.248   5.630 -0.3313  0.9943 -0.3984
 4619SOL     OW16748   8.455   0.015   3.457 -0.1795 -0.1069 -0.3217
 4619SOL    HW116749   8.543  -0.004   3.424  0.0343 -1.3224  0.8356
 4619SOL    HW216750   8.428   0.094   3.410  1.4687  0.2132 -0.8077
 4620SOL     OW16751   7.561   7.987   9.513  0.0443  0.0597 -1.0231
 4620SOL    HW116752   7.487   8.045   9.526 -0.4222 -0.8442  0.6910
 4620SOL    HW216753   7.604   8.019   9.434 -0.0219  2.9053 -0.0003
 4621SOL     OW16754   2.249   6.289   6.501  0.3615  0.1621  0.1146
 4621SOL    HW116755   2.221   6.205   6.463  1.0479  0.7803 -1.9267
 4621SOL    HW216756   2.171   6.343   6.502  0.6422  0.7572 -2.3569
 4622SOL     OW16757   5.774   5.983   3.052 -0.1646  0.5141  0.3632
 4622SOL    HW116758   5.725   5.932   2.988  0.6787  0.0985  0.0318
 4622SOL    HW216759   5.864   5.949   3.047 -0.0350  0.6027  1.6280
 4623SOL     OW16760   6.883   1.520   4.352 -0.3343  0.4716 -0.0956
 4623SOL    HW116761   6.905   1.509   4.445  2.3038  1.1131 -0.5661
 4623SOL    HW216762   6.876   1.431   4.319 -1.8299  0.2223  0.7651
 4624SOL     OW16763   4.585   1.888   1.882  0.0547  0.2957  0.7961
 4624SOL    HW116764   4.564   1.936   1.802  1.5695  1.0737  0.8183
 4624SOL    HW216765   4.613   1.955   1.944  0.3677 -0.4385  1.4697
 4625SOL     OW16766   8.381   6.334   6.726 -0.0624  0.4060  0.2625
 4625SOL    HW116767   8.328   6.344   6.648 -1.9620 -0.1465  1.4028
 4625SOL    HW216768   8.393   6.239   6.734  2.6205  0.5751 -0.8851
 4626SOL     OW16769   7.561   1.242   1.212 -0.4442 -0.1622  0.3748
 4626SOL    HW116770   7.516   1.158   1.211 -1.2111  0.2204  0.9515
 4626SOL    HW216771   7.544   1.277   1.300 -1.3775  1.2240 -0.2997
 4627SOL     OW16772   5.947   4.112   3.264  0.5932 -0.0589 -0.0117
 4627SOL    HW116773   5.943   4.083   3.173  2.0662  0.5741 -0.3061
 4627SOL    HW216774   5.856   4.126   3.289  0.2064  0.4315 -1.6099
 4628SOL     OW16775   8.926   0.412   7.483 -0.2239 -0.7350  0.0043
 4628SOL    HW116776   8.854   0.472   7.465 -0.8728 -1.4626  0.1057
 4628SOL    HW216777   8.896   0.361   7.559  0.1874 -1.3750 -0.2546
 4629SOL     OW16778   6.069   1.099   7.690  0.3438  0.6672  0.3525
 4629SOL    HW116779   6.159   1.076   7.715 -0.0295  0.2056  1.3449
 4629SOL    HW216780   6.074   1.118   7.596  1.4789  0.6702  0.4001
 4630SOL     OW16781   7.133   5.189   7.753  0.0233  0.2405 -0.1751
 4630SOL    HW116782   7.162   5.112   7.704  0.7474  0.2885  0.1741
 4630SOL    HW216783   7.046   5.164   7.786 -1.4115  0.9297 -3.1002
 4631SOL     OW16784   7.083   4.223   8.223 -0.2293  0.5294  0.0811
 4631SOL    HW116785   7.030   4.144   8.220 -2.1185  1.7296 -0.0037
 4631SOL    HW216786   7.022   4.294   8.202  1.4031  2.0142  0.0746
 4632SOL     OW16787   8.097   4.394   3.812  0.0629  0.0470 -0.2744
 4632SOL    HW116788   8.119   4.445   3.733 -0.3029 -0.2346 -0.5637
 4632SOL    HW216789   8.177   4.394   3.864 -0.1674  1.6592  0.1427
 4633SOL     OW16790   9.097   5.926   7.466  0.0542 -0.0237 -0.0150
 4633SOL    HW116791   9.190   5.934   7.488  0.7677 -1.5919 -2.1658
 4633SOL    HW216792   9.092   5.947   7.373 -1.3096 -2.2841 -0.5288
 4634SOL     OW16793   3.320   6.377   2.064 -0.3064 -0.6800 -0.4032
 4634SOL    HW116794   3.256   6.437   2.101 -0.6178 -0.2571 -1.6097
 4634SOL    HW216795   3.329   6.307   2.130  0.8728  1.1875  1.5548
 4635SOL     OW16796   0.155   1.826   6.124  0.2657 -0.1987  0.0802
 4635SOL    HW116797   0.126   1.765   6.057  0.4471 -1.3065  0.9823
 4635SOL    HW216798   0.075   1.847   6.173  0.5429 -1.3991  1.0897
 4636SOL     OW16799   3.768   8.895   5.577 -0.5169  0.1265 -0.4134
 4636SOL    HW116800   3.733   8.808   5.558  1.5780 -0.4912 -1.7368
 4636SOL    HW216801   3.824   8.881   5.653 -0.3546  0.3690 -0.4904
 4637SOL     OW16802   4.490   1.705   8.422  0.0615  0.1219  0.1563
 4637SOL    HW116803   4.506   1.650   8.499 -0.8702  0.4523  0.6001
 4637SOL    HW216804   4.469   1.791   8.459  0.7651  0.5864 -0.5061
 4638SOL     OW16805   6.168   8.786   3.353  0.0350 -0.3657 -0.0648
 4638SOL    HW116806   6.233   8.849   3.384 -2.8947  2.6824  0.4195
 4638SOL    HW216807   6.153   8.727   3.427  2.7335 -1.7543 -0.4883
 4639SOL     OW16808   8.760   0.327   3.382 -0.2263  0.1843 -0.0540
 4639SOL    HW116809   8.841   0.294   3.344  0.4239  1.0082  0.5789
 4639SOL    HW216810   8.759   0.421   3.360 -1.2707  0.0940 -0.4930
 4640SOL     OW16811   0.414   0.911   0.958  0.4301  0.2338  0.0708
 4640SOL    HW116812   0.459   0.937   1.038  0.1934 -1.0648  0.6465
 4640SOL    HW216813   0.326   0.888   0.986 -0.2297  1.5191 -0.8598
 4641SOL     OW16814   6.182   9.517   3.844  0.1702 -0.1076 -0.2538
 4641SOL    HW116815   6.192   9.573   3.921  0.5490 -0.3126 -0.1498
 4641SOL    HW216816   6.264   9.529   3.796 -0.9659  1.8710 -1.8770
 4642SOL     OW16817   0.207   0.355   6.051  0.1177  0.1021  0.5131
 4642SOL    HW116818   0.165   0.367   5.965  0.8710 -1.0328 -0.0343
 4642SOL    HW216819   0.203   0.261   6.067 -0.6618  0.3652  2.0844
 4643SOL     OW16820   7.298   6.646   7.929 -0.0240 -0.7105  0.6480
 4643SOL    HW116821   7.238   6.576   7.953 -1.7947  1.3868  2.8765
 4643SOL    HW216822   7.378   6.627   7.979 -0.7112 -0.8556  1.7290
 4644SOL     OW16823   6.757   4.196   0.962  0.4629 -0.0764 -0.1653
 4644SOL    HW116824   6.780   4.127   1.024 -1.6533  0.5712  1.4809
 4644SOL    HW216825   6.663   4.184   0.947  0.3871  1.4251 -1.1513
 4645SOL     OW16826   4.058   9.228   6.065  0.8314  0.0193 -0.5620
 4645SOL    HW116827   4.075   9.148   6.114  1.1346 -0.5345 -1.5537
 4645SOL    HW216828   4.137   9.243   6.014  0.3539  0.3402 -1.2197
 4646SOL     OW16829   0.194   4.594   6.426 -0.2140  0.0374 -0.4849
 4646SOL    HW116830   0.150   4.510   6.434  1.4135 -0.7543  0.8712
 4646SOL    HW216831   0.269   4.588   6.485 -0.2096  2.5681 -0.0963
 4647SOL     OW16832   9.463   5.840   2.882 -0.0964 -0.4846 -0.6495
 4647SOL    HW116833   9.501   5.926   2.859 -0.1135 -0.5752 -1.0262
 4647SOL    HW216834   9.538   5.781   2.884 -0.1498 -0.5604 -0.8832
 4648SOL     OW16835   8.670   5.225   8.857 -0.0165  0.4946 -0.4281
 4648SOL    HW116836   8.661   5.320   8.863 -2.8221  0.2214  3.4209
 4648SOL    HW216837   8.582   5.193   8.840  0.0449 -1.4284  2.2046
 4649SOL     OW16838   9.162   6.986   1.709 -0.0644  0.3777  0.0288
 4649SOL    HW116839   9.131   6.937   1.633  3.2704 -0.9086 -0.6709
 4649SOL    HW216840   9.168   6.921   1.779 -1.2653  1.1401  0.8688
 4650SOL     OW16841   4.136   2.452   6.564 -0.0319  0.4330  0.6238
 4650SOL    HW116842   4.168   2.518   6.625 -1.1571  1.2434  0.3648
 4650SOL    HW216843   4.121   2.375   6.618  0.9080  0.4922  0.9985
 4651SOL     OW16844   8.261   8.891   3.870 -0.1128  0.7550 -0.2215
 4651SOL    HW116845   8.326   8.843   3.818 -0.1091 -0.5492  0.9431
 4651SOL    HW216846   8.229   8.959   3.811  2.0851  1.2523 -0.9265
 4652SOL     OW16847   6.125   6.302   9.583 -0.4317  0.2110 -0.0050
 4652SOL    HW116848   6.185   6.369   9.551 -0.8766  0.6413  0.0575
 4652SOL    HW216849   6.089   6.264   9.503 -1.4179  1.1742 -0.0386
 4653SOL     OW16850   3.279   6.665   2.692  0.3265 -0.1160 -0.0363
 4653SOL    HW116851   3.320   6.714   2.621 -0.4437 -0.2923 -0.6154
 4653SOL    HW216852   3.195   6.637   2.656 -0.7629  1.1125  1.4538
 4654SOL     OW16853   6.771   6.431   0.131 -0.0267 -0.1632 -0.3901
 4654SOL    HW116854   6.849   6.423   0.186 -0.2610  0.8785  0.1165
 4654SOL    HW216855   6.746   6.341   0.110  2.9548 -0.5869 -2.9400
 4655SOL     OW16856   4.546   4.657   3.467  0.5897  0.6007  0.3767
 4655SOL    HW116857   4.556   4.653   3.372 -2.0585  2.2274 -0.0707
 4655SOL    HW216858   4.479   4.593   3.487  1.0803  0.3213  1.1727
 4656SOL     OW16859   5.457   3.656   1.257 -0.3132  0.3957  0.1960
 4656SOL    HW116860   5.366   3.660   1.288 -0.8433  0.5622 -1.3110
 4656SOL    HW216861   5.493   3.743   1.277 -0.5576  0.4200  0.5487
 4657SOL     OW16862   3.982   1.438   6.001 -0.2148 -0.0809  0.2907
 4657SOL    HW116863   3.958   1.443   5.908 -0.7152  2.0867  0.4810
 4657SOL    HW216864   3.899   1.443   6.048 -0.0178 -1.7877  0.9030
 4658SOL     OW16865   1.851   4.043   5.567 -0.0293  0.0728 -0.3773
 4658SOL    HW116866   1.868   3.961   5.520  0.3477  1.2605 -2.3979
 4658SOL    HW216867   1.765   4.071   5.538 -0.5105  0.0301  0.9236
 4659SOL     OW16868   6.401   9.601   6.692  0.5089 -0.3096 -0.3168
 4659SOL    HW116869   6.432   9.581   6.604 -1.7485  0.0639 -1.2937
 4659SOL    HW216870   6.434   9.689   6.710  2.9855 -1.2772  0.2815
 4660SOL     OW16871   2.816   7.827   2.400  0.4021  0.3108  0.3047
 4660SOL    HW116872   2.862   7.908   2.422  1.0741  0.2177 -0.6617
 4660SOL    HW216873   2.773   7.845   2.316  3.8001 -1.4270 -2.0849
 4661SOL     OW16874   8.015   8.965   2.245  0.2857  0.0422  0.6855
 4661SOL    HW116875   7.935   8.913   2.254 -0.2666  0.8412  0.4785
 4661SOL    HW216876   8.083   8.912   2.287  0.1279 -1.7257 -1.1060
 4662SOL     OW16877   5.529   1.798   2.938 -0.3469 -0.4159 -0.1780
 4662SOL    HW116878   5.507   1.800   3.031 -0.9233 -1.0420 -0.2957
 4662SOL    HW216879   5.614   1.842   2.933 -1.3647  1.7243  0.3215
 4663SOL     OW16880   7.911   5.794   7.456  0.9946  0.1896  0.9351
 4663SOL    HW116881   7.970   5.864   7.429  0.6835 -0.1710 -0.7770
 4663SOL    HW216882   7.938   5.718   7.405 -2.3126  0.5535 -1.6970
 4664SOL     OW16883   0.818   5.978   6.078 -0.6178 -0.0931 -0.4997
 4664SOL    HW116884   0.898   5.976   6.024 -0.0070  0.2517  0.3648
 4664SOL    HW216885   0.770   5.899   6.052 -1.5115  1.2174 -3.2264
 4665SOL     OW16886   5.818   5.712   0.846  0.2417 -0.3294  0.5574
 4665SOL    HW116887   5.886   5.699   0.912  0.5816  0.4229  0.3628
 4665SOL    HW216888   5.779   5.625   0.835 -0.2650 -0.3414  2.2198
 4666SOL     OW16889   8.017   0.969   3.264  0.0682  0.3198  0.6394
 4666SOL    HW116890   8.042   0.878   3.251 -0.3936  0.0570  1.5308
 4666SOL    HW216891   7.922   0.971   3.249  0.2624  0.9110 -0.6536
 4667SOL     OW16892   1.289   5.590   6.250  0.4503 -0.1559  0.4231
 4667SOL    HW116893   1.295   5.551   6.337  0.7790  2.6576  1.7951
 4667SOL    HW216894   1.197   5.615   6.241  0.7047  0.9572  0.6935
 4668SOL     OW16895   7.846   5.282   3.848 -0.1240 -0.0486 -0.6136
 4668SOL    HW116896   7.858   5.324   3.763  0.6239 -1.4993 -1.2609
 4668SOL    HW216897   7.878   5.193   3.836  0.6169 -0.1092  1.3763
 4669SOL     OW16898   1.576   2.487   3.721 -0.0298  0.0630 -0.1983
 4669SOL    HW116899   1.533   2.487   3.807  0.1589  0.1826 -0.1038
 4669SOL    HW216900   1.652   2.544   3.732  1.8418 -2.3911  0.4752
 4670SOL     OW16901   9.625   6.975   5.027  0.1337  0.2727 -0.3108
 4670SOL    HW116902   9.673   6.931   5.097 -2.2202 -1.0718  0.5773
 4670SOL    HW216903   9.613   6.907   4.960 -2.1774 -0.0904  0.3846
 4671SOL     OW16904   7.579   9.395   5.791 -0.0630 -0.7870  0.1906
 4671SOL    HW116905   7.653   9.349   5.753  1.5136  1.4484  0.3795
 4671SOL    HW216906   7.572   9.361   5.880  0.2867 -1.4974 -0.0478
 4672SOL     OW16907   2.557   6.389   7.839  0.0996  0.2827 -0.1247
 4672SOL    HW116908   2.507   6.460   7.799  0.6120  0.8503  0.2395
 4672SOL    HW216909   2.566   6.414   7.931  0.3466 -0.2203 -0.0071
 4673SOL     OW16910   2.197   1.122   6.440 -0.0975  0.0418 -0.0775
 4673SOL    HW116911   2.276   1.174   6.422 -0.6877  1.1493  0.4055
 4673SOL    HW216912   2.151   1.172   6.508 -1.5145 -0.2778 -0.7751
 4674SOL     OW16913   4.360   1.867   3.135 -0.6593 -0.1077 -0.0507
 4674SOL    HW116914   4.267   1.883   3.149 -0.4417  0.3885  0.9309
 4674SOL    HW216915   4.382   1.922   3.060 -0.9333  0.6288  0.3910
 4675SOL     OW16916   6.957   8.646   1.290 -0.2345 -0.0990  0.4381
 4675SOL    HW116917   6.990   8.575   1.345  0.3018 -0.0203  0.2226
 4675SOL    HW216918   6.900   8.602   1.227 -1.0185 -0.1654  1.1747
 4676SOL     OW16919   8.061   2.812   7.866  0.2659 -0.6976 -0.2217
 4676SOL    HW116920   8.149   2.834   7.898  0.1927  0.8133 -0.9493
 4676SOL    HW216921   8.030   2.744   7.925  1.0693  0.2892  1.3986
 4677SOL     OW16922   6.581   7.021   1.868  0.4062  0.3306 -0.1048
 4677SOL    HW116923   6.582   6.977   1.954  0.1781  0.8202  0.1526
 4677SOL    HW216924   6.513   6.976   1.819  0.1457  0.4161  0.1724
 4678SOL     OW16925   3.749   2.924   1.679  0.3443  0.6158 -0.3700
 4678SOL    HW116926   3.673   2.947   1.626 -0.6936 -3.1423 -0.8109
 4678SOL    HW216927   3.818   2.908   1.616  0.4835  0.6368 -0.2236
 4679SOL     OW16928   1.862   3.385   8.586  0.1633  0.3028  0.0320
 4679SOL    HW116929   1.894   3.438   8.513  2.9988  0.8488  1.5475
 4679SOL    HW216930   1.877   3.295   8.560 -1.2597  0.3457 -1.0526
 4680SOL     OW16931   7.903   2.467   0.306 -0.3138 -0.0159  0.8515
 4680SOL    HW116932   7.963   2.438   0.237  0.2540 -0.6847  1.6143
 4680SOL    HW216933   7.824   2.414   0.293 -0.3290  0.0796  0.5337
 4681SOL     OW16934   8.936   3.990   5.489 -0.6158  0.7123 -0.4947
 4681SOL    HW116935   8.919   3.896   5.497  2.7843 -0.0826 -0.9618
 4681SOL    HW216936   8.886   4.017   5.412 -3.5229 -0.0553  0.9482
 4682SOL     OW16937   1.940   2.717   9.605  0.2693  0.4924  0.5286
 4682SOL    HW116938   1.851   2.705   9.571  1.5272  0.7743 -3.3756
 4682SOL    HW216939   1.961   2.808   9.586  2.2912 -0.2824 -1.3602
 4683SOL     OW16940   9.624   6.853   2.268 -0.1831  0.2499  0.4214
 4683SOL    HW116941   9.685   6.798   2.218 -0.0387 -1.9547  2.8183
 4683SOL    HW216942   9.565   6.889   2.202  2.5925  1.0818 -1.8076
 4684SOL     OW16943   3.863   3.848   1.148  0.4437 -0.0790  0.7127
 4684SOL    HW116944   3.842   3.807   1.232  0.3812 -1.3876  0.0901
 4684SOL    HW216945   3.870   3.775   1.087  1.5979  0.7613 -0.2047
 4685SOL     OW16946   3.559   2.736   5.043 -0.0710  0.1973 -0.4293
 4685SOL    HW116947   3.536   2.696   5.126 -2.7212  0.8420 -0.7549
 4685SOL    HW216948   3.557   2.664   4.980  0.2114  0.0056 -0.2219
 4686SOL     OW16949   7.143   6.292   2.357  0.1402 -0.1716  0.4404
 4686SOL    HW116950   7.217   6.350   2.342 -0.0129  0.4585  1.9878
 4686SOL    HW216951   7.071   6.331   2.306 -0.0995  1.3151  1.8478
 4687SOL     OW16952   1.330   1.239   7.227 -0.1603  0.5546  0.5254
 4687SOL    HW116953   1.396   1.257   7.294  1.4096 -0.4717 -0.6822
 4687SOL    HW216954   1.301   1.325   7.197 -0.1529  1.0179  1.8001
 4688SOL     OW16955   6.267   7.361   8.484 -0.2303 -0.4885 -0.5176
 4688SOL    HW116956   6.235   7.316   8.562 -1.2281 -0.3886 -0.8530
 4688SOL    HW216957   6.196   7.353   8.420 -0.4916  1.6097 -0.5804
 4689SOL     OW16958   1.021   2.583   0.381  0.3573  0.0197 -0.1429
 4689SOL    HW116959   1.007   2.677   0.367  0.6346 -0.0283 -0.7869
 4689SOL    HW216960   1.069   2.554   0.304  2.5042 -0.1456  1.1737
 4690SOL     OW16961   0.260   0.305   2.089  0.1393 -0.0569  0.1111
 4690SOL    HW116962   0.216   0.244   2.148 -0.6358 -1.2510 -1.5872
 4690SOL    HW216963   0.191   0.366   2.063  0.3169  0.0841 -0.0297
 4691SOL     OW16964   4.658   4.743   7.131  0.3951  0.0441  0.0534
 4691SOL    HW116965   4.681   4.679   7.198  0.1006  1.4385  1.5396
 4691SOL    HW216966   4.730   4.738   7.068  1.9067  0.3116  1.6680
 4692SOL     OW16967   2.673   6.124   7.997 -0.0341  0.3755 -0.3233
 4692SOL    HW116968   2.698   6.032   7.996  1.4999  0.7704 -0.1875
 4692SOL    HW216969   2.647   6.142   7.907 -2.8906 -0.7980  0.1495
 4693SOL     OW16970   4.846   5.364   8.872 -0.1076 -0.0269 -0.5236
 4693SOL    HW116971   4.752   5.374   8.888 -0.6412 -1.0215 -2.6703
 4693SOL    HW216972   4.866   5.431   8.806  0.9140  0.7485  0.5259
 4694SOL     OW16973   5.941   1.717   0.666  0.1370  0.0323  0.0431
 4694SOL    HW116974   5.962   1.670   0.747 -1.5470 -0.8519  0.0261
 4694SOL    HW216975   6.005   1.684   0.602 -0.8392 -2.1490  0.0941
 4695SOL     OW16976   0.955   0.672   4.793 -0.1761 -0.6620  0.0317
 4695SOL    HW116977   0.961   0.587   4.837  2.0061 -1.5644 -1.8024
 4695SOL    HW216978   1.040   0.713   4.809  0.1320 -0.3936 -1.9763
 4696SOL     OW16979   1.112   3.158   3.026  0.1682  0.0673 -0.2078
 4696SOL    HW116980   1.158   3.137   3.107  0.8461  1.0413 -0.3235
 4696SOL    HW216981   1.179   3.155   2.959  0.3804  2.5700 -0.2268
 4697SOL     OW16982   6.706   4.174   8.306 -0.5490  0.4914 -0.1233
 4697SOL    HW116983   6.724   4.265   8.281  1.6696  0.0645 -0.2156
 4697SOL    HW216984   6.740   4.166   8.395  1.7581 -0.8961 -1.0477
 4698SOL     OW16985   5.238   7.245   3.536  0.4773  0.4043 -0.6935
 4698SOL    HW116986   5.288   7.270   3.614  2.6681 -0.9666 -1.5685
 4698SOL    HW216987   5.147   7.256   3.562  1.1650  1.5841  1.5017
 4699SOL     OW16988   6.939   6.945   2.996 -0.3350  0.0193  0.0945
 4699SOL    HW116989   6.928   7.031   2.956 -2.9156  1.2495  2.9865
 4699SOL    HW216990   6.895   6.885   2.936 -2.7246  1.5375  0.1679
 4700SOL     OW16991   5.086   8.041   0.947 -0.3200  0.0820 -0.1870
 4700SOL    HW116992   5.174   8.007   0.964  0.3424  2.4633  1.8207
 4700SOL    HW216993   5.048   8.054   1.034 -2.5307 -0.5221 -1.0099
 4701SOL     OW16994   8.838   7.283   0.493  0.0915  0.7085 -0.1602
 4701SOL    HW116995   8.758   7.279   0.441  0.0642  1.1279 -0.1579
 4701SOL    HW216996   8.830   7.212   0.556 -0.5610  1.1172  0.2333
 4702SOL     OW16997   3.508   4.872   7.542  0.1574  0.2546 -0.3491
 4702SOL    HW116998   3.524   4.782   7.513  0.1729 -0.3514  1.4209
 4702SOL    HW216999   3.417   4.871   7.572 -0.1025  1.0577 -1.0966
 4703SOL     OW17000   0.295   0.460   0.725  0.7105  0.4674  0.4053
 4703SOL    HW117001   0.352   0.501   0.659 -1.0715  1.2031 -0.7339
 4703SOL    HW217002   0.258   0.383   0.680  0.0686  0.5408  0.8055
 4704SOL     OW17003   2.506   0.524   5.881 -0.7159  0.1312  0.1380
 4704SOL    HW117004   2.588   0.526   5.831  0.3383  2.1776  1.7785
 4704SOL    HW217005   2.447   0.471   5.828  1.7058 -1.6070 -1.0348
 4705SOL     OW17006   5.918   1.108   9.559 -0.3582 -0.2825 -0.2092
 4705SOL    HW117007   5.860   1.037   9.587 -0.8983 -0.8803 -2.5591
 4705SOL    HW217008   5.864   1.186   9.561 -0.3038 -0.2594  0.6144
 4706SOL     OW17009   9.574   5.892   3.503  0.3506 -0.4472  0.6798
 4706SOL    HW117010   9.488   5.902   3.544 -0.1236  0.0708 -0.3968
 4706SOL    HW217011   9.626   5.844   3.568 -1.2447 -2.3087  0.7046
 4707SOL     OW17012   4.219   3.507   7.728 -0.5167 -0.5410 -0.1254
 4707SOL    HW117013   4.175   3.531   7.647  1.4274 -1.1521 -1.4317
 4707SOL    HW217014   4.150   3.511   7.795 -2.1185  0.2026 -1.7388
 4708SOL     OW17015   3.346   9.090   0.712  0.4074 -0.0083 -0.2414
 4708SOL    HW117016   3.372   9.096   0.620  0.3596  1.1582 -0.1913
 4708SOL    HW217017   3.291   9.012   0.715 -0.4958  0.5357 -1.4430
 4709SOL     OW17018   0.572   4.719   5.200 -0.0078 -0.2234  0.1286
 4709SOL    HW117019   0.641   4.766   5.248  1.6804 -1.5171 -0.9420
 4709SOL    HW217020   0.590   4.627   5.216 -1.1171 -0.6068 -0.7133
 4710SOL     OW17021   2.069   7.515   8.103 -0.3206  0.4882  0.3637
 4710SOL    HW117022   2.027   7.541   8.185 -0.4933 -2.5410  1.3369
 4710SOL    HW217023   2.160   7.496   8.128 -0.6133 -1.3994  0.1239
 4711SOL     OW17024   7.957   0.455   8.143  0.8374  0.0153 -0.3168
 4711SOL    HW117025   7.972   0.375   8.194  2.4259  0.3702 -0.1550
 4711SOL    HW217026   7.870   0.443   8.105  1.3537 -2.1598 -0.9720
 4712SOL     OW17027   6.293   9.266   8.684 -0.9001 -0.5350 -0.1067
 4712SOL    HW117028   6.252   9.320   8.751 -1.0701  0.8816 -1.2977
 4712SOL    HW217029   6.229   9.197   8.667 -3.1259  1.8188 -2.1739
 4713SOL     OW17030   1.368   4.326   6.436  0.3192  0.2326 -0.9282
 4713SOL    HW117031   1.439   4.336   6.499 -0.6569  0.4833  0.1729
 4713SOL    HW217032   1.297   4.381   6.471 -0.5288 -0.2578 -1.8244
 4714SOL     OW17033   8.386   6.618   3.794 -0.3135 -0.3855 -0.1181
 4714SOL    HW117034   8.460   6.679   3.795  0.4939 -1.3092 -1.1911
 4714SOL    HW217035   8.341   6.633   3.877  0.3317  1.0901 -0.0120
 4715SOL     OW17036   3.156   7.673   4.210 -0.0788  0.0024  0.0282
 4715SOL    HW117037   3.080   7.730   4.222  0.1426  0.8176 -2.0546
 4715SOL    HW217038   3.124   7.601   4.155  0.4017 -0.2029  0.0109
 4716SOL     OW17039   6.596   8.822   5.569 -0.1930  0.5352 -0.7635
 4716SOL    HW117040   6.550   8.737   5.568 -0.1701  0.4661  1.3695
 4716SOL    HW217041   6.646   8.822   5.650 -0.9941  3.0095 -0.1740
 4717SOL     OW17042   3.493   8.234   6.747  0.3037  0.3676  0.4584
 4717SOL    HW117043   3.531   8.157   6.789  3.6161  1.0174 -1.0037
 4717SOL    HW217044   3.449   8.200   6.669  1.7734 -0.0939 -0.1958
 4718SOL     OW17045   3.551   7.203   6.955 -0.2294 -0.4156  0.0751
 4718SOL    HW117046   3.547   7.291   6.920 -1.2191 -0.0995  0.9161
 4718SOL    HW217047   3.585   7.149   6.883  1.8335  0.8571  0.0208
 4719SOL     OW17048   2.080   6.489   5.805 -0.7517 -0.0583  0.7370
 4719SOL    HW117049   2.032   6.567   5.777 -2.2026 -1.1123  0.1290
 4719SOL    HW217050   2.106   6.508   5.896 -1.7572  0.8217  0.8643
 4720SOL     OW17051   5.906   7.948   0.499  0.0928  0.2543 -0.2534
 4720SOL    HW117052   5.870   7.862   0.517 -0.2832  0.6412  0.9728
 4720SOL    HW217053   5.999   7.940   0.519 -0.2470  0.5715  1.7330
 4721SOL     OW17054   4.614   6.567   1.859  0.7280 -0.4493 -0.0874
 4721SOL    HW117055   4.543   6.509   1.831 -0.0948  0.3225  0.3246
 4721SOL    HW217056   4.648   6.604   1.778  0.5795 -0.7414 -0.2852
 4722SOL     OW17057   4.277   1.342   5.044  0.1961 -0.0884 -0.0156
 4722SOL    HW117058   4.305   1.279   4.977  3.6635  0.7030  0.5138
 4722SOL    HW217059   4.228   1.408   4.994  0.0930 -1.0554 -1.2593
 4723SOL     OW17060   5.988   6.155   8.574  0.1434 -0.7666 -0.4053
 4723SOL    HW117061   5.967   6.248   8.585 -0.9722 -1.1853  1.3754
 4723SOL    HW217062   6.072   6.155   8.527  0.7146  1.1512  0.5112
 4724SOL     OW17063   1.316   2.395   6.070 -0.1877  0.3101  0.1659
 4724SOL    HW117064   1.277   2.349   5.995 -0.4116  0.8623 -0.0588
 4724SOL    HW217065   1.342   2.480   6.035 -1.7662  1.2169  1.0602
 4725SOL     OW17066   8.264   1.590   3.086  0.2622  0.6716  0.1513
 4725SOL    HW117067   8.232   1.500   3.085  1.7089  0.1070 -1.9997
 4725SOL    HW217068   8.219   1.631   3.160 -0.2321 -1.8725  1.3516
 4726SOL     OW17069   8.620   6.131   8.138 -0.1739  0.6325 -0.4839
 4726SOL    HW117070   8.599   6.099   8.226  1.8493  1.2911  0.3066
 4726SOL    HW217071   8.535   6.143   8.096 -1.1594 -1.4241  0.7179
 4727SOL     OW17072   6.575   2.832   8.419 -0.5918 -0.4351 -0.0980
 4727SOL    HW117073   6.609   2.785   8.496 -0.4726 -0.0357  0.0981
 4727SOL    HW217074   6.544   2.916   8.455  0.3264  0.1417 -0.6313
 4728SOL     OW17075   3.555   7.804   3.516 -0.3724 -0.4119 -0.7134
 4728SOL    HW117076   3.496   7.730   3.530 -1.0424 -0.2159 -2.3824
 4728SOL    HW217077   3.634   7.765   3.479 -0.0402 -0.4807  0.0435
 4729SOL     OW17078   1.658   2.764   7.940  0.3121  0.5293  0.3881
 4729SOL    HW117079   1.667   2.683   7.889 -2.3191  1.0808 -1.1113
 4729SOL    HW217080   1.727   2.821   7.906 -0.9459  0.6370 -2.1992
 4730SOL     OW17081   2.340   2.799   0.022  0.6609 -0.0355 -0.3580
 4730SOL    HW117082   2.389   2.878   0.001  0.0454  0.1350 -1.2387
 4730SOL    HW217083   2.333   2.752  -0.061 -0.6083 -0.0706 -0.2581
 4731SOL     OW17084   6.753   5.243   2.160 -0.2237  0.1252  0.5221
 4731SOL    HW117085   6.692   5.267   2.230  1.9937  0.1344  2.5637
 4731SOL    HW217086   6.797   5.164   2.192  1.2079  0.3974 -0.6599
 4732SOL     OW17087   3.797   2.901   5.105 -0.1114  0.1139  0.1058
 4732SOL    HW117088   3.729   2.848   5.065 -1.1330  1.5589 -0.1426
 4732SOL    HW217089   3.879   2.858   5.080 -0.7754  0.0926 -2.2954
 4733SOL     OW17090   9.137   9.116   2.645 -0.1601 -0.3906 -0.3902
 4733SOL    HW117091   9.218   9.156   2.615 -0.3506  0.7503  0.5333
 4733SOL    HW217092   9.069   9.159   2.592 -0.1637 -1.4730 -1.2888
 4734SOL     OW17093   1.681   9.402   3.494 -0.1366 -0.8423  0.5777
 4734SOL    HW117094   1.711   9.343   3.425  2.1470  0.7772  0.0433
 4734SOL    HW217095   1.589   9.419   3.472 -0.1742 -2.3081 -0.5965
 4735SOL     OW17096   6.482   4.159   1.173 -0.1040  0.3139  0.4509
 4735SOL    HW117097   6.534   4.225   1.219  2.6714  0.0789 -2.0468
 4735SOL    HW217098   6.454   4.098   1.241  1.3734  1.4700  2.1793
 4736SOL     OW17099   1.088   7.178   5.668 -0.4339  0.6481 -0.0017
 4736SOL    HW117100   1.081   7.261   5.621 -0.1551 -0.8647 -2.9494
 4736SOL    HW217101   1.004   7.135   5.651  0.7436 -1.1248 -1.6516
 4737SOL     OW17102   1.760   5.023   1.401 -0.4672  0.6163  0.0841
 4737SOL    HW117103   1.673   4.984   1.411 -0.2597 -0.2042 -1.0519
 4737SOL    HW217104   1.778   5.017   1.307  0.2502  2.0312  0.1064
 4738SOL     OW17105   5.218   1.942   5.533 -0.1179 -0.1231 -0.2010
 4738SOL    HW117106   5.255   1.947   5.445 -0.7468  1.3585 -0.4105
 4738SOL    HW217107   5.288   1.974   5.590  0.0873 -0.5353 -0.2170
 4739SOL     OW17108   5.650   8.982   7.935  0.0544 -0.1738  0.2274
 4739SOL    HW117109   5.718   8.920   7.961 -0.4518 -0.1509  1.6797
 4739SOL    HW217110   5.665   9.058   7.991 -0.2611  0.4301 -0.4891
 4740SOL     OW17111   7.966   0.138   1.566 -0.0598  0.0984  0.8181
 4740SOL    HW117112   7.875   0.150   1.539  0.0579  1.6149  1.0048
 4740SOL    HW217113   7.996   0.226   1.590  1.1570 -0.5255  1.7066
 4741SOL     OW17114   3.054   5.871   5.173  0.1332 -0.3915  0.2327
 4741SOL    HW117115   2.969   5.873   5.218 -0.3592 -2.0649 -0.5627
 4741SOL    HW217116   3.053   5.951   5.119 -0.3743  0.2729  1.1919
 4742SOL     OW17117   7.490   7.486   6.126 -0.7057  0.0638 -0.5101
 4742SOL    HW117118   7.573   7.441   6.112  0.1725  1.1389  0.9188
 4742SOL    HW217119   7.456   7.448   6.207 -0.7429  0.8024 -0.1673
 4743SOL     OW17120   9.216   3.246   6.325  0.6366 -0.0547  0.4410
 4743SOL    HW117121   9.168   3.206   6.252 -0.2856 -1.7530  1.8953
 4743SOL    HW217122   9.308   3.239   6.300  0.3725 -1.1937 -0.2946
 4744SOL     OW17123   4.290   6.204   6.869 -0.4498  0.2215  0.2267
 4744SOL    HW117124   4.301   6.185   6.775 -2.3804  0.0930 -0.0198
 4744SOL    HW217125   4.355   6.272   6.887  0.9130 -0.7421 -0.8597
 4745SOL     OW17126   6.807   9.567   2.710 -0.6298  0.1757 -0.2856
 4745SOL    HW117127   6.804   9.495   2.774 -0.2951 -1.2639 -1.8320
 4745SOL    HW217128   6.896   9.602   2.716 -0.4231 -0.3355 -0.3658
 4746SOL     OW17129   8.581   4.009   6.764 -0.2359 -0.3694  0.3378
 4746SOL    HW117130   8.487   3.997   6.778 -0.5274 -0.1755 -1.2406
 4746SOL    HW217131   8.596   4.103   6.777 -0.8423  0.1424 -2.2165
 4747SOL     OW17132   0.889   4.342   8.713  0.0980 -0.8513 -0.2848
 4747SOL    HW117133   0.875   4.344   8.618  0.2985 -1.2085 -0.3252
 4747SOL    HW217134   0.802   4.351   8.751 -0.0592 -1.3932 -0.5107
 4748SOL     OW17135   2.158   5.412   7.353 -0.3834  0.3687 -0.4702
 4748SOL    HW117136   2.237   5.359   7.356  0.3539  1.3569 -1.4255
 4748SOL    HW217137   2.097   5.361   7.300  0.9956  1.2375 -3.0780
 4749SOL     OW17138   2.851   1.901   4.022 -0.2249 -0.3445 -0.2373
 4749SOL    HW117139   2.896   1.896   3.938  0.8347  0.9871  0.2033
 4749SOL    HW217140   2.870   1.989   4.054 -2.2836 -0.0998  0.4924
 4750SOL     OW17141   3.843   2.078   8.170  0.7125 -0.8195 -0.2762
 4750SOL    HW117142   3.844   2.125   8.253 -0.7723 -0.6484 -0.3219
 4750SOL    HW217143   3.878   2.142   8.107  0.3645 -0.3859 -0.0394
 4751SOL     OW17144   2.101   8.633   5.027  0.2100 -0.3324  0.3206
 4751SOL    HW117145   2.069   8.647   5.116  1.1465 -0.6354  0.7236
 4751SOL    HW217146   2.128   8.720   4.998  0.8751 -0.3914  0.7374
 4752SOL     OW17147   7.726   8.365   2.864 -0.0391  0.1177 -0.2369
 4752SOL    HW117148   7.676   8.326   2.935 -0.2367  0.3532 -0.2446
 4752SOL    HW217149   7.713   8.306   2.790  0.1733 -0.1306 -0.0777
 4753SOL     OW17150   7.970   2.699   0.398  0.2916 -0.4663  0.2959
 4753SOL    HW117151   8.032   2.684   0.469  0.5341 -1.5624 -0.1266
 4753SOL    HW217152   7.936   2.612   0.378  0.3031 -0.1859 -1.0001
 4754SOL     OW17153   0.236   2.592   1.942 -0.3840 -0.1791 -0.4318
 4754SOL    HW117154   0.177   2.655   1.900 -0.6651  2.1709  3.0746
 4754SOL    HW217155   0.324   2.627   1.926 -0.5234  1.0592  1.2611
 4755SOL     OW17156   7.559   0.393   6.276 -0.0810  0.8211  0.5062
 4755SOL    HW117157   7.631   0.427   6.330 -1.3332  3.0382  0.8771
 4755SOL    HW217158   7.482   0.400   6.332 -0.6587 -1.5785  0.1394
 4756SOL     OW17159   0.217   8.328   1.222  0.0205 -0.1324  0.2095
 4756SOL    HW117160   0.132   8.372   1.221  0.0931  0.0450  0.9701
 4756SOL    HW217161   0.197   8.236   1.207 -0.1941  0.0580 -0.7600
 4757SOL     OW17162   7.892   9.056   8.232 -0.2758 -0.1244 -0.1829
 4757SOL    HW117163   7.890   8.971   8.275 -1.8944 -0.2644 -0.4766
 4757SOL    HW217164   7.948   9.043   8.155 -0.5415 -0.9304 -0.2501
 4758SOL     OW17165   8.992   0.685   0.284  0.1669  0.1211 -0.0114
 4758SOL    HW117166   9.018   0.616   0.224  1.4852  1.6970 -1.3648
 4758SOL    HW217167   8.901   0.666   0.304  0.0470 -1.1488 -1.5548
 4759SOL     OW17168   3.177   1.972   6.524  0.3126  0.1337  0.3576
 4759SOL    HW117169   3.182   1.930   6.438 -0.5710  2.2612 -0.8270
 4759SOL    HW217170   3.255   2.028   6.528  0.4642 -0.1170  1.0522
 4760SOL     OW17171   8.749   6.297   4.040  0.3657 -0.1405  0.1027
 4760SOL    HW117172   8.737   6.230   3.973  2.1525 -1.2845  0.8368
 4760SOL    HW217173   8.702   6.264   4.116 -0.1552  0.2656 -0.0431
 4761SOL     OW17174   1.976   2.812   2.000 -0.2356 -0.6382  0.6500
 4761SOL    HW117175   2.065   2.783   1.979 -0.1420 -0.9601  1.4524
 4761SOL    HW217176   1.922   2.734   1.988  0.0180 -1.2228  2.8211
 4762SOL     OW17177   3.622   5.411   3.101 -0.1768  0.0885  0.0814
 4762SOL    HW117178   3.543   5.457   3.073  0.4272  0.9349 -0.2487
 4762SOL    HW217179   3.619   5.414   3.197 -1.5806 -1.6837  0.1621
 4763SOL     OW17180   0.420   2.316   6.056  0.1502 -0.3571  1.1346
 4763SOL    HW117181   0.333   2.276   6.061 -0.8722  1.7568  1.2952
 4763SOL    HW217182   0.409   2.403   6.093  2.0349  0.4947 -0.1302
 4764SOL     OW17183   9.594   3.760   6.079  0.0869 -0.1180  0.3172
 4764SOL    HW117184   9.674   3.773   6.129  0.8689  0.1347 -0.9618
 4764SOL    HW217185   9.618   3.700   6.008 -0.7235  0.3117 -0.3496
 4765SOL     OW17186   7.212   9.188   4.213 -0.6443 -0.2070 -0.5695
 4765SOL    HW117187   7.216   9.283   4.201  1.2441 -0.1484  0.2310
 4765SOL    HW217188   7.288   9.155   4.165 -1.2165 -1.3128 -0.7267
 4766SOL     OW17189   5.551   3.398   7.415  0.1282  0.0111 -0.5554
 4766SOL    HW117190   5.600   3.470   7.375  0.0380  0.9196  0.8944
 4766SOL    HW217191   5.501   3.360   7.343 -0.0523  1.5954 -1.2976
 4767SOL     OW17192   9.087   0.613   2.554  0.0735  0.8188 -0.4247
 4767SOL    HW117193   9.041   0.529   2.549 -0.4988  1.0492  0.6228
 4767SOL    HW217194   9.164   0.595   2.608  0.6092  0.7017 -1.2102
 4768SOL     OW17195   4.194   7.069   5.874 -0.1888  0.2342  0.0656
 4768SOL    HW117196   4.238   7.070   5.959 -1.1177  2.0008  0.5594
 4768SOL    HW217197   4.250   7.013   5.819  1.5155  0.6943  1.2538
 4769SOL     OW17198   7.165   3.875   6.571  0.3726  0.1947  0.2762
 4769SOL    HW117199   7.122   3.800   6.530  0.4913 -0.2981  1.0419
 4769SOL    HW217200   7.258   3.863   6.552  0.6051 -0.7929  1.8258
 4770SOL     OW17201   4.823   9.049   0.666  0.0054  0.0377 -0.0048
 4770SOL    HW117202   4.779   8.981   0.615  0.0053  0.9567 -1.2874
 4770SOL    HW217203   4.900   9.006   0.703 -0.1166 -0.7106 -0.6058
 4771SOL     OW17204   3.717   4.094   6.012 -0.3828  0.3226  0.7816
 4771SOL    HW117205   3.799   4.051   6.036 -0.4248 -0.9949 -1.1747
 4771SOL    HW217206   3.685   4.044   5.937 -1.9189  2.0855  0.1792
 4772SOL     OW17207   8.079   0.762   8.738 -0.1876  0.0616  0.6135
 4772SOL    HW117208   8.040   0.676   8.724 -0.6812  0.0384  1.9882
 4772SOL    HW217209   8.005   0.823   8.735  0.0271  0.3257  0.6306
 4773SOL     OW17210   1.624   4.823   1.852 -0.2413  0.2006 -0.5364
 4773SOL    HW117211   1.548   4.864   1.810 -0.7283 -0.5087 -0.3629
 4773SOL    HW217212   1.590   4.787   1.933 -0.5284 -3.0282 -1.9137
 4774SOL     OW17213   9.439   6.364   6.589 -0.7063 -0.2589 -0.2880
 4774SOL    HW117214   9.459   6.458   6.591 -1.6275 -0.0480  2.1438
 4774SOL    HW217215   9.520   6.322   6.619 -0.8195 -0.1072  0.2406
 4775SOL     OW17216   2.030   1.994   0.996 -0.2422 -0.8150 -0.3162
 4775SOL    HW117217   1.980   1.947   0.929  0.7043 -0.6004 -1.2084
 4775SOL    HW217218   1.986   2.078   1.004 -1.2262 -1.3855  0.4011
 4776SOL     OW17219   3.499   4.913   0.399  0.2895  0.4185 -0.3311
 4776SOL    HW117220   3.504   4.840   0.336 -0.4863  0.9171 -0.9977
 4776SOL    HW217221   3.518   4.873   0.483 -1.5664 -0.8810 -0.4564
 4777SOL     OW17222   8.284   6.893   3.626  0.4811  0.4570 -0.4913
 4777SOL    HW117223   8.335   6.906   3.706 -1.7130  0.1122  1.0460
 4777SOL    HW217224   8.282   6.798   3.615  1.5013  0.5248 -1.5138
 4778SOL     OW17225   6.593   4.646   8.299  0.4830 -0.1374 -0.8027
 4778SOL    HW117226   6.669   4.656   8.355  1.6091 -1.7336 -1.9423
 4778SOL    HW217227   6.523   4.693   8.344  1.3704 -1.1175  1.7879
 4779SOL     OW17228   6.088   8.462   4.816  0.2132 -0.2158  0.0039
 4779SOL    HW117229   6.146   8.525   4.858 -1.5948  0.9418  0.8958
 4779SOL    HW217230   6.106   8.470   4.723 -0.2382  1.9465  0.0582
 4780SOL     OW17231   8.176   0.483   6.579  0.2269 -0.3538 -0.2028
 4780SOL    HW117232   8.119   0.418   6.619  0.8319 -1.6341 -1.3383
 4780SOL    HW217233   8.121   0.561   6.569 -1.3214 -1.5201 -1.1766
 4781SOL     OW17234   7.525   6.220   8.863  0.1230 -0.0137 -0.5823
 4781SOL    HW117235   7.496   6.130   8.851  0.2462  0.0497 -1.4635
 4781SOL    HW217236   7.580   6.238   8.786 -0.4091  1.0028 -0.7518
 4782SOL     OW17237   4.408   7.301   5.509 -0.4085 -0.4794 -0.3947
 4782SOL    HW117238   4.425   7.274   5.599 -2.9241 -1.1201 -0.0281
 4782SOL    HW217239   4.377   7.392   5.517 -0.1796 -0.3787 -0.6578
 4783SOL     OW17240   1.685   1.804   5.471  0.3008 -0.2785 -0.0985
 4783SOL    HW117241   1.705   1.841   5.557  0.8625 -1.1999  0.1885
 4783SOL    HW217242   1.693   1.877   5.410 -0.8290  0.5514  0.7206
 4784SOL     OW17243   6.065   2.598   3.583  0.3894 -0.5008  0.0635
 4784SOL    HW117244   6.019   2.672   3.544  2.0798  1.6101  1.8766
 4784SOL    HW217245   6.081   2.539   3.509 -1.3436  0.6963 -1.3618
 4785SOL     OW17246   0.519   3.731   8.426 -0.5636 -0.0205 -0.0234
 4785SOL    HW117247   0.436   3.693   8.397 -0.4175 -1.2571  1.0855
 4785SOL    HW217248   0.543   3.681   8.504  1.0702  0.5225 -0.1288
 4786SOL     OW17249   3.880   4.591   1.702  0.3710 -0.5187 -0.4086
 4786SOL    HW117250   3.923   4.592   1.787  0.1364 -0.6240 -0.2881
 4786SOL    HW217251   3.951   4.583   1.639  0.5763  0.0169 -0.2451
 4787SOL     OW17252   4.664   2.021   2.720 -0.0850 -0.0747 -0.2364
 4787SOL    HW117253   4.728   2.084   2.754 -0.2634 -0.3424  0.6149
 4787SOL    HW217254   4.692   2.006   2.630  1.5262 -0.7619  0.3308
 4788SOL     OW17255   5.291   6.689   6.755 -0.3104  0.2843  0.0247
 4788SOL    HW117256   5.210   6.713   6.801  0.1184 -1.8078  2.0732
 4788SOL    HW217257   5.355   6.678   6.825  1.6652  1.4076 -1.5207
 4789SOL     OW17258   6.940   2.568   4.389 -0.3433  0.4959  0.3763
 4789SOL    HW117259   6.918   2.641   4.332 -2.3574 -1.4632 -1.5877
 4789SOL    HW217260   6.884   2.580   4.466 -1.5770  0.4197 -0.4806
 4790SOL     OW17261   4.346   7.037   7.493  0.2722 -0.5523  0.3490
 4790SOL    HW117262   4.427   7.002   7.456 -0.0854 -0.5082 -0.4929
 4790SOL    HW217263   4.283   6.965   7.488 -0.4431  0.1401 -1.3107
 4791SOL     OW17264   9.171   5.147   5.963 -0.4707 -0.0168 -0.1905
 4791SOL    HW117265   9.187   5.140   5.869  2.6153  0.4705  0.2077
 4791SOL    HW217266   9.230   5.082   6.003 -0.2305  1.1630  1.4853
 4792SOL     OW17267   7.403   2.546   6.204 -0.1044  0.0206  0.2997
 4792SOL    HW117268   7.342   2.513   6.138 -1.4721 -2.2642  2.5520
 4792SOL    HW217269   7.348   2.587   6.270  0.9544 -0.2039  1.3629
 4793SOL     OW17270   5.810   9.294   6.636 -0.4932  0.1045 -0.6448
 4793SOL    HW117271   5.867   9.278   6.712 -1.0205 -0.2867 -0.3219
 4793SOL    HW217272   5.732   9.241   6.654 -0.3725 -0.4652 -1.7602
 4794SOL     OW17273   4.923   0.288   5.205  0.2359  0.1610  0.5295
 4794SOL    HW117274   4.873   0.209   5.182  1.5516 -0.6229  0.2536
 4794SOL    HW217275   4.904   0.302   5.298  1.1314 -1.3655  0.9760
 4795SOL     OW17276   1.872   3.548   8.850  0.2420 -0.0567  0.1357
 4795SOL    HW117277   1.786   3.533   8.888 -0.8191  0.1449 -2.0075
 4795SOL    HW217278   1.868   3.506   8.764  1.7459  1.2412 -0.6314
 4796SOL     OW17279   5.526   2.600   1.109 -0.1907 -0.0773  0.9653
 4796SOL    HW117280   5.484   2.623   1.192 -0.7955 -1.1748  0.9791
 4796SOL    HW217281   5.553   2.509   1.120 -0.1413 -0.1901  0.0179
 4797SOL     OW17282   0.331   9.502   1.695 -0.3433  0.7076  0.0828
 4797SOL    HW117283   0.315   9.410   1.672  1.0574  0.0042  1.6483
 4797SOL    HW217284   0.275   9.518   1.771 -0.1148  0.9373  0.2060
 4798SOL     OW17285   0.328   3.426   1.717  0.0716  0.5452 -0.1309
 4798SOL    HW117286   0.307   3.458   1.629  0.4997  1.8247  0.2102
 4798SOL    HW217287   0.407   3.373   1.705 -1.5163 -1.8270 -0.9496
 4799SOL     OW17288   5.036   8.376   9.434 -0.4026 -0.1339  0.0073
 4799SOL    HW117289   5.128   8.401   9.421  0.0333 -1.8814 -0.5776
 4799SOL    HW217290   5.017   8.400   9.524  0.5571  0.4755  0.0631
 4800SOL     OW17291   3.483   8.177   1.245  0.6038 -0.3410 -0.9388
 4800SOL    HW117292   3.391   8.203   1.234  0.3653  0.8484  2.6046
 4800SOL    HW217293   3.489   8.093   1.200 -2.7805 -1.4204  0.2843
 4801SOL     OW17294   1.333   5.753   3.188 -0.2841 -0.0092 -0.1468
 4801SOL    HW117295   1.360   5.702   3.264  1.1452  0.6825 -0.1524
 4801SOL    HW217296   1.345   5.694   3.114  0.7116  0.0952 -0.0835
 4802SOL     OW17297   0.710   7.762   4.536  0.1424  0.3272 -0.8001
 4802SOL    HW117298   0.688   7.848   4.572 -3.4968  0.4892 -2.9225
 4802SOL    HW217299   0.738   7.710   4.611  0.8944  2.8507  0.7832
 4803SOL     OW17300   3.009   6.230   7.760 -0.2426 -0.1621 -0.0806
 4803SOL    HW117301   3.003   6.295   7.690  1.4611  2.3784  1.9279
 4803SOL    HW217302   2.941   6.255   7.822 -0.0903 -0.8178  0.3583
 4804SOL     OW17303   7.357   8.535   1.429 -0.4367  0.0285  0.2112
 4804SOL    HW117304   7.356   8.440   1.427 -0.7218  0.0299 -1.2190
 4804SOL    HW217305   7.337   8.561   1.339 -1.7415  1.4419  0.8533
 4805SOL     OW17306   0.264   5.332   7.375  0.2599  0.3033 -0.2506
 4805SOL    HW117307   0.247   5.424   7.355  2.2939  0.9756  0.7460
 4805SOL    HW217308   0.188   5.304   7.427 -0.5603  1.2981 -0.8778
 4806SOL     OW17309   1.827   2.359   2.644 -0.9898  0.2835  0.5150
 4806SOL    HW117310   1.821   2.455   2.640  0.5330  0.3602 -1.1137
 4806SOL    HW217311   1.842   2.339   2.736 -0.8062  1.6438  0.7955
 4807SOL     OW17312   8.100   2.776   3.547 -0.1007 -0.6851  0.1356
 4807SOL    HW117313   8.194   2.757   3.540 -0.1089 -0.3170 -1.2202
 4807SOL    HW217314   8.058   2.708   3.495 -0.5229 -0.3458  0.0279
 4808SOL     OW17315   0.610   5.919   8.450 -0.0152 -0.1599  0.6205
 4808SOL    HW117316   0.565   6.001   8.472  3.1324  1.7918  0.4268
 4808SOL    HW217317   0.569   5.853   8.507 -2.0524  1.6868  1.4606
 4809SOL     OW17318   1.592   3.878   7.124  0.5563  0.1181 -0.0061
 4809SOL    HW117319   1.589   3.918   7.211 -1.8288 -1.0526  0.5476
 4809SOL    HW217320   1.573   3.785   7.141 -2.4133  0.2433 -1.9031
 4810SOL     OW17321   0.007   8.377   2.322  0.3512  0.3193  0.1004
 4810SOL    HW117322   0.059   8.454   2.299  1.1289 -0.1173  0.3597
 4810SOL    HW217323  -0.059   8.410   2.383  1.2594  0.6248  0.9429
 4811SOL     OW17324   8.007   4.695   8.285  0.7142  0.2753 -0.1496
 4811SOL    HW117325   7.952   4.619   8.306  0.0158  1.2224  1.6385
 4811SOL    HW217326   8.027   4.684   8.192 -0.2687 -1.5151 -0.2076
 4812SOL     OW17327   4.534   2.070   0.522  0.0372 -0.7280  0.5997
 4812SOL    HW117328   4.445   2.074   0.558  0.8132 -0.5076  2.6191
 4812SOL    HW217329   4.577   1.999   0.570  0.6479 -1.6212 -1.1707
 4813SOL     OW17330   9.627   9.580   9.224  0.1464  0.8987 -0.1406
 4813SOL    HW117331   9.645   9.655   9.167 -0.0430  1.6348  0.7539
 4813SOL    HW217332   9.621   9.505   9.164  0.6548  1.5431 -1.0064
 4814SOL     OW17333   7.885   7.382   4.113  0.0242  0.6183 -0.0946
 4814SOL    HW117334   7.856   7.466   4.078 -0.2390  0.7921  0.5251
 4814SOL    HW217335   7.810   7.324   4.103  0.4889  0.2010 -1.3262
 4815SOL     OW17336   4.804   4.800   8.724 -0.2601 -0.9210  0.4208
 4815SOL    HW117337   4.767   4.862   8.662 -1.0134 -2.4848 -0.7734
 4815SOL    HW217338   4.809   4.848   8.807  0.5694  1.1655 -0.7542
 4816SOL     OW17339   8.540   8.102   4.318 -0.1547 -0.1887 -0.4036
 4816SOL    HW117340   8.611   8.109   4.254  0.8216  0.7508  0.7358
 4816SOL    HW217341   8.493   8.186   4.312 -0.4989 -0.3766 -0.3837
 4817SOL     OW17342   8.426   1.375   5.529  0.0491  0.3054  0.1001
 4817SOL    HW117343   8.453   1.424   5.451 -0.8741  1.5612  0.5441
 4817SOL    HW217344   8.413   1.285   5.497  0.7030  0.5632 -0.9586
 4818SOL     OW17345   2.950   9.397   3.630  0.0737 -0.3574 -0.2815
 4818SOL    HW117346   2.972   9.488   3.648 -0.9690 -0.2721  0.6410
 4818SOL    HW217347   3.004   9.346   3.690  0.6510 -0.3597 -0.7920
 4819SOL     OW17348   7.412   0.004   5.908 -0.3327 -0.2592  0.0199
 4819SOL    HW117349   7.448  -0.065   5.853 -0.2121 -0.2230  0.0514
 4819SOL    HW217350   7.419   0.083   5.855  2.3116  0.2974  1.0403
 4820SOL     OW17351   8.057   2.888   1.544 -0.4018 -0.6285 -0.7028
 4820SOL    HW117352   8.144   2.919   1.521 -0.1611 -1.1872 -0.5597
 4820SOL    HW217353   8.000   2.921   1.475 -0.4586  1.5815  0.2974
 4821SOL     OW17354   7.443   0.648   3.982 -0.4091  0.4923 -0.2099
 4821SOL    HW117355   7.470   0.589   3.912 -0.7794 -1.1477  0.9670
 4821SOL    HW217356   7.525   0.682   4.017 -0.0996 -0.5365  0.0903
 4822SOL     OW17357   1.612   6.274   1.110 -0.4184  0.3141 -0.2000
 4822SOL    HW117358   1.541   6.222   1.073  0.4540 -0.4944 -0.7729
 4822SOL    HW217359   1.604   6.359   1.066 -0.9605  0.1952 -0.3427
 4823SOL     OW17360   3.955   6.923   3.822 -0.0041 -0.2967 -0.2715
 4823SOL    HW117361   3.959   6.937   3.727  1.3766  1.3822 -0.0270
 4823SOL    HW217362   4.009   6.993   3.858 -2.0612  0.3125  1.8749
 4824SOL     OW17363   8.449   8.288   1.876 -0.0128 -0.5459 -0.4322
 4824SOL    HW117364   8.544   8.279   1.864  0.2704  0.2694  1.0670
 4824SOL    HW217365   8.436   8.380   1.898 -1.3340 -0.3146 -1.9731
 4825SOL     OW17366   5.094   3.000   3.510 -0.5232  0.1681  0.0639
 4825SOL    HW117367   5.011   2.952   3.516 -0.0671 -0.6362  0.0864
 4825SOL    HW217368   5.078   3.081   3.559 -0.8024 -0.6917  1.4676
 4826SOL     OW17369   6.518   8.519   4.843  0.4756 -0.4406 -0.4786
 4826SOL    HW117370   6.542   8.574   4.768 -3.9159  2.1010 -0.3430
 4826SOL    HW217371   6.474   8.443   4.804 -2.4266  1.2103 -0.6958
 4827SOL     OW17372   8.167   5.261   2.009 -0.5012 -0.6506 -0.4239
 4827SOL    HW117373   8.112   5.289   2.082  0.7459 -0.0140  0.3073
 4827SOL    HW217374   8.122   5.185   1.973 -0.5077 -1.8052  1.8294
 4828SOL     OW17375   2.939   1.850   3.740  0.5977 -0.0470 -0.2051
 4828SOL    HW117376   2.872   1.814   3.682  1.9751 -0.8275 -1.3967
 4828SOL    HW217377   2.934   1.945   3.727 -1.4407  0.0857  1.1118
 4829SOL     OW17378   7.956   4.638   7.354  0.3355  0.0279  0.3531
 4829SOL    HW117379   8.000   4.557   7.378  0.5720 -0.1539 -0.6675
 4829SOL    HW217380   8.014   4.679   7.290 -1.0352 -0.3037 -1.1561
 4830SOL     OW17381   3.075   4.534   0.803  0.6252 -0.3562 -0.1663
 4830SOL    HW117382   3.092   4.443   0.777 -1.3645 -0.8168 -0.0235
 4830SOL    HW217383   3.070   4.530   0.899  0.1910 -0.1759 -0.1796
 4831SOL     OW17384   8.679   0.500   7.146  0.4131  0.3203 -0.3633
 4831SOL    HW117385   8.742   0.569   7.164  0.2262  0.0109  1.6043
 4831SOL    HW217386   8.595   0.535   7.174  0.3183 -0.6884  0.6921
 4832SOL     OW17387   3.005   3.654   5.675 -0.2194 -0.0932 -0.4859
 4832SOL    HW117388   3.075   3.590   5.663 -0.0301  0.2950 -1.5325
 4832SOL    HW217389   3.035   3.707   5.750 -0.9622 -1.9376  1.2207
 4833SOL     OW17390   5.578   7.174   8.484 -0.0791  0.5123  0.0257
 4833SOL    HW117391   5.630   7.150   8.561 -1.1839 -0.7014  0.4355
 4833SOL    HW217392   5.605   7.111   8.417 -0.2589  0.5467 -0.0782
 4834SOL     OW17393   6.476   3.930   9.019 -0.1984 -0.1937  0.2288
 4834SOL    HW117394   6.412   3.988   8.977 -0.0724  0.5130  0.9770
 4834SOL    HW217395   6.427   3.888   9.090  0.1972  0.4910  0.9227
 4835SOL     OW17396   0.011   5.562   3.504  0.5421 -0.4598 -0.0960
 4835SOL    HW117397   0.052   5.625   3.445  0.1695  0.6431  0.7759
 4835SOL    HW217398  -0.073   5.541   3.464 -0.7393  2.0307  1.0632
 4836SOL     OW17399   8.782   3.409   0.700 -0.8474 -0.1930 -0.2808
 4836SOL    HW117400   8.716   3.344   0.677 -2.0953  0.6019  0.8949
 4836SOL    HW217401   8.751   3.490   0.659 -0.8905  0.2927  0.6676
 4837SOL     OW17402   7.345   6.454   7.628  0.2528 -0.0924 -0.1214
 4837SOL    HW117403   7.416   6.453   7.692 -0.3856  0.9922  0.6400
 4837SOL    HW217404   7.265   6.446   7.680 -0.3987  2.4996 -0.5292
 4838SOL     OW17405   5.438   5.767   7.413 -0.1407 -0.0052  0.5037
 4838SOL    HW117406   5.346   5.751   7.389 -0.3532  1.4147  0.2755
 4838SOL    HW217407   5.489   5.713   7.353 -0.7688  0.9003 -0.9005
 4839SOL     OW17408   4.274   4.152   0.433  0.8019  0.2842 -0.2433
 4839SOL    HW117409   4.272   4.185   0.523 -1.5982 -0.8128  0.1867
 4839SOL    HW217410   4.351   4.096   0.430  1.3465  0.9326  0.9094
 4840SOL     OW17411   2.357   2.018   3.796 -0.2453  0.4945 -0.0513
 4840SOL    HW117412   2.372   1.964   3.717 -0.4431 -3.2452  2.2042
 4840SOL    HW217413   2.262   2.028   3.800 -0.1668  1.6381 -0.8224
 4841SOL     OW17414   6.402   6.913   1.705  0.3378  0.0880 -0.3886
 4841SOL    HW117415   6.399   6.820   1.726  0.4661 -0.2509 -1.7760
 4841SOL    HW217416   6.322   6.928   1.654  1.3788  0.2317 -2.0391
 4842SOL     OW17417   6.758   0.161   4.224  0.2324 -0.3776 -0.3469
 4842SOL    HW117418   6.672   0.181   4.188 -0.8682 -1.9763  1.2387
 4842SOL    HW217419   6.817   0.163   4.148 -1.5938 -1.4581 -1.8832
 4843SOL     OW17420   0.675   5.042   7.759 -0.3355  0.2548  0.0600
 4843SOL    HW117421   0.586   5.018   7.786  0.4291 -1.2662  1.4285
 4843SOL    HW217422   0.704   5.104   7.825 -0.1234  0.1987  0.0182
 4844SOL     OW17423   8.101   8.881   0.902 -0.3889 -0.1768 -0.1922
 4844SOL    HW117424   8.122   8.938   0.976  0.5634  0.3873 -0.8610
 4844SOL    HW217425   8.054   8.939   0.841 -0.6383 -0.4791 -0.2879
 4845SOL     OW17426   6.440   8.136   8.373 -0.6859 -0.2971 -0.4536
 4845SOL    HW117427   6.402   8.224   8.369 -0.0941 -0.0832 -2.1012
 4845SOL    HW217428   6.511   8.137   8.309 -1.2387 -2.2326 -1.1651
 4846SOL     OW17429   2.718   3.270   8.983  0.6242 -0.0513 -0.2983
 4846SOL    HW117430   2.627   3.240   8.978  0.4788 -0.0796  1.7555
 4846SOL    HW217431   2.722   3.345   8.924 -1.6585  2.0286  1.9662
 4847SOL     OW17432   7.944   8.640   0.668 -0.1669  0.0126 -0.1132
 4847SOL    HW117433   7.886   8.711   0.641 -0.7250 -0.6016 -0.5866
 4847SOL    HW217434   7.945   8.581   0.593  0.6865 -0.2330  0.0863
 4848SOL     OW17435   5.320   0.287   5.464 -0.0292  0.0840 -0.0750
 4848SOL    HW117436   5.270   0.362   5.494  2.1703  1.6787 -0.1720
 4848SOL    HW217437   5.261   0.241   5.404 -1.2948  1.9468 -0.3424
 4849SOL     OW17438   9.322   2.975   2.820  0.0024  0.3622  0.0067
 4849SOL    HW117439   9.295   2.931   2.901  0.1641 -1.4568 -0.8741
 4849SOL    HW217440   9.274   3.058   2.820  0.0735  0.4487  1.9952
 4850SOL     OW17441   9.402   2.784   7.440  0.7599 -0.5761 -0.1690
 4850SOL    HW117442   9.313   2.774   7.475  1.4363 -0.4992  1.6564
 4850SOL    HW217443   9.404   2.726   7.364 -0.7935 -0.7063 -0.1449
 4851SOL     OW17444   2.052   1.159   6.693  0.5691 -0.1167 -0.3282
 4851SOL    HW117445   2.066   1.077   6.741  0.0083 -0.9977 -1.6067
 4851SOL    HW217446   1.958   1.176   6.703  0.7155  0.4629  0.0696
 4852SOL     OW17447   3.346   1.150   5.331 -0.0726  0.4238 -0.1744
 4852SOL    HW117448   3.368   1.073   5.278  2.1840  0.6548  0.3169
 4852SOL    HW217449   3.284   1.199   5.277  1.0808 -0.0371 -2.0122
 4853SOL     OW17450   9.312   7.753   1.241  0.1414 -0.1426  0.0491
 4853SOL    HW117451   9.317   7.796   1.326 -0.5974  1.1198 -0.5133
 4853SOL    HW217452   9.276   7.666   1.260  0.4729 -0.0663  1.0785
 4854SOL     OW17453   6.761   2.120   7.435  0.3996  0.2425 -0.5721
 4854SOL    HW117454   6.780   2.131   7.341  0.1590  2.7169 -0.4114
 4854SOL    HW217455   6.748   2.209   7.466 -0.8837 -0.6335  1.5576
 4855SOL     OW17456   0.465   2.647   8.267 -0.3371 -0.8974 -0.3475
 4855SOL    HW117457   0.530   2.687   8.208  0.9773 -0.6506  1.2059
 4855SOL    HW217458   0.443   2.564   8.225 -0.6801 -0.0210 -2.0007
 4856SOL     OW17459   3.898   6.462   2.341  0.1810  0.0040 -0.2021
 4856SOL    HW117460   3.848   6.386   2.314 -1.0156  0.5616  0.3332
 4856SOL    HW217461   3.917   6.447   2.434  1.4592 -0.4280 -0.5183
 4857SOL     OW17462   3.435   1.943   8.112 -0.1010 -0.2153  0.4586
 4857SOL    HW117463   3.493   1.912   8.042 -1.0728 -0.9414 -0.0536
 4857SOL    HW217464   3.457   2.036   8.122 -0.0566 -0.0495 -0.9483
 4858SOL     OW17465   8.689   3.493   4.306 -0.5632 -0.0743 -0.4991
 4858SOL    HW117466   8.602   3.477   4.271 -0.6218  0.9195 -0.8345
 4858SOL    HW217467   8.740   3.523   4.231 -0.3005  0.6602 -0.0384
 4859SOL     OW17468   9.580   1.371   4.245 -0.7880 -0.6492 -0.0938
 4859SOL    HW117469   9.542   1.283   4.244 -0.0243 -1.0643  2.1469
 4859SOL    HW217470   9.672   1.357   4.268 -0.8083  0.7720  0.9799
 4860SOL     OW17471   2.036   8.649   5.296 -0.0577 -0.4386  0.1001
 4860SOL    HW117472   2.087   8.572   5.272  1.7444  1.0997 -1.2652
 4860SOL    HW217473   2.017   8.638   5.389  0.9202 -2.0926  0.1235
 4861SOL     OW17474   3.475   4.279   8.605 -0.1252 -0.3811 -0.5866
 4861SOL    HW117475   3.423   4.297   8.527  2.0140  1.2727 -1.7418
 4861SOL    HW217476   3.543   4.218   8.576 -0.1524 -0.8575  0.3338
 4862SOL     OW17477   4.811   6.684   9.375 -0.2515  0.0010  0.4092
 4862SOL    HW117478   4.844   6.762   9.332 -0.7942  0.7381  1.2997
 4862SOL    HW217479   4.877   6.617   9.357  0.5912  0.8459  0.2581
 4863SOL     OW17480   7.614   8.976   2.144  0.0295  0.2927  0.0297
 4863SOL    HW117481   7.537   9.028   2.169 -0.6342 -0.5763 -0.1830
 4863SOL    HW217482   7.647   9.020   2.065  0.6621  1.5605  0.9602
 4864SOL     OW17483   5.023   8.230   5.902 -0.2188  0.5088  0.2882
 4864SOL    HW117484   5.032   8.299   5.968 -2.7610  1.4401 -0.2434
 4864SOL    HW217485   4.966   8.165   5.942 -0.7199  0.4415 -0.5204
 4865SOL     OW17486   5.486   9.039   5.345  0.6336  0.0485 -0.0183
 4865SOL    HW117487   5.393   9.016   5.335  0.8846 -0.7482 -0.5589
 4865SOL    HW217488   5.492   9.126   5.306 -0.3239  1.1460  2.0800
 4866SOL     OW17489   9.510   1.933   7.003  0.4794  0.6462  0.0272
 4866SOL    HW117490   9.498   1.888   6.920  0.9038 -1.2588  0.9344
 4866SOL    HW217491   9.422   1.964   7.027 -0.2089 -1.3157  0.2006
 4867SOL     OW17492   2.294   0.107   0.428  0.4096 -0.2136  0.3589
 4867SOL    HW117493   2.303   0.065   0.343 -0.1378  0.3516  0.0110
 4867SOL    HW217494   2.286   0.034   0.490 -0.0541 -0.6328 -0.1788
 4868SOL     OW17495   9.239   1.051   4.771 -0.3186  0.1183 -0.0994
 4868SOL    HW117496   9.233   1.137   4.813 -0.7834  0.4195 -0.7658
 4868SOL    HW217497   9.309   1.061   4.706 -0.6018  0.0949 -0.4093
 4869SOL     OW17498   9.424   0.395   1.746 -0.0886 -0.2015  0.4964
 4869SOL    HW117499   9.495   0.367   1.803  1.5807 -0.5071 -1.6090
 4869SOL    HW217500   9.440   0.488   1.731 -0.1741 -0.2456  0.1062
 4870SOL     OW17501   2.584   9.158   6.771 -0.1382 -0.3222  0.3808
 4870SOL    HW117502   2.544   9.238   6.805  0.1548 -0.0405  0.0638
 4870SOL    HW217503   2.641   9.127   6.842  0.3528  0.1768  0.2054
 4871SOL     OW17504   4.702   7.389   3.524 -0.0904  0.3411 -0.4331
 4871SOL    HW117505   4.787   7.434   3.520  1.0307 -1.6037  0.2985
 4871SOL    HW217506   4.699   7.337   3.444 -1.3028  1.5224 -1.1902
 4872SOL     OW17507   3.437   3.932   4.368 -0.3795  0.4435 -0.9703
 4872SOL    HW117508   3.366   3.939   4.305 -0.9413  1.8004 -0.2259
 4872SOL    HW217509   3.434   4.014   4.417  1.9767  0.7307 -1.2038
 4873SOL     OW17510   2.079   4.808   3.211  0.3333  0.1173  0.2595
 4873SOL    HW117511   2.004   4.844   3.163 -0.8041  0.5215  2.1874
 4873SOL    HW217512   2.155   4.853   3.174 -0.4113  0.0430 -1.4428
 4874SOL     OW17513   5.127   4.090   1.860 -0.0916 -0.4678  0.2688
 4874SOL    HW117514   5.153   4.166   1.912  2.2202 -0.2100 -1.1096
 4874SOL    HW217515   5.131   4.017   1.922 -0.2233  0.2285  1.1166
 4875SOL     OW17516   4.435   1.114   4.911  0.5585  0.3180  0.2647
 4875SOL    HW117517   4.483   1.170   4.850  0.0789  0.8306  0.3546
 4875SOL    HW217518   4.502   1.080   4.970  0.9461  0.2597 -0.2055
 4876SOL     OW17519   0.258   0.543   8.444  0.9160 -0.0943  0.2298
 4876SOL    HW117520   0.181   0.535   8.499  1.1892 -0.5396  0.5581
 4876SOL    HW217521   0.224   0.566   8.357  0.3917 -0.5947  0.2960
 4877SOL     OW17522   8.617   3.491   6.873  0.1099 -0.0396 -0.3668
 4877SOL    HW117523   8.711   3.510   6.864  0.0013  0.2137 -1.1082
 4877SOL    HW217524   8.613   3.399   6.900  0.5654 -0.2356 -0.9398
 4878SOL     OW17525   6.154   6.613   1.392 -0.2606  0.0298  0.0627
 4878SOL    HW117526   6.181   6.600   1.301 -1.7976 -1.6109 -0.2108
 4878SOL    HW217527   6.114   6.530   1.417  0.5080  0.2917  2.4047
 4879SOL     OW17528   1.552   8.715   9.034  0.1513 -0.0910  0.5138
 4879SOL    HW117529   1.619   8.692   8.969 -0.3949  0.6087 -0.3152
 4879SOL    HW217530   1.526   8.631   9.073  1.4570 -0.3782  0.8113
 4880SOL     OW17531   6.429   7.185   6.728  0.1212  0.0610 -0.1596
 4880SOL    HW117532   6.454   7.252   6.791  1.7207 -1.0746  0.4749
 4880SOL    HW217533   6.367   7.229   6.669  0.2337  1.7400  0.9152
 4881SOL     OW17534   1.546   6.598   7.255 -0.3644  0.1173 -0.1163
 4881SOL    HW117535   1.481   6.638   7.313 -0.6598  0.5094 -0.6945
 4881SOL    HW217536   1.597   6.540   7.311 -0.0293  1.1902  0.7280
 4882SOL     OW17537   7.817   3.397   9.425 -0.0659 -0.4896 -0.3190
 4882SOL    HW117538   7.881   3.462   9.455  1.4400 -1.5954 -1.0160
 4882SOL    HW217539   7.862   3.314   9.432 -1.5759 -1.3627 -0.5136
 4883SOL     OW17540   6.228   6.738   5.775  0.2682  0.1089 -0.4759
 4883SOL    HW117541   6.243   6.643   5.769 -0.7856 -0.1711  0.8523
 4883SOL    HW217542   6.261   6.772   5.692  0.4864 -1.4475 -1.0726
 4884SOL     OW17543   0.049   2.734   6.234 -0.2105 -0.6011 -0.4739
 4884SOL    HW117544   0.124   2.736   6.293  0.3907  0.8653 -1.2345
 4884SOL    HW217545   0.027   2.827   6.220 -2.5248 -0.9850  0.1596
 4885SOL     OW17546   5.603   5.650   3.146 -0.3715  0.3872 -0.0023
 4885SOL    HW117547   5.565   5.732   3.179 -1.4802  0.4069 -1.2375
 4885SOL    HW217548   5.556   5.633   3.065 -0.1218 -1.4696  0.2029
 4886SOL     OW17549   3.745   1.668   2.603  0.3772  0.1047 -0.0983
 4886SOL    HW117550   3.655   1.699   2.619  0.3023 -0.0859 -0.1524
 4886SOL    HW217551   3.798   1.716   2.667  0.4340  1.2726 -0.9826
 4887SOL     OW17552   4.696   8.517   0.893  0.7885 -0.5029 -0.5536
 4887SOL    HW117553   4.697   8.444   0.955  0.6996 -0.8763 -0.9891
 4887SOL    HW217554   4.766   8.575   0.923  1.0044 -0.8717 -0.3369
 4888SOL     OW17555   0.064   7.934   8.037 -0.4654 -0.4339 -0.8484
 4888SOL    HW117556   0.064   7.848   8.078  2.8668 -0.9104 -1.6107
 4888SOL    HW217557  -0.005   7.929   7.970 -0.0014 -2.6987 -1.2220
 4889SOL     OW17558   5.742   9.067   2.100 -0.3426  1.0760  0.2466
 4889SOL    HW117559   5.811   9.057   2.034  1.4957  1.3002  2.0446
 4889SOL    HW217560   5.772   9.016   2.175 -3.2395 -0.6691  0.3753
 4890SOL     OW17561   5.345   2.764   5.122 -0.3777  0.8340 -0.2720
 4890SOL    HW117562   5.354   2.859   5.118 -1.3306  1.0329  1.2861
 4890SOL    HW217563   5.251   2.748   5.128 -0.1875  0.1413  3.8976
 4891SOL     OW17564   4.620   3.337   8.952  0.1946 -0.2565  0.0201
 4891SOL    HW117565   4.640   3.393   9.026 -1.8853 -1.1016  1.3072
 4891SOL    HW217566   4.678   3.368   8.882  0.3461  2.3146  1.1693
 4892SOL     OW17567   0.150   1.049   2.489  0.3203 -0.3784  0.0619
 4892SOL    HW117568   0.135   1.043   2.394  0.4911 -1.7705  0.1010
 4892SOL    HW217569   0.062   1.052   2.527 -0.0373 -4.7306  0.0782
 4893SOL     OW17570   7.370   0.003   5.320  0.1484 -0.0185 -0.0892
 4893SOL    HW117571   7.355  -0.065   5.255 -0.3928  1.4105 -1.5309
 4893SOL    HW217572   7.445   0.052   5.286  0.6029  0.0600  0.9852
 4894SOL     OW17573   1.969   8.417   6.355 -0.3387 -0.1689  0.0760
 4894SOL    HW117574   2.062   8.433   6.336 -0.3515 -1.0528 -0.8687
 4894SOL    HW217575   1.955   8.454   6.442  0.4711  1.5476 -0.4786
 4895SOL     OW17576   3.297   8.053   4.729  0.3159 -0.2675 -0.3326
 4895SOL    HW117577   3.343   8.121   4.680 -0.1037  0.6907  0.5745
 4895SOL    HW217578   3.343   7.972   4.707  0.1809  0.1370 -2.2425
 4896SOL     OW17579   8.852   7.372   9.488 -0.2916 -0.2079  0.2219
 4896SOL    HW117580   8.892   7.457   9.470 -2.2253  0.3989 -1.6020
 4896SOL    HW217581   8.810   7.347   9.406  0.3746 -3.0600  0.6348
 4897SOL     OW17582   9.059   2.955   1.060 -0.3916 -0.1292 -0.2118
 4897SOL    HW117583   9.016   2.903   1.127 -1.0590  1.2891  0.5048
 4897SOL    HW217584   8.993   3.017   1.031 -0.1991 -0.8343 -2.3888
 4898SOL     OW17585   5.975   6.522   6.254 -0.0421  0.1835 -0.2395
 4898SOL    HW117586   5.970   6.602   6.203  0.9716  0.4536  0.0416
 4898SOL    HW217587   6.063   6.525   6.293 -0.2123 -0.7744  0.2435
 4899SOL     OW17588   6.150   7.185   5.845  0.4974 -0.5320  0.6359
 4899SOL    HW117589   6.244   7.200   5.854  0.4468 -0.6508  1.4361
 4899SOL    HW217590   6.110   7.249   5.904  0.0435 -0.0288 -0.2048
 4900SOL     OW17591   9.349   8.618   7.771  0.1560  0.0639 -0.6371
 4900SOL    HW117592   9.438   8.606   7.737  0.0942  1.8798 -1.5330
 4900SOL    HW217593   9.304   8.537   7.750  1.1619 -0.2689 -1.5894
 4901SOL     OW17594   4.545   1.048   0.640 -0.0224  0.9796 -0.0732
 4901SOL    HW117595   4.604   1.123   0.634 -1.3185  1.9161 -2.0300
 4901SOL    HW217596   4.468   1.080   0.687 -1.0785  1.2923 -1.9114
 4902SOL     OW17597   7.879   5.130   1.050  0.4416 -0.0597  0.6507
 4902SOL    HW117598   7.920   5.205   1.009 -0.1947  0.3494  0.7462
 4902SOL    HW217599   7.873   5.065   0.980  1.7222 -0.3363  0.7681
 4903SOL     OW17600   7.310   0.693   0.592 -0.0005 -0.4229  0.1017
 4903SOL    HW117601   7.246   0.751   0.633 -0.0421 -0.9411  0.7935
 4903SOL    HW217602   7.313   0.617   0.650  0.0668 -1.1019 -0.7758
 4904SOL     OW17603   0.159   7.370   3.297  0.0390 -0.2842 -0.3581
 4904SOL    HW117604   0.226   7.438   3.287 -0.3603  0.2677  0.5930
 4904SOL    HW217605   0.080   7.418   3.323  0.2340 -1.2462  2.3398
 4905SOL     OW17606   3.180   5.906   7.141  0.1977  0.2494 -0.1176
 4905SOL    HW117607   3.262   5.878   7.182  0.5262 -2.0146 -2.1087
 4905SOL    HW217608   3.113   5.886   7.206  1.0393  0.3884  0.8242
 4906SOL     OW17609   4.593   8.835   9.628 -0.0585  0.2383  0.1073
 4906SOL    HW117610   4.619   8.746   9.606 -1.5412  0.0939 -1.2243
 4906SOL    HW217611   4.617   8.845   9.720 -0.0129 -1.5888  0.3252
 4907SOL     OW17612   4.871   7.835   0.341 -0.3864 -0.0295  0.3328
 4907SOL    HW117613   4.870   7.792   0.256 -0.3830 -0.7330  0.6745
 4907SOL    HW217614   4.929   7.909   0.331 -1.2488  0.5398 -0.5799
 4908SOL     OW17615   2.141   5.199   6.956  0.0250 -0.0490 -0.6225
 4908SOL    HW117616   2.162   5.275   6.902 -0.3354 -0.6740 -1.6773
 4908SOL    HW217617   2.148   5.124   6.896  1.3843 -0.9840  0.6090
 4909SOL     OW17618   0.843   0.169   2.388 -0.1688 -0.5193 -0.0956
 4909SOL    HW117619   0.913   0.107   2.369 -0.6920 -2.1972  2.8697
 4909SOL    HW217620   0.887   0.253   2.399  0.9333 -0.8994 -1.3783
 4910SOL     OW17621   1.998   3.842   4.936  0.3623 -0.0492  0.1445
 4910SOL    HW117622   1.951   3.920   4.907 -0.8322 -1.0720 -0.7559
 4910SOL    HW217623   2.010   3.856   5.031  1.0767  1.6490 -0.1406
 4911SOL     OW17624   3.373   7.260   2.298 -0.6494 -0.5269  0.6547
 4911SOL    HW117625   3.279   7.272   2.292 -0.7440 -0.6146  1.7109
 4911SOL    HW217626   3.408   7.348   2.312 -0.8066 -0.7147  2.5289
 4912SOL     OW17627   1.636   2.315   6.778  0.0291  0.0891 -0.0764
 4912SOL    HW117628   1.563   2.267   6.737 -1.3957  0.6319  1.6708
 4912SOL    HW217629   1.664   2.378   6.711 -1.1575 -0.0943 -0.7752
 4913SOL     OW17630   2.074   2.719   9.327  0.6923 -0.5801  0.0297
 4913SOL    HW117631   2.159   2.762   9.314  0.2813  1.0949  2.2342
 4913SOL    HW217632   2.069   2.705   9.422 -1.0467 -1.6309 -0.1856
 4914SOL     OW17633   2.612   3.163   0.583 -0.0487  0.4847  0.5355
 4914SOL    HW117634   2.640   3.175   0.674  0.9925  1.1902  0.1422
 4914SOL    HW217635   2.582   3.072   0.579  0.9908  0.0883  1.3079
 4915SOL     OW17636   0.733   9.024   1.445  0.4023  0.4762 -0.0315
 4915SOL    HW117637   0.722   8.972   1.525 -1.7588  2.1446  0.8727
 4915SOL    HW217638   0.645   9.024   1.405  1.2642  0.3001 -2.0384
 4916SOL     OW17639   3.542   3.452   8.261 -0.0030 -0.3174 -0.5953
 4916SOL    HW117640   3.585   3.515   8.319  0.0796 -1.4594  0.6366
 4916SOL    HW217641   3.463   3.497   8.232  1.0934  1.1395 -1.4649
 4917SOL     OW17642   7.506   1.406   7.836  0.2949  0.3039  0.2882
 4917SOL    HW117643   7.424   1.362   7.856 -0.2440  0.5110 -1.3338
 4917SOL    HW217644   7.519   1.391   7.742  0.7975  2.4133 -0.0338
 4918SOL     OW17645   6.569   3.255   0.320 -0.2821  0.3353 -0.1273
 4918SOL    HW117646   6.616   3.172   0.330 -0.1398  0.2187 -1.5132
 4918SOL    HW217647   6.536   3.275   0.408  2.1681  0.3317  0.8872
 4919SOL     OW17648   2.427   3.758   4.901  0.0196  0.4748 -0.5245
 4919SOL    HW117649   2.385   3.841   4.923 -2.4942 -0.5039 -1.1887
 4919SOL    HW217650   2.468   3.729   4.982  2.5716  3.1444 -0.7150
 4920SOL     OW17651   9.541   7.187   6.183  0.0646  0.0115  0.1024
 4920SOL    HW117652   9.594   7.205   6.261 -2.1062  0.1130  1.6515
 4920SOL    HW217653   9.504   7.100   6.198 -0.6594  0.1734 -0.6472
 4921SOL     OW17654   7.614   1.207   5.625  0.0636 -0.5707 -0.7080
 4921SOL    HW117655   7.533   1.156   5.625 -0.2047 -0.1745 -2.0333
 4921SOL    HW217656   7.602   1.272   5.556  0.8378  0.6003  0.2309
 4922SOL     OW17657   0.461   8.938   0.806  0.2848 -0.0666 -0.0081
 4922SOL    HW117658   0.487   9.021   0.767  0.3713  0.1773  0.5518
 4922SOL    HW217659   0.419   8.890   0.735 -0.5350  0.8017 -0.1372
 4923SOL     OW17660   4.837   4.540   7.625 -0.4616 -0.6289  0.1245
 4923SOL    HW117661   4.794   4.458   7.600 -1.4060  0.2327 -1.2184
 4923SOL    HW217662   4.848   4.588   7.542 -0.1042  0.6905  0.8995
 4924SOL     OW17663   5.522   5.939   0.578 -0.2153  0.4872  0.0010
 4924SOL    HW117664   5.608   5.903   0.557  0.2067  1.2813  0.2989
 4924SOL    HW217665   5.482   5.874   0.635  0.4565  0.3973  0.3869
 4925SOL     OW17666   5.898   3.717   7.248  0.3908  0.1800 -0.2471
 4925SOL    HW117667   5.942   3.801   7.238 -0.1099  0.8282  2.2741
 4925SOL    HW217668   5.813   3.729   7.205  0.4122  0.8977 -0.0981
 4926SOL     OW17669   0.581   2.153   3.729 -0.5016 -0.5535  0.2556
 4926SOL    HW117670   0.508   2.142   3.668  0.3238 -2.0102 -0.5547
 4926SOL    HW217671   0.541   2.149   3.816 -1.5653  0.3567 -0.1714
 4927SOL     OW17672   5.259   0.047   7.969 -0.5349 -0.5237 -0.6289
 4927SOL    HW117673   5.239   0.062   8.062  1.4154 -0.0681 -0.2290
 4927SOL    HW217674   5.277   0.135   7.934  0.3677 -0.8501 -1.0068
 4928SOL     OW17675   0.139   7.239   0.679  0.1882 -0.0113  0.0929
 4928SOL    HW117676   0.069   7.245   0.614 -0.1537 -0.9689  0.3548
 4928SOL    HW217677   0.098   7.266   0.761  0.1104 -0.5602  0.2434
 4929SOL     OW17678   7.337   2.015   8.801 -0.0980 -0.0118 -0.4088
 4929SOL    HW117679   7.305   2.038   8.888  0.8139  0.9871 -0.3252
 4929SOL    HW217680   7.430   1.998   8.813  0.2175  0.9790 -1.3322
 4930SOL     OW17681   6.187   3.786   0.613 -0.5431 -0.6310  0.3703
 4930SOL    HW117682   6.098   3.806   0.642 -0.8471  2.0333 -1.9359
 4930SOL    HW217683   6.187   3.809   0.520  2.7064  0.0918  0.4278
 4931SOL     OW17684   1.965   3.878   7.258  0.0997 -0.2849 -0.1979
 4931SOL    HW117685   1.998   3.836   7.336 -1.7549 -1.1158  0.1929
 4931SOL    HW217686   2.023   3.848   7.188  1.0899 -0.4329  0.6603
 4932SOL     OW17687   5.052   6.955   2.326 -0.6052 -0.4902 -0.2416
 4932SOL    HW117688   5.061   6.903   2.406 -1.1812  1.5628  1.2345
 4932SOL    HW217689   5.021   6.892   2.260 -0.1070 -2.2424  1.1099
 4933SOL     OW17690   9.073   4.146   4.113  0.0256 -0.3688  0.2686
 4933SOL    HW117691   9.039   4.193   4.189  1.1018  1.0932 -0.0941
 4933SOL    HW217692   9.048   4.200   4.038  2.4983  0.4779 -0.0588
 4934SOL     OW17693   1.518   3.708   0.849 -0.1788  0.1480  0.3223
 4934SOL    HW117694   1.449   3.665   0.899 -1.6059 -1.5088 -2.7686
 4934SOL    HW217695   1.582   3.638   0.832  0.3652  0.7072  0.0357
 4935SOL     OW17696   4.140   7.275   1.501  0.1427 -0.5298 -0.2184
 4935SOL    HW117697   4.064   7.233   1.460 -0.0940  0.1401 -0.4761
 4935SOL    HW217698   4.177   7.329   1.432 -0.5286  0.9749  0.5538
 4936SOL     OW17699   4.346   9.476   4.348  1.0238 -0.3994  0.0760
 4936SOL    HW117700   4.433   9.515   4.342  1.6256 -1.6550  0.5039
 4936SOL    HW217701   4.308   9.515   4.427  1.7561 -0.9518  0.7000
 4937SOL     OW17702   4.524   9.114   1.120 -0.0322  0.2524 -0.5682
 4937SOL    HW117703   4.597   9.115   1.058  0.1493 -0.1540 -0.3640
 4937SOL    HW217704   4.565   9.105   1.206 -0.3612 -1.2908 -0.5430
 4938SOL     OW17705   4.767   0.933   3.021 -0.2293  0.5816 -0.5119
 4938SOL    HW117706   4.749   1.016   3.065 -0.5451  0.5042 -0.4920
 4938SOL    HW217707   4.788   0.873   3.092 -2.0736  0.1038 -0.3198
 4939SOL     OW17708   6.456   3.325   5.688 -0.3113  0.0199 -0.0167
 4939SOL    HW117709   6.515   3.328   5.764  0.2320  3.8427 -0.4165
 4939SOL    HW217710   6.493   3.256   5.632  1.6831 -0.1080  1.3546
 4940SOL     OW17711   7.663   5.768   7.371 -0.0089  0.1495  0.1329
 4940SOL    HW117712   7.666   5.768   7.275  0.4361  2.1506  0.1167
 4940SOL    HW217713   7.755   5.775   7.397 -0.2369  1.1924  0.6730
 4941SOL     OW17714   5.248   0.194   2.325 -0.0255  0.3894 -0.3907
 4941SOL    HW117715   5.193   0.272   2.328  2.2667  2.1279 -0.3924
 4941SOL    HW217716   5.308   0.210   2.252  0.9461 -1.0763  0.0370
 4942SOL     OW17717   3.676   3.867   8.254  0.0139 -0.4622  0.0489
 4942SOL    HW117718   3.687   3.772   8.255  0.2391 -0.4445  1.6467
 4942SOL    HW217719   3.590   3.881   8.216 -0.8350 -1.4188  1.5260
 4943SOL     OW17720   7.002   6.368   4.309 -0.0010  0.8239  0.0866
 4943SOL    HW117721   7.043   6.391   4.226  1.2306 -1.1733  0.0637
 4943SOL    HW217722   6.930   6.309   4.285  1.5672 -1.3560  0.4566
 4944SOL     OW17723   1.609   3.708   2.309 -0.4509  0.7442  0.1376
 4944SOL    HW117724   1.554   3.741   2.238  0.3129  1.4472 -0.1455
 4944SOL    HW217725   1.655   3.634   2.271 -1.3342  0.0324  0.4337
 4945SOL     OW17726   1.337   8.794   1.835  0.4828 -0.1844  0.1768
 4945SOL    HW117727   1.429   8.794   1.860  0.1612 -0.2367  1.3827
 4945SOL    HW217728   1.294   8.850   1.899 -0.0318  1.5567 -1.5840
 4946SOL     OW17729   2.245   8.883   8.180  0.5229 -0.2462 -0.2687
 4946SOL    HW117730   2.265   8.941   8.254 -0.7265 -0.0344 -0.0623
 4946SOL    HW217731   2.149   8.879   8.179  0.5780 -1.9364 -0.5769
 4947SOL     OW17732   1.731   0.701   5.068 -0.1645 -0.4236  0.1135
 4947SOL    HW117733   1.665   0.771   5.067  0.3022  0.0819 -2.5043
 4947SOL    HW217734   1.738   0.673   4.977  3.0209 -0.6621  0.3188
 4948SOL     OW17735   7.614   3.356   4.029 -0.0343 -0.0151  0.2544
 4948SOL    HW117736   7.647   3.336   4.117  0.0582 -0.2293  0.1718
 4948SOL    HW217737   7.677   3.314   3.970 -0.3844 -0.3149  0.0952
 4949SOL     OW17738   3.642   0.294   2.590 -0.7932 -0.2579  0.3255
 4949SOL    HW117739   3.634   0.277   2.496 -1.6697 -3.0567  0.8033
 4949SOL    HW217740   3.590   0.373   2.605 -1.5953 -0.4108 -1.3756
 4950SOL     OW17741   9.373   4.475   8.026  0.1895 -0.4432 -0.3269
 4950SOL    HW117742   9.383   4.520   8.110  0.6275  1.3023 -1.2690
 4950SOL    HW217743   9.427   4.397   8.035 -0.9864 -1.1199  1.5431
 4951SOL     OW17744   0.585   3.319   8.234 -0.2552 -0.2629  0.7762
 4951SOL    HW117745   0.533   3.399   8.227 -1.1368 -0.8812 -0.0255
 4951SOL    HW217746   0.566   3.270   8.154 -0.5164 -1.7194  1.6691
 4952SOL     OW17747   9.568   2.149   3.244  0.4069 -0.4663 -0.6734
 4952SOL    HW117748   9.473   2.141   3.241  0.2081  0.3700  1.6231
 4952SOL    HW217749   9.587   2.228   3.194 -0.0886 -0.6901 -1.2246
 4953SOL     OW17750   2.553   8.241   4.545 -0.6854 -1.1688  0.1525
 4953SOL    HW117751   2.512   8.155   4.541 -1.0081 -1.0962  1.6399
 4953SOL    HW217752   2.494   8.298   4.494 -1.0087 -1.6040  0.0379
 4954SOL     OW17753   2.209   1.690   3.978 -0.0651  0.1041 -0.0543
 4954SOL    HW117754   2.191   1.618   4.038 -0.0930 -0.1821 -0.4081
 4954SOL    HW217755   2.199   1.769   4.032 -1.3692 -0.0875  0.0232
 4955SOL     OW17756   8.717   3.288   5.292  0.0872  0.2916  0.6654
 4955SOL    HW117757   8.749   3.204   5.325 -0.4414  0.0558  0.5815
 4955SOL    HW217758   8.683   3.269   5.205 -1.9106  0.1499  1.4085
 4956SOL     OW17759   8.019   3.163   6.954 -0.1125 -0.4026  0.2299
 4956SOL    HW117760   8.011   3.157   6.859 -1.3635  1.1411  0.1972
 4956SOL    HW217761   7.944   3.114   6.987 -1.7137  1.9476  0.2882
 4957SOL     OW17762   5.036   6.662   7.518  0.3044  0.1032  0.2889
 4957SOL    HW117763   5.014   6.731   7.455 -0.7507  0.2528  0.8113
 4957SOL    HW217764   5.119   6.691   7.556  0.5140  0.4487 -0.4032
 4958SOL     OW17765   9.329   4.297   5.485 -0.0169  0.5087 -0.5470
 4958SOL    HW117766   9.309   4.335   5.570  0.9798 -1.9059  0.8833
 4958SOL    HW217767   9.251   4.246   5.463  0.5819 -0.7355  0.1029
 4959SOL     OW17768   2.718   6.955   7.194  0.3105  0.3564  0.1060
 4959SOL    HW117769   2.691   6.972   7.104  0.2897 -0.1838  0.0075
 4959SOL    HW217770   2.764   7.034   7.221  0.5742  0.4072 -0.4771
 4960SOL     OW17771   5.020   7.809   1.737 -0.0451  0.1324  0.0287
 4960SOL    HW117772   4.996   7.772   1.652  1.5005  1.8203 -1.2209
 4960SOL    HW217773   5.115   7.797   1.741 -0.2490 -1.2146  2.2190
 4961SOL     OW17774   5.635   9.279   8.714 -0.1469 -0.1389  0.4815
 4961SOL    HW117775   5.716   9.242   8.678  0.3972  1.7106 -0.3584
 4961SOL    HW217776   5.567   9.249   8.654  0.5882  1.9123 -1.5291
 4962SOL     OW17777   8.605   3.462   3.033 -0.0291  0.5941 -0.6386
 4962SOL    HW117778   8.513   3.437   3.045  0.3272  0.1225  1.5542
 4962SOL    HW217779   8.652   3.378   3.033  0.5461  0.9117 -0.0941
 4963SOL     OW17780   6.691   2.420   9.574 -0.1145 -0.3755  0.1883
 4963SOL    HW117781   6.695   2.515   9.560  2.8676 -0.6132 -1.4472
 4963SOL    HW217782   6.628   2.389   9.509 -1.4612  0.4717  1.0396
 4964SOL     OW17783   4.420   2.581   7.485 -0.4859 -0.0769 -0.5191
 4964SOL    HW117784   4.445   2.631   7.407 -1.1447  0.2350 -0.5331
 4964SOL    HW217785   4.383   2.646   7.544  0.3508 -0.2521  0.2152
 4965SOL     OW17786   0.596   9.426   2.272 -0.1499  0.4099 -0.2086
 4965SOL    HW117787   0.608   9.345   2.321  2.2204  0.8774  0.0942
 4965SOL    HW217788   0.554   9.486   2.334  0.3015  0.1509  0.3582
 4966SOL     OW17789   0.838   8.871   9.297 -0.6254 -0.5264 -0.1498
 4966SOL    HW117790   0.879   8.853   9.213  0.7998 -0.7634  0.5644
 4966SOL    HW217791   0.757   8.820   9.295 -0.3796 -0.9050 -1.1838
 4967SOL     OW17792   6.811   6.854   0.249 -0.4372  1.0096 -0.2755
 4967SOL    HW117793   6.834   6.848   0.156  3.5793 -0.9086  0.6371
 4967SOL    HW217794   6.809   6.949   0.267  1.5051  1.4097 -1.8091
 4968SOL     OW17795   3.007   3.218   2.043 -0.5518 -0.2832  0.0654
 4968SOL    HW117796   3.041   3.297   2.001  1.5725 -0.8037  0.6706
 4968SOL    HW217797   2.912   3.226   2.036 -0.3915  2.1307 -0.2373
 4969SOL     OW17798   7.192   0.192   1.762 -0.2092  0.5990  0.4539
 4969SOL    HW117799   7.141   0.150   1.831 -0.7868  2.6185  1.3391
 4969SOL    HW217800   7.181   0.136   1.685 -2.0675 -0.1131  1.1993
 4970SOL     OW17801   7.359   8.830   2.330 -0.3391 -0.0189  0.1949
 4970SOL    HW117802   7.340   8.748   2.283 -0.9363  0.1327  0.1624
 4970SOL    HW217803   7.378   8.893   2.261 -0.7666  0.0907  0.1753
 4971SOL     OW17804   3.362   6.428   3.335 -0.4672 -0.2568  0.2431
 4971SOL    HW117805   3.347   6.518   3.364  0.8382  0.8067 -2.1126
 4971SOL    HW217806   3.294   6.412   3.270 -0.7612 -1.0268  0.7298
 4972SOL     OW17807   8.439   7.299   2.972 -0.3768  0.6628  0.0097
 4972SOL    HW117808   8.423   7.207   2.948 -0.0314  0.6812 -0.2815
 4972SOL    HW217809   8.491   7.293   3.052 -2.0724  0.5967  1.1617
 4973SOL     OW17810   7.761   2.912   3.356 -0.0114 -0.4379  0.0321
 4973SOL    HW117811   7.798   2.868   3.280  0.6654  0.6790 -0.3046
 4973SOL    HW217812   7.676   2.945   3.325 -1.4256 -3.0445  0.8204
 4974SOL     OW17813   9.025   6.429   5.740  0.2493 -0.5812  0.2174
 4974SOL    HW117814   8.987   6.397   5.658  0.2662  0.1812 -0.0906
 4974SOL    HW217815   8.966   6.498   5.770  0.0445 -1.0936  1.0490
 4975SOL     OW17816   0.747   1.785   1.133 -0.3938  0.7136  0.1589
 4975SOL    HW117817   0.727   1.866   1.086 -3.2199  0.1940  0.2648
 4975SOL    HW217818   0.712   1.799   1.221 -0.5641 -0.4341  0.2991
 4976SOL     OW17819   7.929   9.256   4.456 -0.1112 -0.5946  0.0574
 4976SOL    HW117820   7.924   9.350   4.474 -0.1979 -0.9595  2.1973
 4976SOL    HW217821   8.022   9.235   4.464 -0.2167 -0.8596  0.6064
 4977SOL     OW17822   5.567   5.004   5.562  0.0596  0.4746  0.2112
 4977SOL    HW117823   5.486   4.979   5.607  0.2936 -1.2896 -0.2408
 4977SOL    HW217824   5.636   4.990   5.626  0.2917 -1.0938 -0.3298
 4978SOL     OW17825   8.103   8.558   6.863 -0.3300 -0.1379  0.0031
 4978SOL    HW117826   8.055   8.475   6.860  0.4315 -0.5707 -1.2775
 4978SOL    HW217827   8.043   8.621   6.822 -0.1605 -0.4849 -0.7952
 4979SOL     OW17828   6.112   5.034   2.523  0.2073 -0.1662 -0.3593
 4979SOL    HW117829   6.051   5.062   2.455  0.2121 -0.6017 -0.5492
 4979SOL    HW217830   6.194   5.078   2.500 -0.0556  0.4998 -0.0440
 4980SOL     OW17831   8.017   3.211   8.545 -0.0030  0.7028  0.4831
 4980SOL    HW117832   7.935   3.205   8.496 -1.3596  0.3088  2.6270
 4980SOL    HW217833   8.021   3.302   8.573  0.3130  0.7375  0.3176
 4981SOL     OW17834   9.042   6.065   0.806  0.0484  0.1666 -0.2331
 4981SOL    HW117835   9.021   6.157   0.792 -0.4459  0.1906  0.5787
 4981SOL    HW217836   8.961   6.026   0.838  0.4689 -0.3705  0.2081
 4982SOL     OW17837   6.363   2.309   7.992  0.4340 -0.2386 -0.0480
 4982SOL    HW117838   6.418   2.371   8.039  0.8714  0.9993 -2.0812
 4982SOL    HW217839   6.422   2.239   7.966 -0.1731 -1.9494  2.7705
 4983SOL     OW17840   6.245   1.353   7.168  0.2446 -0.3426 -0.5377
 4983SOL    HW117841   6.210   1.442   7.172 -2.4287 -1.3428  1.7087
 4983SOL    HW217842   6.299   1.343   7.246 -2.7275 -1.7541  1.5197
 4984SOL     OW17843   3.492   2.730   5.462 -0.1133 -0.3694  0.1017
 4984SOL    HW117844   3.559   2.784   5.420  0.8314 -1.8812 -0.4089
 4984SOL    HW217845   3.541   2.669   5.517 -1.0596 -1.5115 -0.2830
 4985SOL     OW17846   6.802   9.103   1.263  0.4104 -0.2187 -0.1867
 4985SOL    HW117847   6.718   9.079   1.302 -0.2122 -0.4572 -1.6175
 4985SOL    HW217848   6.867   9.052   1.312 -0.4426 -1.3120 -0.1580
 4986SOL     OW17849   4.938   0.458   0.715 -0.0966  0.0931  0.1477
 4986SOL    HW117850   4.985   0.538   0.740 -1.1176  0.9094 -0.4938
 4986SOL    HW217851   4.850   0.470   0.748 -0.8916  0.2560 -1.8700
 4987SOL     OW17852   7.906   3.995   5.115  0.0638 -0.3080 -0.4116
 4987SOL    HW117853   7.896   4.076   5.065 -1.2119 -0.2446 -0.0662
 4987SOL    HW217854   7.819   3.955   5.115  0.2787 -0.8224  0.8821
 4988SOL     OW17855   8.967   7.343   1.476 -0.5501  0.0093  0.1300
 4988SOL    HW117856   8.996   7.330   1.567  1.7263  1.0762 -0.3569
 4988SOL    HW217857   8.986   7.435   1.458 -2.6113  0.2721 -0.9330
 4989SOL     OW17858   6.101   6.373   9.112 -0.0831  0.6458  0.6063
 4989SOL    HW117859   6.136   6.313   9.178 -1.6918  0.1467  1.0518
 4989SOL    HW217860   6.079   6.452   9.162 -0.3993  0.6262  0.4989
 4990SOL     OW17861   9.336   1.141   8.346 -0.0750 -0.4987 -0.3344
 4990SOL    HW117862   9.275   1.089   8.398 -0.0838 -1.0882 -0.9168
 4990SOL    HW217863   9.280   1.193   8.288 -0.0352 -1.5830 -1.3851
 4991SOL     OW17864   5.356   8.976   4.463 -0.1304 -0.0559  0.1756
 4991SOL    HW117865   5.388   8.933   4.384 -1.6644  1.4031 -1.3478
 4991SOL    HW217866   5.273   8.932   4.482 -2.2045  2.5398 -1.9554
 4992SOL     OW17867   6.984   5.005   9.264 -0.4787  0.1293 -0.0305
 4992SOL    HW117868   6.968   5.023   9.356 -1.1209  1.1203 -0.3207
 4992SOL    HW217869   6.919   5.057   9.217 -1.0669 -1.4212 -1.0116
 4993SOL     OW17870   1.022   3.467   6.883  0.1927  0.0051 -0.3904
 4993SOL    HW117871   0.956   3.519   6.929 -1.3065 -0.2494 -2.1504
 4993SOL    HW217872   1.077   3.531   6.839 -0.5271  0.1897 -1.0516
 4994SOL     OW17873   1.768   8.214   4.663  0.4403 -0.2541  0.0651
 4994SOL    HW117874   1.799   8.296   4.702  1.1278 -0.6515  0.3600
 4994SOL    HW217875   1.843   8.155   4.666  0.3317 -0.5013 -1.2981
 4995SOL     OW17876   4.217   5.014   5.503 -0.1326 -0.1954  0.7111
 4995SOL    HW117877   4.127   5.033   5.480  0.6386  2.3393 -0.5294
 4995SOL    HW217878   4.269   5.078   5.454  2.3168 -1.3076  1.6833
 4996SOL     OW17879   1.228   2.421   2.294  0.3703  0.4177  0.0010
 4996SOL    HW117880   1.282   2.500   2.300  1.3373  0.0421 -2.2874
 4996SOL    HW217881   1.291   2.349   2.296 -0.4360 -0.2738  1.3569
 4997SOL     OW17882   6.083   7.860   2.134 -0.0905 -0.0387  0.2879
 4997SOL    HW117883   6.135   7.877   2.056  0.2404 -0.0022  0.5136
 4997SOL    HW217884   6.058   7.768   2.127  2.0268 -0.7591  1.3475
 4998SOL     OW17885   1.789   4.502   7.461  0.1625 -0.0705 -0.3942
 4998SOL    HW117886   1.850   4.467   7.525 -0.3675 -0.4687 -0.0973
 4998SOL    HW217887   1.739   4.426   7.431  0.9080 -0.0262 -1.8533
 4999SOL     OW17888   7.725   3.779   8.550 -0.2393  0.4117  0.0007
 4999SOL    HW117889   7.686   3.769   8.463  2.8677  1.3735 -1.6722
 4999SOL    HW217890   7.752   3.690   8.574 -0.1203  0.2831 -0.5788
 5000SOL     OW17891   3.623   1.119   8.780 -0.6455 -0.3061 -0.2251
 5000SOL    HW117892   3.659   1.127   8.692 -0.7141  1.7574 -0.1318
 5000SOL    HW217893   3.537   1.079   8.767 -0.9640  0.6317 -1.2122
 5001SOL     OW17894   7.147   0.003   1.551  0.1330 -0.2083 -0.4911
 5001SOL    HW117895   7.190  -0.081   1.566 -1.3785 -0.5212  2.9042
 5001SOL    HW217896   7.085  -0.014   1.481  0.2090 -1.7781 -0.2138
 5002SOL     OW17897   5.187   7.835   7.856  0.2820 -0.2057 -0.4057
 5002SOL    HW117898   5.275   7.808   7.830 -0.2732 -0.7139 -1.8616
 5002SOL    HW217899   5.182   7.816   7.950  1.6262 -0.4059 -0.3614
 5003SOL     OW17900   6.521   8.555   8.247 -0.2900  0.0861 -0.0340
 5003SOL    HW117901   6.502   8.524   8.158 -1.0672  0.4181  0.0060
 5003SOL    HW217902   6.507   8.478   8.302  0.3220 -0.1549 -0.2058
 5004SOL     OW17903   5.860   7.480   0.060  0.2428 -0.2661 -0.3029
 5004SOL    HW117904   5.895   7.566   0.083 -1.0040  0.1545  0.0824
 5004SOL    HW217905   5.767   7.485   0.081  0.3019 -2.0037  0.6048
 5005SOL     OW17906   8.232   6.840   0.455 -0.1026  0.3155  0.2154
 5005SOL    HW117907   8.151   6.879   0.423 -0.9414 -0.4450  1.3154
 5005SOL    HW217908   8.286   6.914   0.482  0.6382  0.9894 -2.7831
 5006SOL     OW17909   9.094   5.681   8.993 -0.3124  0.7191 -0.0598
 5006SOL    HW117910   9.028   5.664   9.060  0.7703 -1.7847  0.4617
 5006SOL    HW217911   9.051   5.656   8.911 -0.5070  0.5190  0.1020
 5007SOL     OW17912   9.179   7.388   1.009 -0.4274 -0.4255  0.4324
 5007SOL    HW117913   9.148   7.327   0.943 -1.0036 -0.3126  0.5853
 5007SOL    HW217914   9.134   7.470   0.989  0.4749  0.0056  0.1205
 5008SOL     OW17915   0.259   2.230   0.585  0.2385  0.3840 -0.5079
 5008SOL    HW117916   0.291   2.154   0.537  1.6126 -0.7295  2.0052
 5008SOL    HW217917   0.165   2.217   0.592  0.0617  0.3678 -2.4501
 5009SOL     OW17918   5.996   8.246   5.161  0.8294 -0.3552  0.0294
 5009SOL    HW117919   5.989   8.280   5.072 -1.8437  0.8615  0.6274
 5009SOL    HW217920   5.971   8.154   5.153  1.5064 -0.4925 -0.5954
 5010SOL     OW17921   4.156   7.718   4.213 -0.1184  0.0852  0.2236
 5010SOL    HW117922   4.149   7.740   4.120 -0.2158  0.9663  0.4316
 5010SOL    HW217923   4.226   7.653   4.217  0.1307  0.3022 -0.4239
 5011SOL     OW17924   2.858   3.381   8.106  0.0400 -0.3340 -0.8573
 5011SOL    HW117925   2.921   3.359   8.175  2.3944 -0.9178 -3.0532
 5011SOL    HW217926   2.867   3.475   8.093  0.4369 -0.4074 -1.1278
 5012SOL     OW17927   5.914   6.414   4.377  0.0224 -0.8283  0.1002
 5012SOL    HW117928   5.938   6.327   4.345  0.4107  0.6531 -4.3248
 5012SOL    HW217929   5.985   6.437   4.438  3.0915 -1.5971 -2.8447
 5013SOL     OW17930   9.559   2.919   0.411  0.1995 -0.3200 -0.4670
 5013SOL    HW117931   9.642   2.874   0.428 -1.0395 -1.9447  1.7951
 5013SOL    HW217932   9.493   2.862   0.451 -1.7665  2.1022 -0.0686
 5014SOL     OW17933   3.304   1.093   5.038  0.1416 -1.0555  0.0018
 5014SOL    HW117934   3.252   1.084   4.957 -1.2349  0.8743  0.5690
 5014SOL    HW217935   3.251   1.151   5.093  2.5146  0.3014  1.0105
 5015SOL     OW17936   0.007   5.188   5.383  0.1863  0.3442 -0.2089
 5015SOL    HW117937   0.002   5.279   5.354  0.5676  0.6103  0.5345
 5015SOL    HW217938  -0.084   5.162   5.397  0.1086  0.8326  0.2287
 5016SOL     OW17939   6.476   7.349   3.011 -0.3790  0.0384 -0.3646
 5016SOL    HW117940   6.529   7.285   2.962 -2.2708 -0.9334 -1.2429
 5016SOL    HW217941   6.390   7.308   3.017 -2.1278  3.0850 -2.2455
 5017SOL     OW17942   5.291   4.149   0.710  0.4943 -0.1833  0.1582
 5017SOL    HW117943   5.227   4.129   0.778  0.6690 -1.4404 -0.0249
 5017SOL    HW217944   5.370   4.175   0.757  0.9256 -1.9762  0.5054
 5018SOL     OW17945   0.359   1.523   5.805  0.8130  0.3342 -0.6714
 5018SOL    HW117946   0.309   1.464   5.862  0.9929 -0.9267 -1.7744
 5018SOL    HW217947   0.451   1.498   5.821  0.9205  0.6680 -0.7739
 5019SOL     OW17948   9.601   5.939   8.353  0.1876  0.5861 -0.1775
 5019SOL    HW117949   9.508   5.936   8.328  0.2775 -0.0679 -0.4571
 5019SOL    HW217950   9.623   6.032   8.350  0.2448  0.5635 -2.7724
 5020SOL     OW17951   5.390   7.040   6.148  0.1327 -0.7159  0.2010
 5020SOL    HW117952   5.457   6.997   6.095  2.0090  0.4411  1.5213
 5020SOL    HW217953   5.438   7.098   6.206 -1.9796 -0.3354  1.7137
 5021SOL     OW17954   1.086   4.215   1.919  0.3157 -0.4771 -0.3041
 5021SOL    HW117955   1.069   4.127   1.886 -0.5674 -0.4293 -0.0007
 5021SOL    HW217956   1.091   4.205   2.014  0.0298 -0.1722 -0.2557
 5022SOL     OW17957   4.564   7.429   7.114 -0.4086 -0.1043  0.0089
 5022SOL    HW117958   4.527   7.426   7.025 -1.6881 -1.1091  0.5450
 5022SOL    HW217959   4.656   7.452   7.101 -0.9851  1.6178 -1.4514
 5023SOL     OW17960   5.680   4.821   1.523  0.1755  0.0282 -0.0339
 5023SOL    HW117961   5.697   4.783   1.437 -2.5032  0.5361 -0.8895
 5023SOL    HW217962   5.761   4.866   1.546  1.6097 -1.7099 -1.3845
 5024SOL     OW17963   5.870   9.277   5.899 -0.2398  0.2648 -0.2038
 5024SOL    HW117964   5.903   9.322   5.822 -0.1966  0.2168 -0.2136
 5024SOL    HW217965   5.902   9.187   5.890 -2.4987 -0.4797 -1.5199
 5025SOL     OW17966   3.415   5.392   7.624 -0.2594 -0.1795 -0.2887
 5025SOL    HW117967   3.432   5.447   7.548 -0.3607  2.0526  1.2025
 5025SOL    HW217968   3.496   5.344   7.638 -0.5871 -1.4476 -2.3738
 5026SOL     OW17969   1.192   2.206   3.469  0.7826  0.2892  0.5305
 5026SOL    HW117970   1.196   2.112   3.449  2.7466  0.4924 -0.2780
 5026SOL    HW217971   1.102   2.221   3.497  0.6221 -1.9931  1.4453
 5027SOL     OW17972   1.336   3.055   0.898 -0.2257  0.0392 -0.3537
 5027SOL    HW117973   1.358   3.114   0.826 -1.4828  0.2336 -0.5923
 5027SOL    HW217974   1.410   3.064   0.959  0.6524  0.1910 -1.4027
 5028SOL     OW17975   9.199   2.480   6.405 -0.6388 -0.1575  0.1663
 5028SOL    HW117976   9.177   2.428   6.327 -1.9016 -0.4461  0.6913
 5028SOL    HW217977   9.244   2.418   6.463  0.3135  0.0604 -0.3186
 5029SOL     OW17978   3.013   4.044   8.617  0.2201  0.5134  0.1909
 5029SOL    HW117979   2.957   4.060   8.693  0.5964 -0.6387  0.7385
 5029SOL    HW217980   3.069   3.971   8.643 -0.3852 -0.6608 -1.5633
 5030SOL     OW17981   1.307   3.726   1.765  0.2766  0.1483  0.2693
 5030SOL    HW117982   1.372   3.681   1.711 -2.4486 -2.1077 -1.4129
 5030SOL    HW217983   1.246   3.657   1.791 -0.9916  1.9790  2.5521
 5031SOL     OW17984   1.900   1.294   1.835  0.0256 -0.5778  0.2204
 5031SOL    HW117985   1.910   1.205   1.801  1.0650  0.2820 -1.9529
 5031SOL    HW217986   1.952   1.348   1.775 -0.2271  1.4462  1.7293
 5032SOL     OW17987   2.320   8.540   5.258  0.1317 -0.4590  0.1938
 5032SOL    HW117988   2.294   8.581   5.340 -0.4617  2.2404 -1.2373
 5032SOL    HW217989   2.416   8.541   5.260  0.1197 -0.0841  0.6852
 5033SOL     OW17990   4.246   5.718   7.916 -0.1213 -0.3411  0.8622
 5033SOL    HW117991   4.223   5.765   7.996 -1.5711  0.4990 -0.0088
 5033SOL    HW217992   4.212   5.629   7.930 -3.6748  0.7051 -0.1473
 5034SOL     OW17993   4.178   8.722   4.958 -0.5522  0.5602 -0.3795
 5034SOL    HW117994   4.239   8.794   4.948 -0.5242  0.4560 -1.0155
 5034SOL    HW217995   4.189   8.693   5.048 -1.6511  2.3160  0.3720
 5035SOL     OW17996   3.996   0.883   3.565  0.0394 -0.7205 -0.1185
 5035SOL    HW117997   3.917   0.933   3.543  1.2038  0.7724 -1.1472
 5035SOL    HW217998   4.015   0.907   3.656 -0.6860 -1.1024  0.1407
 5036SOL     OW17999   1.045   0.543   2.689 -0.0216 -0.2407 -0.6992
 5036SOL    HW118000   1.086   0.548   2.602 -0.0949 -1.9049 -0.8662
 5036SOL    HW218001   1.015   0.632   2.706  3.6696  1.1725 -0.5463
 5037SOL     OW18002   8.865   8.903   2.871 -0.5105  0.2142  0.2286
 5037SOL    HW118003   8.865   8.883   2.965 -2.7471 -0.8044  0.0806
 5037SOL    HW218004   8.792   8.852   2.836 -0.0143  0.9348 -2.0011
 5038SOL     OW18005   1.900   6.767   5.937 -0.3298 -0.3749 -0.2047
 5038SOL    HW118006   1.837   6.695   5.945  0.4721 -1.0247  0.4301
 5038SOL    HW218007   1.846   6.845   5.922 -1.3302 -0.8161  0.9911
 5039SOL     OW18008   0.592   6.672   3.847 -0.0186  0.0987  0.1828
 5039SOL    HW118009   0.562   6.760   3.871 -1.1475 -0.2088 -0.0453
 5039SOL    HW218010   0.686   6.682   3.833  0.1394  0.9462  1.6438
 5040SOL     OW18011   4.890   4.974   3.147  0.6791  0.5818 -0.0709
 5040SOL    HW118012   4.964   4.983   3.087  1.3945  0.9966  0.8338
 5040SOL    HW218013   4.916   4.903   3.206 -0.6396 -0.8154 -1.1068
 5041SOL     OW18014   7.925   2.506   4.453 -0.2480  1.0521  0.0333
 5041SOL    HW118015   7.935   2.472   4.542 -3.7687  0.0220  0.1655
 5041SOL    HW218016   7.987   2.455   4.401 -2.1268 -2.5671  1.0092
 5042SOL     OW18017   5.888   0.234   9.558 -0.3137  0.0018 -0.3294
 5042SOL    HW118018   5.823   0.166   9.541  0.2792 -1.0401  1.3018
 5042SOL    HW218019   5.841   0.299   9.611 -0.6423  0.4372 -1.1437
 5043SOL     OW18020   4.268   3.870   8.886  0.0385  0.0205 -0.0751
 5043SOL    HW118021   4.271   3.927   8.963  3.1817 -0.5335  0.3642
 5043SOL    HW218022   4.242   3.784   8.921 -0.2576  0.1533  0.0398
 5044SOL     OW18023   5.509   4.302   5.840  0.0423  0.3835 -0.1381
 5044SOL    HW118024   5.475   4.372   5.784  0.8581  0.2188 -0.8606
 5044SOL    HW218025   5.468   4.223   5.805 -0.8330  0.4772  0.6411
 5045SOL     OW18026   4.221   2.412   7.517  0.2507  0.3820 -0.0665
 5045SOL    HW118027   4.289   2.470   7.481  0.3177 -0.1229 -0.7691
 5045SOL    HW218028   4.230   2.421   7.612 -0.1342  1.9853 -0.1496
 5046SOL     OW18029   1.408   5.142   0.617 -0.1462  0.0067 -0.0148
 5046SOL    HW118030   1.412   5.082   0.691 -1.2177 -2.2838 -1.6824
 5046SOL    HW218031   1.315   5.165   0.610  0.1858  1.5424  0.3098
 5047SOL     OW18032   8.961   0.599   6.968  0.2360  0.0112 -0.7605
 5047SOL    HW118033   8.971   0.549   7.049 -0.6778  0.2035 -0.5217
 5047SOL    HW218034   8.947   0.689   6.997 -1.3500 -0.1072 -1.0672
 5048SOL     OW18035   8.369   4.011   9.094  0.5471 -0.0373 -0.4466
 5048SOL    HW118036   8.275   4.004   9.077  0.0505 -0.0982  1.9758
 5048SOL    HW218037   8.382   3.965   9.176  2.8363 -0.5138 -1.0018
 5049SOL     OW18038   8.329   4.374   1.117 -0.5560  0.2239  0.2772
 5049SOL    HW118039   8.345   4.450   1.061  0.8247 -0.8510 -0.8655
 5049SOL    HW218040   8.338   4.299   1.058 -0.0383 -0.9071  1.7368
 5050SOL     OW18041   0.493   1.468   9.189  0.0557  0.3097 -0.2525
 5050SOL    HW118042   0.542   1.480   9.270 -0.5672 -0.2659  0.2259
 5050SOL    HW218043   0.532   1.530   9.127 -0.6087  2.0313  0.9855
 5051SOL     OW18044   2.612   3.658   1.073 -0.2282  0.9156 -0.1283
 5051SOL    HW118045   2.620   3.586   1.135 -0.0106  2.3413  1.6059
 5051SOL    HW218046   2.593   3.617   0.989 -0.9068 -1.0883  0.9564
 5052SOL     OW18047   4.048   6.621   0.995 -0.2436 -0.2755  0.4953
 5052SOL    HW118048   3.969   6.600   1.046 -0.7548 -1.0396 -0.5699
 5052SOL    HW218049   4.023   6.604   0.904  1.7972 -2.8063  0.2831
 5053SOL     OW18050   3.924   0.321   1.727  0.0706  0.0616 -0.0522
 5053SOL    HW118051   3.935   0.267   1.805  0.8068 -0.4153 -0.4748
 5053SOL    HW218052   4.006   0.371   1.721 -0.4135  0.8948  0.0713
 5054SOL     OW18053   2.794   4.516   1.798  0.3273 -0.0001  0.5331
 5054SOL    HW118054   2.734   4.506   1.723  0.1847  0.9611  0.5122
 5054SOL    HW218055   2.872   4.467   1.772  1.1337  2.0650 -1.1968
 5055SOL     OW18056   6.073   4.544   2.899 -0.0944 -0.8582 -0.4821
 5055SOL    HW118057   5.996   4.499   2.935  0.7800 -1.6403  0.4650
 5055SOL    HW218058   6.144   4.524   2.960  0.4184  1.6065 -0.1678
 5056SOL     OW18059   7.506   5.344   6.828 -0.3289 -0.0342  0.0024
 5056SOL    HW118060   7.541   5.261   6.861 -1.0127 -0.2066  0.3179
 5056SOL    HW218061   7.446   5.373   6.896 -2.3148 -0.7476 -1.3467
 5057SOL     OW18062   7.645   7.025   4.884 -0.2709 -0.0305 -0.0793
 5057SOL    HW118063   7.704   7.100   4.884  1.2444 -1.1185  1.1477
 5057SOL    HW218064   7.571   7.051   4.830  1.9536  0.9383 -2.9059
 5058SOL     OW18065   1.132   3.408   0.030 -0.0846 -0.3359 -0.4662
 5058SOL    HW118066   1.146   3.475   0.097  0.2013 -0.0381 -0.8173
 5058SOL    HW218067   1.132   3.326   0.078  2.8174 -0.3855 -0.3815
 5059SOL     OW18068   9.087   3.834   4.257  0.3752 -0.0466 -0.1954
 5059SOL    HW118069   9.057   3.881   4.179 -0.1381  1.3806  0.8324
 5059SOL    HW218070   9.010   3.788   4.290  0.2188  0.5910  0.3333
 5060SOL     OW18071   8.995   2.115   4.547 -0.3244  0.6475 -0.1620
 5060SOL    HW118072   9.034   2.038   4.587 -0.5234  0.9261  0.5750
 5060SOL    HW218073   8.969   2.170   4.621  0.4047  1.7135 -0.6786
 5061SOL     OW18074   3.746   8.485   8.883 -0.2593  0.6943  0.0389
 5061SOL    HW118075   3.714   8.569   8.916 -1.0853  0.0449  0.9582
 5061SOL    HW218076   3.755   8.431   8.961 -2.6977 -1.0492 -0.7768
 5062SOL     OW18077   8.125   5.606   6.693  0.0783 -0.2047 -0.3585
 5062SOL    HW118078   8.085   5.544   6.754  1.0718 -0.1833  0.3303
 5062SOL    HW218079   8.066   5.605   6.617 -0.8259 -0.7169  0.3237
 5063SOL     OW18080   1.756   0.829   2.878 -0.4721 -0.7675 -0.4680
 5063SOL    HW118081   1.751   0.734   2.870  0.5812 -0.7356 -1.8571
 5063SOL    HW218082   1.822   0.844   2.946 -0.7125 -1.0167 -0.1754
 5064SOL     OW18083   8.664   5.133   3.482  0.1339 -0.0458 -0.2164
 5064SOL    HW118084   8.721   5.131   3.405  1.1173 -1.0428  0.5084
 5064SOL    HW218085   8.717   5.097   3.552 -0.9472  0.2937  0.8136
 5065SOL     OW18086   3.200   5.498   4.098  0.0760  0.2472 -0.1855
 5065SOL    HW118087   3.280   5.453   4.126  0.4102  0.4224 -0.8448
 5065SOL    HW218088   3.230   5.577   4.054 -0.4366  0.0302 -0.9500
 5066SOL     OW18089   3.804   2.402   6.572 -0.1227  0.3501 -0.1049
 5066SOL    HW118090   3.833   2.441   6.655 -1.2062 -1.3451  1.1302
 5066SOL    HW218091   3.843   2.315   6.572  0.4831  0.5958 -1.7785
 5067SOL     OW18092   9.426   0.737   4.586 -0.3582  0.4967  0.4179
 5067SOL    HW118093   9.369   0.662   4.569  0.0620  0.6535 -2.0143
 5067SOL    HW218094   9.505   0.698   4.625 -0.8215 -0.0892  0.7951
 5068SOL     OW18095   0.780   0.197   4.476  0.2039  0.1425 -0.0018
 5068SOL    HW118096   0.867   0.164   4.450  0.2107  0.2697 -0.1452
 5068SOL    HW218097   0.722   0.122   4.464 -0.0404  0.5493 -1.7128
 5069SOL     OW18098   0.389   3.299   6.183 -0.5693 -0.4317 -0.0074
 5069SOL    HW118099   0.304   3.343   6.182 -0.1440  0.4156  0.0978
 5069SOL    HW218100   0.389   3.245   6.104 -1.5115 -1.0471  0.4040
 5070SOL     OW18101   5.116   6.777   3.559  0.4828 -0.4407  0.0137
 5070SOL    HW118102   5.156   6.848   3.508 -0.3869 -0.7286 -1.1242
 5070SOL    HW218103   5.171   6.701   3.542  0.4207 -0.4445 -0.1695
 5071SOL     OW18104   6.862   8.414   4.438 -0.3806 -0.1948 -0.0404
 5071SOL    HW118105   6.792   8.463   4.395  0.3005  1.9211  1.1120
 5071SOL    HW218106   6.829   8.399   4.527  1.2185  2.3967  1.0878
 5072SOL     OW18107   1.288   8.867   5.815  0.1857 -0.0669 -0.0129
 5072SOL    HW118108   1.310   8.959   5.828 -2.7587  0.5993  1.0844
 5072SOL    HW218109   1.308   8.826   5.899 -0.9913  0.1876  0.4140
 5073SOL     OW18110   4.415   7.130   8.556 -0.3350 -0.6290 -0.2694
 5073SOL    HW118111   4.350   7.198   8.572  1.4061  0.8539  1.0185
 5073SOL    HW218112   4.429   7.090   8.642  2.1676  0.7932  0.0823
 5074SOL     OW18113   7.659   8.404   1.956 -0.0010  0.0598 -0.8454
 5074SOL    HW118114   7.647   8.494   1.984  0.7300  0.2603 -1.1720
 5074SOL    HW218115   7.741   8.404   1.906  1.5041 -1.3120  1.4477
 5075SOL     OW18116   5.983   6.889   0.202  0.6361  1.0920  0.4847
 5075SOL    HW118117   6.061   6.834   0.194 -0.0090  0.0804  1.0339
 5075SOL    HW218118   5.992   6.954   0.131  0.5822 -0.7429 -1.2865
 5076SOL     OW18119   3.719   7.101   9.420  0.0656  0.3476  0.4248
 5076SOL    HW118120   3.714   7.106   9.516 -0.1801  0.0697  0.4279
 5076SOL    HW218121   3.713   7.192   9.391 -1.6354  0.3168  0.5959
 5077SOL     OW18122   5.541   4.761   6.829 -0.1774 -0.0084  0.0158
 5077SOL    HW118123   5.531   4.851   6.863  0.7054  0.1025  0.0077
 5077SOL    HW218124   5.635   4.745   6.833  0.2292  0.5406 -3.7320
 5078SOL     OW18125   1.539   3.222   4.039 -0.3213  0.2931 -0.5663
 5078SOL    HW118126   1.574   3.302   4.078 -1.5547  1.5996 -2.0078
 5078SOL    HW218127   1.596   3.152   4.071  0.6591  1.7121  0.9045
 5079SOL     OW18128   5.869   5.238   1.148 -0.3587 -0.2903 -0.8045
 5079SOL    HW118129   5.876   5.162   1.091 -2.0542 -0.0367 -1.3901
 5079SOL    HW218130   5.920   5.306   1.104 -1.1859 -0.2648 -1.7253
 5080SOL     OW18131   1.348   9.519   6.309 -0.0775  0.1066 -0.5000
 5080SOL    HW118132   1.343   9.427   6.282 -0.5844  0.7063 -2.6981
 5080SOL    HW218133   1.267   9.534   6.358  0.8824 -1.0437  1.5628
 5081SOL     OW18134   5.445   0.678   5.427 -0.0326  0.6505  0.3577
 5081SOL    HW118135   5.404   0.752   5.381  0.5251  0.2887 -0.7762
 5081SOL    HW218136   5.538   0.701   5.432  0.1366  0.0780  0.0497
 5082SOL     OW18137   8.728   0.368   3.667 -0.5451 -0.2085 -0.0215
 5082SOL    HW118138   8.683   0.449   3.644 -1.5069 -0.3110  1.3415
 5082SOL    HW218139   8.754   0.330   3.583 -1.3365  0.8082 -0.7545
 5083SOL     OW18140   5.081   9.370   7.453 -0.5642  0.2654 -0.0713
 5083SOL    HW118141   5.045   9.428   7.386 -0.6363 -0.4162 -0.6328
 5083SOL    HW218142   5.022   9.294   7.453  0.5154 -0.6006 -0.5989
 5084SOL     OW18143   1.949   8.730   9.621  0.8900 -0.0268 -0.2794
 5084SOL    HW118144   1.966   8.708   9.712 -1.3229 -0.9284 -0.0147
 5084SOL    HW218145   1.981   8.820   9.611  0.1362  0.5079  1.7120
 5085SOL     OW18146   7.093   0.772   4.520 -0.5733 -0.1589 -0.5122
 5085SOL    HW118147   7.154   0.796   4.589 -0.4636  2.5484 -1.3964
 5085SOL    HW218148   7.013   0.747   4.565  0.2739 -0.9090  0.6049
 5086SOL     OW18149   3.041   3.566   8.397  0.2113 -0.3610 -0.1805
 5086SOL    HW118150   2.999   3.638   8.351  0.5252 -0.4049 -0.5396
 5086SOL    HW218151   3.113   3.606   8.445  1.2816 -0.6315 -1.5241
 5087SOL     OW18152   9.018   4.518   5.447  0.2673  0.0785  0.1591
 5087SOL    HW118153   8.969   4.484   5.522 -0.5089  0.5905 -0.1055
 5087SOL    HW218154   8.995   4.459   5.375  0.3179  0.1166  0.1121
 5088SOL     OW18155   7.453   2.175   9.055  0.0264  0.3769 -0.0241
 5088SOL    HW118156   7.512   2.156   9.129  0.6817 -0.5286 -0.7584
 5088SOL    HW218157   7.365   2.159   9.090  0.3946 -1.3525  0.2283
 5089SOL     OW18158   3.479   3.694   3.287 -0.3042 -0.3899 -0.5488
 5089SOL    HW118159   3.409   3.757   3.304  0.4397 -0.1298  1.9080
 5089SOL    HW218160   3.534   3.736   3.221  0.1944  1.5839  1.0401
 5090SOL     OW18161   5.706   3.970   0.341 -0.4384 -0.1394  0.0669
 5090SOL    HW118162   5.713   4.054   0.297  0.4819  0.2320  0.8907
 5090SOL    HW218163   5.729   3.988   0.432  0.2177 -1.3600  0.1663
 5091SOL     OW18164   6.136   0.932   0.554  0.1307  0.1684 -0.0827
 5091SOL    HW118165   6.136   0.844   0.515  2.3845 -0.3557  0.8924
 5091SOL    HW218166   6.127   0.915   0.648 -1.2469  1.1395 -0.0185
 5092SOL     OW18167   7.445   2.334   8.836  0.0945  0.2181 -0.2267
 5092SOL    HW118168   7.456   2.266   8.903  0.9930 -0.5450 -1.1169
 5092SOL    HW218169   7.356   2.320   8.802  0.6773 -1.2904 -1.2082
 5093SOL     OW18170   0.505   2.982   6.319  0.3273 -0.1064 -0.1744
 5093SOL    HW118171   0.420   2.981   6.276  1.0611 -0.7081 -1.6800
 5093SOL    HW218172   0.545   3.063   6.290  0.5195 -0.1386  0.0036
 5094SOL     OW18173   5.005   6.387   3.433 -0.1506  0.0931  0.9583
 5094SOL    HW118174   5.080   6.402   3.490  0.0460  0.4226  0.6243
 5094SOL    HW218175   4.933   6.431   3.476 -0.0317  0.2275  1.0226
 5095SOL     OW18176   0.566   5.827   4.268 -0.1133  0.4807  0.3120
 5095SOL    HW118177   0.507   5.754   4.247  1.5181 -0.2901 -1.9953
 5095SOL    HW218178   0.599   5.807   4.355 -0.6826 -0.8438  0.2459
 5096SOL     OW18179   5.186   8.635   7.410  0.6087  0.5305 -0.3145
 5096SOL    HW118180   5.143   8.705   7.459 -0.2267 -0.2010  0.0128
 5096SOL    HW218181   5.249   8.597   7.472  0.3874  0.3754 -0.1824
 5097SOL     OW18182   7.299   5.497   6.942 -0.1389 -0.7837  0.3089
 5097SOL    HW118183   7.247   5.568   6.904  1.7815  1.3432  1.3781
 5097SOL    HW218184   7.268   5.490   7.032  0.9843  0.0909  0.7788
 5098SOL     OW18185   8.074   4.513   8.925  0.0680 -0.4246  0.2267
 5098SOL    HW118186   8.014   4.522   8.851  0.1433  0.7473  0.3005
 5098SOL    HW218187   8.017   4.516   9.002  0.1332 -0.2338  0.2666
 5099SOL     OW18188   6.319   5.086   6.795  0.8725  0.3162  0.1084
 5099SOL    HW118189   6.267   5.033   6.855 -0.7224  0.3850 -1.1539
 5099SOL    HW218190   6.260   5.105   6.722  2.2573  1.5483 -0.7489
 5100SOL     OW18191   0.126   6.084   6.983  0.2255 -0.0751 -0.5508
 5100SOL    HW118192   0.064   6.137   6.933 -1.2940  1.2418  2.4774
 5100SOL    HW218193   0.180   6.147   7.030  1.6923 -1.2455 -0.5784
 5101SOL     OW18194   6.227   3.499   0.583  0.0940  0.6850 -0.1926
 5101SOL    HW118195   6.227   3.588   0.618  2.2781  0.6145  0.0928
 5101SOL    HW218196   6.189   3.445   0.652  1.9401  0.9346  1.0818
 5102SOL     OW18197   9.570   1.842   1.900  0.3687  0.4572  0.4708
 5102SOL    HW118198   9.529   1.923   1.869 -0.3823 -0.7171 -1.8287
 5102SOL    HW218199   9.664   1.856   1.887  0.4405  1.6474  1.9616
 5103SOL     OW18200   0.922   9.457   8.600 -0.0905  0.4253 -0.5299
 5103SOL    HW118201   0.963   9.506   8.530  0.4953  2.2278  0.9997
 5103SOL    HW218202   0.891   9.524   8.662  0.8172 -1.0958  1.7005
 5104SOL     OW18203   3.601   0.088   0.341  0.0238 -0.4680 -0.7593
 5104SOL    HW118204   3.522   0.131   0.373  1.7383  2.0220  0.5331
 5104SOL    HW218205   3.570   0.015   0.289 -3.0978  0.3690 -0.2569
 5105SOL     OW18206   2.306   7.594   4.838 -0.2415  0.1617 -0.2465
 5105SOL    HW118207   2.279   7.507   4.810  0.5786 -0.5109  0.9393
 5105SOL    HW218208   2.230   7.650   4.821 -0.5473 -0.6351 -1.6399
 5106SOL     OW18209   2.125   7.778   7.613 -0.0024  0.5034 -0.6141
 5106SOL    HW118210   2.039   7.738   7.624  0.2859 -0.1237 -0.5887
 5106SOL    HW218211   2.150   7.808   7.700  0.2847 -0.3149 -0.4114
 5107SOL     OW18212   8.348   8.332   6.387  0.3444 -0.1048  0.0442
 5107SOL    HW118213   8.354   8.407   6.447 -0.4651 -0.4011  0.5083
 5107SOL    HW218214   8.346   8.371   6.300  0.8181  0.3705  0.2413
 5108SOL     OW18215   7.451   2.971   3.625  0.1206 -0.4332 -0.1314
 5108SOL    HW118216   7.410   2.976   3.712 -0.0152  0.2783 -0.2306
 5108SOL    HW218217   7.530   2.919   3.638  1.5160  1.8626  0.9690
 5109SOL     OW18218   3.537   0.745   5.895  0.2819 -0.5872 -0.4278
 5109SOL    HW118219   3.609   0.682   5.880  1.1508  0.4693 -0.8518
 5109SOL    HW218220   3.510   0.729   5.985  2.7089  0.5619  0.6227
 5110SOL     OW18221   7.956   0.016   7.611 -0.0426  0.3614  0.7662
 5110SOL    HW118222   7.951  -0.038   7.690 -1.0043 -1.9214 -0.7465
 5110SOL    HW218223   7.881   0.074   7.618 -1.3350 -1.2041  0.6603
 5111SOL     OW18224   2.338   4.202   6.055 -0.2040  0.4126  0.4691
 5111SOL    HW118225   2.429   4.174   6.042 -0.2400  0.1807  0.7053
 5111SOL    HW218226   2.332   4.286   6.010  0.3512  0.8399  1.1726
 5112SOL     OW18227   6.576   0.121   5.125 -0.7650  0.2727  0.1357
 5112SOL    HW118228   6.522   0.192   5.090  1.8190  1.6491 -1.3013
 5112SOL    HW218229   6.527   0.089   5.201 -4.2772  0.4051 -1.8702
 5113SOL     OW18230   2.239   2.816   7.664  0.5436  0.3476 -0.4757
 5113SOL    HW118231   2.251   2.764   7.584 -1.6930  1.1545 -1.4045
 5113SOL    HW218232   2.253   2.906   7.636 -1.4722  0.7549 -0.2967
 5114SOL     OW18233   0.375   3.053   7.359  0.4605  0.1255  0.1657
 5114SOL    HW118234   0.294   3.091   7.328 -0.4811 -1.2568  0.8342
 5114SOL    HW218235   0.430   3.045   7.281  0.0656  1.2476 -0.2519
 5115SOL     OW18236   7.067   8.433   1.390 -0.6918  0.1117 -0.9052
 5115SOL    HW118237   7.006   8.361   1.404 -0.6005  0.4523  1.7925
 5115SOL    HW218238   7.148   8.390   1.361 -1.1874 -0.6673 -1.1721
 5116SOL     OW18239   3.665   7.056   0.473  0.4606  0.0769 -0.2555
 5116SOL    HW118240   3.736   7.069   0.410  2.3350 -2.4785  1.1009
 5116SOL    HW218241   3.703   7.081   0.557  0.8017 -3.5888  0.8827
 5117SOL     OW18242   8.547   0.114   8.483  0.3320 -0.1523  0.1527
 5117SOL    HW118243   8.507   0.181   8.427 -0.1767 -2.4489 -2.4108
 5117SOL    HW218244   8.482   0.099   8.552  0.6200  2.1564  1.0342
 5118SOL     OW18245   7.021   1.016   3.003 -0.3676  0.5442 -0.0327
 5118SOL    HW118246   6.978   1.096   2.971 -2.8416 -1.4543 -2.2354
 5118SOL    HW218247   6.971   0.992   3.081 -0.3094  0.5832  0.0166
 5119SOL     OW18248   9.338   6.374   4.335  0.0784 -0.0620 -0.6020
 5119SOL    HW118249   9.312   6.466   4.336  1.9570  0.5200  0.5913
 5119SOL    HW218250   9.390   6.364   4.255  0.4668  0.1123 -0.3747
 5120SOL     OW18251   7.995   5.174   7.748 -0.3486 -0.0695 -0.0868
 5120SOL    HW118252   7.953   5.129   7.674  0.2785 -0.7344 -0.0536
 5120SOL    HW218253   7.922   5.209   7.799 -0.7786  1.2971 -1.5440
 5121SOL     OW18254   9.266   7.206   8.813  0.2296  0.4968 -0.8253
 5121SOL    HW118255   9.224   7.269   8.754 -2.2723  0.1784  0.4789
 5121SOL    HW218256   9.284   7.256   8.892  0.7917  0.1974 -0.7594
 5122SOL     OW18257   3.467   4.317   7.228 -0.5466  0.4999 -0.1280
 5122SOL    HW118258   3.516   4.292   7.306 -2.3429  1.6417  1.4951
 5122SOL    HW218259   3.514   4.277   7.155  1.9874  0.4834  1.3971
 5123SOL     OW18260   8.012   3.966   5.606  0.0286 -0.3900  0.2725
 5123SOL    HW118261   8.017   3.917   5.524  1.2508 -1.1144  0.7505
 5123SOL    HW218262   8.097   3.951   5.648 -0.2508  0.6702  1.2783
 5124SOL     OW18263   8.680   6.213   8.847  0.2978  0.2768 -0.1106
 5124SOL    HW118264   8.740   6.185   8.917 -0.2405 -1.1452 -0.1803
 5124SOL    HW218265   8.695   6.150   8.776 -1.3872 -0.2430 -0.0531
 5125SOL     OW18266   0.390   9.043   1.432 -0.1763  0.1262 -0.5779
 5125SOL    HW118267   0.310   9.001   1.463 -0.2762  0.3828 -0.4872
 5125SOL    HW218268   0.397   9.017   1.340 -0.4517  0.2400 -0.6305
 5126SOL     OW18269   0.093   5.072   6.095 -0.4246 -0.6040 -0.4453
 5126SOL    HW118270   0.116   5.007   6.029  0.2307  0.5359 -1.3675
 5126SOL    HW218271   0.076   5.152   6.046 -0.4374  0.1352  0.7208
 5127SOL     OW18272   4.556   2.234   3.982  0.3156 -0.3464  0.5737
 5127SOL    HW118273   4.583   2.245   3.891 -0.6806  2.5789  0.5282
 5127SOL    HW218274   4.524   2.321   4.009 -1.7498 -1.6879  2.9416
 5128SOL     OW18275   3.004   0.982   9.321  0.1265  0.5900 -0.7528
 5128SOL    HW118276   3.002   1.048   9.391 -0.3100 -0.0439 -0.1600
 5128SOL    HW218277   2.914   0.951   9.315  0.1253  0.7613 -1.7252
 5129SOL     OW18278   0.565   3.991   6.792  0.1076  0.2666 -0.3224
 5129SOL    HW118279   0.546   3.980   6.699 -0.5440  1.9653 -0.4209
 5129SOL    HW218280   0.526   4.075   6.815  1.9550  0.8222  1.0397
 5130SOL     OW18281   4.716   4.197   2.007  0.1567  0.8258  0.0071
 5130SOL    HW118282   4.670   4.246   2.075  2.8092  1.9634  1.1261
 5130SOL    HW218283   4.736   4.113   2.048 -0.1793  0.6415 -0.1977
 5131SOL     OW18284   6.978   2.343   8.449  0.4732 -0.4376  0.0239
 5131SOL    HW118285   6.961   2.364   8.357  1.0499  0.8909  0.1939
 5131SOL    HW218286   6.995   2.249   8.449 -1.2569 -0.8035 -0.9547
 5132SOL     OW18287   5.716   3.830   2.652  0.6125  0.2160 -0.3708
 5132SOL    HW118288   5.629   3.866   2.670  1.2347  1.1953  0.8500
 5132SOL    HW218289   5.765   3.846   2.733  2.5417  1.5289 -1.7223
 5133SOL     OW18290   0.647   7.973   5.546  0.0979 -0.4937 -0.0505
 5133SOL    HW118291   0.671   8.018   5.628 -0.8974  0.6812 -0.3834
 5133SOL    HW218292   0.729   7.969   5.497 -0.0588  2.6438 -0.7806
 5134SOL     OW18293   2.284   1.291   5.339  0.1772 -0.0707  0.0248
 5134SOL    HW118294   2.203   1.320   5.298  0.6008  2.1405  0.5637
 5134SOL    HW218295   2.334   1.251   5.269 -0.5115  0.5027 -0.8139
 5135SOL     OW18296   3.169   1.627   0.247  0.1436 -0.0144 -0.1411
 5135SOL    HW118297   3.152   1.584   0.331 -0.8260 -0.8780 -0.7482
 5135SOL    HW218298   3.083   1.662   0.221  0.3410 -0.1441 -0.9764
 5136SOL     OW18299   0.475   2.072   4.612  0.4252 -0.6231  0.5010
 5136SOL    HW118300   0.393   2.107   4.645  1.4275  0.8812  1.5627
 5136SOL    HW218301   0.514   2.028   4.688  1.1828 -0.1766  0.3834
 5137SOL     OW18302   6.995   9.269   2.332  0.2126  0.4188  0.0052
 5137SOL    HW118303   6.978   9.330   2.404 -1.2326 -0.0799  0.1127
 5137SOL    HW218304   6.968   9.316   2.253  0.0779  0.2947 -0.0224
 5138SOL     OW18305   5.295   4.479   0.949  0.1623  0.6016 -0.5738
 5138SOL    HW118306   5.286   4.518   0.862 -0.0324  0.7014 -0.5108
 5138SOL    HW218307   5.362   4.533   0.992 -1.4743  2.1292  0.1948
 5139SOL     OW18308   5.131   3.943   5.381  0.1273 -0.5553  0.9808
 5139SOL    HW118309   5.039   3.937   5.407  0.0874 -0.1093  0.9533
 5139SOL    HW218310   5.137   3.890   5.302 -0.5575  1.0082 -0.1635
 5140SOL     OW18311   4.980   7.118   2.944  0.2689 -0.2312 -0.3503
 5140SOL    HW118312   5.048   7.160   2.890  0.5438 -0.9446 -0.5640
 5140SOL    HW218313   4.948   7.046   2.890 -1.7483  0.9921 -0.8848
 5141SOL     OW18314   4.714   4.049   7.858  0.5905  0.4985  0.1633
 5141SOL    HW118315   4.642   4.031   7.919  1.4186  2.0584  1.7187
 5141SOL    HW218316   4.790   4.061   7.915  2.1373 -1.1587 -1.4332
 5142SOL     OW18317   7.124   7.760   5.363  0.0776 -0.0124  0.5954
 5142SOL    HW118318   7.079   7.712   5.293  0.5363  0.2346  0.1219
 5142SOL    HW218319   7.092   7.849   5.356  1.1163  0.3152 -0.1714
 5143SOL     OW18320   9.035   4.712   8.958 -0.8121 -0.5739  0.8375
 5143SOL    HW118321   8.964   4.766   8.993 -0.3820 -0.5871  1.7566
 5143SOL    HW218322   9.092   4.696   9.033  1.5447  1.5642 -0.3320
 5144SOL     OW18323   1.148   5.624   3.599  0.0683  0.2187 -0.0140
 5144SOL    HW118324   1.137   5.622   3.694  0.4699  1.8265  0.0963
 5144SOL    HW218325   1.225   5.569   3.583  0.0736  0.0384  0.5960
 5145SOL     OW18326   0.993   5.123   4.308  0.9306  0.3625 -0.1123
 5145SOL    HW118327   1.053   5.060   4.268  0.5278  1.2714 -2.2754
 5145SOL    HW218328   1.011   5.205   4.264 -1.4449  0.8070 -0.3999
 5146SOL     OW18329   4.484   7.975   6.181  0.3473  0.3176  0.8975
 5146SOL    HW118330   4.479   7.994   6.088  0.7282  0.4940  0.9100
 5146SOL    HW218331   4.437   7.892   6.192 -1.5510  1.3409  0.8807
 5147SOL     OW18332   6.902   3.779   4.198 -0.2179  0.8085  0.2794
 5147SOL    HW118333   6.939   3.861   4.165  0.7217  0.2656 -0.0201
 5147SOL    HW218334   6.964   3.712   4.172  0.1879  0.2575  2.5133
 5148SOL     OW18335   7.902   7.600   6.977  0.1817 -0.5485  0.3077
 5148SOL    HW118336   7.846   7.548   6.918 -0.0159 -0.0976  0.0949
 5148SOL    HW218337   7.855   7.683   6.987  0.6922 -0.2601  0.3262
 5149SOL     OW18338   1.941   4.764   0.907  0.1875  0.1834  0.4686
 5149SOL    HW118339   1.980   4.844   0.942 -0.1400  1.1661 -1.3080
 5149SOL    HW218340   2.013   4.701   0.906  0.5529  0.5586  1.4716
 5150SOL     OW18341   2.267   7.891   1.540  0.2758 -0.4207 -0.6373
 5150SOL    HW118342   2.263   7.985   1.556 -0.9323 -0.0448 -2.8492
 5150SOL    HW218343   2.219   7.852   1.614  1.3137  0.6232  0.6160
 5151SOL     OW18344   9.496   8.591   1.338 -0.1895 -0.2929  0.4742
 5151SOL    HW118345   9.520   8.573   1.247 -0.8856 -3.1802  0.7783
 5151SOL    HW218346   9.401   8.576   1.341 -0.1805 -0.1903  1.6809
 5152SOL     OW18347   1.915   0.257   7.045  0.2773  0.1340 -0.2819
 5152SOL    HW118348   1.977   0.325   7.016  0.7167 -0.4568 -0.7655
 5152SOL    HW218349   1.971   0.186   7.076 -0.1367  1.1803  3.2899
 5153SOL     OW18350   8.281   4.214   4.112  0.3172 -0.6030 -0.0261
 5153SOL    HW118351   8.325   4.186   4.193  0.7422  0.1820  0.0228
 5153SOL    HW218352   8.203   4.259   4.142 -0.0311 -1.1534 -0.0882
 5154SOL     OW18353   0.247   4.329   1.006  0.5738  0.0135 -0.2166
 5154SOL    HW118354   0.322   4.326   0.947  0.7579  0.8112 -0.0334
 5154SOL    HW218355   0.257   4.411   1.054 -1.3377  1.0470 -1.4291
 5155SOL     OW18356   0.183   2.333   5.867 -0.1194 -1.0302  0.3017
 5155SOL    HW118357   0.165   2.349   5.774  1.4379  0.6908  0.2338
 5155SOL    HW218358   0.135   2.402   5.913  0.9731 -0.4148  0.5642
 5156SOL     OW18359   2.981   4.800   6.832  0.9385 -0.4436 -0.5317
 5156SOL    HW118360   2.997   4.859   6.759  4.0525  0.1909  0.5232
 5156SOL    HW218361   3.018   4.716   6.804 -0.1261 -0.9197 -0.5889
 5157SOL     OW18362   8.207   8.671   0.583  0.4587  0.7036  0.2074
 5157SOL    HW118363   8.122   8.667   0.628 -0.3688 -2.2350 -1.3760
 5157SOL    HW218364   8.193   8.733   0.511 -0.6723 -0.3579 -0.5359
 5158SOL     OW18365   9.124   0.173   3.676 -0.0497  0.1177 -0.1325
 5158SOL    HW118366   9.053   0.132   3.627 -0.6894  0.6229  0.3707
 5158SOL    HW218367   9.125   0.263   3.646  0.4753  0.0834 -0.2345
 5159SOL     OW18368   5.423   9.346   5.488 -0.0957 -0.3773  1.0090
 5159SOL    HW118369   5.449   9.321   5.399  0.1536  1.1831  0.6103
 5159SOL    HW218370   5.362   9.419   5.475  0.2606  0.1379  2.1117
 5160SOL     OW18371   1.348   7.608   9.176  0.2568  0.2829 -0.0020
 5160SOL    HW118372   1.310   7.524   9.201 -1.2712  1.0601  0.3835
 5160SOL    HW218373   1.380   7.646   9.258  0.9432  0.0864 -0.1747
 5161SOL     OW18374   3.892   7.395   9.187  0.5815  0.5997 -0.0829
 5161SOL    HW118375   3.874   7.319   9.131 -0.5422  0.3014  0.6533
 5161SOL    HW218376   3.980   7.379   9.220  0.2633 -0.5367  0.2787
 5162SOL     OW18377   2.650   8.511   8.155 -0.1932 -0.7330 -0.0993
 5162SOL    HW118378   2.594   8.521   8.078 -0.4517 -2.5546 -0.1917
 5162SOL    HW218379   2.597   8.542   8.228 -0.5020 -0.4130 -0.4541
 5163SOL     OW18380   5.601   9.615   6.887  0.1579 -0.3809 -0.1001
 5163SOL    HW118381   5.622   9.583   6.799  0.7224 -1.9166  0.5476
 5163SOL    HW218382   5.661   9.688   6.902 -2.0116  1.9612 -2.1118
 5164SOL     OW18383   7.382   1.211   6.335  0.0387 -0.0368 -0.3574
 5164SOL    HW118384   7.477   1.216   6.327  0.2415  0.2917  1.7480
 5164SOL    HW218385   7.361   1.118   6.327  0.6823 -0.2500  0.3612
 5165SOL     OW18386   1.908   5.375   6.311  0.0162  0.1010  0.5738
 5165SOL    HW118387   1.865   5.290   6.307 -0.7076  0.4311  1.1408
 5165SOL    HW218388   1.837   5.438   6.325  0.6561  0.6812  1.2948
 5166SOL     OW18389   5.135   1.941   1.700 -0.2804 -0.3353  0.2240
 5166SOL    HW118390   5.093   2.026   1.710  0.0506 -0.2889  1.4362
 5166SOL    HW218391   5.210   1.958   1.643 -0.4778  0.0882  0.0840
 5167SOL     OW18392   3.534   7.613   9.403  0.4426 -0.1362 -0.2740
 5167SOL    HW118393   3.529   7.661   9.485 -2.7488 -0.6336 -0.0578
 5167SOL    HW218394   3.520   7.679   9.335 -0.3361 -0.1895 -0.1789
 5168SOL     OW18395   4.256   3.429   8.207  0.0414 -0.1429  0.0597
 5168SOL    HW118396   4.306   3.396   8.282 -1.4254 -0.2488  1.0534
 5168SOL    HW218397   4.226   3.516   8.236  0.9205  0.5887 -1.1316
 5169SOL     OW18398   7.232   1.542   7.509 -0.1996 -0.6227 -0.6777
 5169SOL    HW118399   7.209   1.579   7.594  0.3051  0.5459 -1.0259
 5169SOL    HW218400   7.229   1.448   7.522 -0.6572 -0.4644  0.4898
 5170SOL     OW18401   4.226   3.475   8.845 -0.1585 -0.5540  0.1531
 5170SOL    HW118402   4.316   3.500   8.865 -0.4470 -0.1890  1.0306
 5170SOL    HW218403   4.223   3.381   8.862  0.9493 -1.3381 -3.2353
 5171SOL     OW18404   1.844   0.008   4.712  0.9738 -1.0104 -0.2880
 5171SOL    HW118405   1.866   0.101   4.717  0.2340 -0.8605  0.2232
 5171SOL    HW218406   1.906  -0.035   4.770 -0.4342 -0.5178  1.6604
 5172SOL     OW18407   8.517   9.099   2.089 -0.3355 -0.4726 -0.0269
 5172SOL    HW118408   8.521   9.034   2.019 -0.5861  0.4666 -0.9352
 5172SOL    HW218409   8.423   9.109   2.106 -0.3981  0.7351 -0.9547
 5173SOL     OW18410   1.568   7.960   1.486 -0.3378 -0.0242  0.0876
 5173SOL    HW118411   1.619   7.995   1.413  0.4365 -1.6220 -0.1862
 5173SOL    HW218412   1.510   7.895   1.447 -0.5245 -0.2847  0.7693
 5174SOL     OW18413   6.558   3.341   6.743 -0.1634 -0.5510 -0.4287
 5174SOL    HW118414   6.526   3.339   6.833  0.1840 -0.5886 -0.3045
 5174SOL    HW218415   6.478   3.343   6.689 -0.3719 -0.5713 -0.1234
 5175SOL     OW18416   5.917   2.402   8.162  0.0694  0.3963 -0.2640
 5175SOL    HW118417   5.889   2.392   8.253  1.0693  0.5947  0.0689
 5175SOL    HW218418   5.957   2.319   8.139 -2.2695 -0.5521 -1.3157
 5176SOL     OW18419   6.621   1.507   4.940  0.3941 -0.3112  0.0047
 5176SOL    HW118420   6.581   1.536   4.858 -1.8684  1.1653  1.5100
 5176SOL    HW218421   6.703   1.465   4.913 -0.3591 -0.1144 -2.9950
 5177SOL     OW18422   4.828   3.497   2.161  0.2605  0.5550  0.0359
 5177SOL    HW118423   4.760   3.547   2.115  0.7023  0.9731 -0.1772
 5177SOL    HW218424   4.847   3.423   2.103 -0.5925 -0.0337  0.4797
 5178SOL     OW18425   0.751   9.026   1.811  0.4374  0.3588 -0.1247
 5178SOL    HW118426   0.701   9.107   1.822 -1.7523 -0.7693 -1.3430
 5178SOL    HW218427   0.690   8.964   1.772  2.1815 -1.7858  0.3395
 5179SOL     OW18428   0.729   4.246   2.477 -0.2053  0.7023  0.8173
 5179SOL    HW118429   0.799   4.213   2.533 -0.2891  0.6685  0.9039
 5179SOL    HW218430   0.773   4.280   2.400 -0.2654 -1.5398 -0.2717
 5180SOL     OW18431   6.951   9.465   9.217 -0.0670 -1.0396 -0.7693
 5180SOL    HW118432   6.901   9.384   9.226  0.7121 -1.3759  0.8228
 5180SOL    HW218433   6.985   9.483   9.304 -0.0413  0.9089 -1.1209
 5181SOL     OW18434   4.486   2.370   3.214 -0.4277 -0.2838  0.3038
 5181SOL    HW118435   4.539   2.335   3.285 -1.1519 -0.0322  0.9785
 5181SOL    HW218436   4.509   2.316   3.138 -1.1490 -1.9171  1.2017
 5182SOL     OW18437   0.143   8.783   8.242 -0.5771  0.0993 -0.2350
 5182SOL    HW118438   0.201   8.804   8.169  0.0085 -1.2950 -0.1926
 5182SOL    HW218439   0.096   8.705   8.213  0.4584 -1.1230  1.2999
 5183SOL     OW18440   7.746   7.937   0.339 -0.2127 -0.0599  0.1163
 5183SOL    HW118441   7.651   7.926   0.342 -0.3691  0.9502 -0.4295
 5183SOL    HW218442   7.763   7.976   0.253  0.6830 -0.1128  0.2549
 5184SOL     OW18443   4.843   6.627   8.737  0.2361 -0.4119 -0.2675
 5184SOL    HW118444   4.927   6.586   8.760  1.0822  0.3236 -1.8779
 5184SOL    HW218445   4.778   6.557   8.749  1.0389 -0.9634  1.1103
 5185SOL     OW18446   0.140   2.865   9.301 -0.1878  0.0885 -0.4384
 5185SOL    HW118447   0.114   2.820   9.221 -0.3485 -0.8878  0.1501
 5185SOL    HW218448   0.058   2.882   9.347 -0.0831  0.4965 -0.3921
 5186SOL     OW18449   7.644   8.543   8.106 -0.0885 -0.1050  0.2465
 5186SOL    HW118450   7.710   8.610   8.125  0.5990 -0.1184 -1.8438
 5186SOL    HW218451   7.630   8.549   8.012  0.9418 -3.6797 -0.2845
 5187SOL     OW18452   2.165   6.732   1.868  0.2882  0.1179 -0.2292
 5187SOL    HW118453   2.112   6.660   1.835 -0.4946 -0.5440  2.2527
 5187SOL    HW218454   2.237   6.740   1.805  0.9640 -3.5053 -0.1350
 5188SOL     OW18455   4.293   0.396   1.409  0.0785 -0.6435  0.6922
 5188SOL    HW118456   4.208   0.438   1.401  0.6090  0.2257 -0.6242
 5188SOL    HW218457   4.272   0.303   1.422 -1.0885 -0.7896 -1.7288
 5189SOL     OW18458   8.453   9.462   3.957 -0.6684 -0.2417 -0.7889
 5189SOL    HW118459   8.530   9.429   4.005 -1.1973 -0.3322  0.0054
 5189SOL    HW218460   8.490   9.522   3.893  0.2390 -1.5815 -1.5868
 5190SOL     OW18461   7.206   1.201   6.585  0.5519  0.3136  0.7120
 5190SOL    HW118462   7.275   1.209   6.519 -0.1418  1.1311  0.0585
 5190SOL    HW218463   7.203   1.287   6.627  1.0206 -0.2139  1.8739
 5191SOL     OW18464   5.273   9.004   0.709  0.3304  0.3626 -0.1864
 5191SOL    HW118465   5.364   8.979   0.725  0.3165 -0.5535 -1.4483
 5191SOL    HW218466   5.276   9.099   0.699  0.7583  0.6611  2.1438
 5192SOL     OW18467   1.299   5.617   1.415  0.0539  0.1599 -0.3469
 5192SOL    HW118468   1.344   5.591   1.495 -0.5059 -1.8853 -0.6510
 5192SOL    HW218469   1.370   5.646   1.357  0.6215  0.2119  0.3647
 5193SOL     OW18470   6.501   3.059   3.211  0.3096  0.1011 -0.0832
 5193SOL    HW118471   6.519   3.132   3.153 -0.1768 -0.4116 -0.8997
 5193SOL    HW218472   6.445   3.095   3.280  1.0137  0.7460  0.1596
 5194SOL     OW18473   5.662   9.249   8.984 -0.1812 -0.4172 -0.1828
 5194SOL    HW118474   5.742   9.198   9.001 -0.4402 -0.8144 -0.1497
 5194SOL    HW218475   5.670   9.278   8.893  1.2558  1.7859  0.5465
 5195SOL     OW18476   0.092   3.564   3.984  0.0442 -0.1606 -0.2164
 5195SOL    HW118477   0.010   3.531   4.022  0.3265 -0.5651  0.0482
 5195SOL    HW218478   0.156   3.557   4.054  0.5285 -0.7405 -0.7035
 5196SOL     OW18479   5.047   9.401   1.244 -0.3528 -0.1914  0.1621
 5196SOL    HW118480   5.040   9.329   1.182 -1.1265  0.5110 -0.5906
 5196SOL    HW218481   5.099   9.467   1.199  1.3338 -0.6895  1.2762
 5197SOL     OW18482   0.322   1.456   5.174 -0.4028 -0.3254 -0.4850
 5197SOL    HW118483   0.314   1.517   5.100  0.8727  1.4703  0.7592
 5197SOL    HW218484   0.400   1.405   5.154  0.3673  0.6531 -0.1062
 5198SOL     OW18485   2.229   0.092   8.689 -0.3307 -0.0852 -0.1526
 5198SOL    HW118486   2.188   0.008   8.709  0.5690 -0.7453 -0.9994
 5198SOL    HW218487   2.318   0.083   8.722 -0.5200  0.9335  0.6827
 5199SOL     OW18488   1.246   9.268   6.208  0.0331  0.0669 -0.0995
 5199SOL    HW118489   1.271   9.295   6.119  0.7231 -0.9919 -0.2454
 5199SOL    HW218490   1.186   9.195   6.196 -2.2310  1.7581  0.2874
 5200SOL     OW18491   3.601   2.163   2.693  0.2784 -0.0591  0.2787
 5200SOL    HW118492   3.533   2.144   2.758 -0.3593 -0.8634 -0.5882
 5200SOL    HW218493   3.646   2.240   2.726  1.0137 -1.3451  2.4927
 5201SOL     OW18494   8.647   5.094   3.024  0.2037  0.2557 -0.0870
 5201SOL    HW118495   8.708   5.140   2.965  2.0929 -0.2174  1.3925
 5201SOL    HW218496   8.631   5.156   3.095 -0.5404  0.1258 -0.1369
 5202SOL     OW18497   2.833   1.321   7.191 -0.3131  0.3904  0.7002
 5202SOL    HW118498   2.781   1.252   7.150 -1.5519  1.5969  0.1651
 5202SOL    HW218499   2.864   1.282   7.273 -1.4964 -0.6050  0.7060
 5203SOL     OW18500   4.547   4.156   0.693 -0.1116 -0.2759  0.2913
 5203SOL    HW118501   4.628   4.143   0.644  0.0362 -2.0210  0.9251
 5203SOL    HW218502   4.532   4.250   0.691  0.2409 -0.2084 -2.5007
 5204SOL     OW18503   0.941   1.416   1.584  0.2859  0.0716  0.1995
 5204SOL    HW118504   0.981   1.417   1.671  0.5188  0.6250  0.0905
 5204SOL    HW218505   0.853   1.450   1.597  0.4654  0.5572  0.1522
 5205SOL     OW18506   7.257   0.400   3.535  0.3929  0.2558 -0.8654
 5205SOL    HW118507   7.268   0.306   3.526 -1.3292 -0.5129  2.9700
 5205SOL    HW218508   7.312   0.423   3.610 -2.2554  1.3999  0.8839
 5206SOL     OW18509   6.876   9.505   2.453  0.6536  0.4068  0.2648
 5206SOL    HW118510   6.943   9.569   2.430  1.7237 -0.4085  1.0159
 5206SOL    HW218511   6.849   9.527   2.542  0.4672  0.2747  0.2438
 5207SOL     OW18512   4.109   3.119   9.336 -0.3689 -0.4572 -0.3951
 5207SOL    HW118513   4.045   3.189   9.322  1.3152  1.1543 -0.3924
 5207SOL    HW218514   4.061   3.051   9.383 -2.7334 -0.4197 -2.5407
 5208SOL     OW18515   6.271   4.905   9.164 -0.6679  0.0452 -0.5054
 5208SOL    HW118516   6.233   4.818   9.166  1.1100 -0.7719 -0.4355
 5208SOL    HW218517   6.322   4.912   9.245  1.3590  0.0875 -1.7229
 5209SOL     OW18518   8.293   3.592   1.649  0.2023 -0.1578 -0.3161
 5209SOL    HW118519   8.314   3.558   1.735  0.3112 -0.5713 -0.5025
 5209SOL    HW218520   8.198   3.600   1.648  0.1353 -0.8717 -0.4145
 5210SOL     OW18521   4.049   9.310   0.972 -0.1399  0.5695  0.3899
 5210SOL    HW118522   3.969   9.317   0.920  0.0298  1.8080  0.2619
 5210SOL    HW218523   4.118   9.292   0.908 -0.1550  0.6001  0.3648
 5211SOL     OW18524   0.698   1.633   1.871  0.4311  0.4084  0.0386
 5211SOL    HW118525   0.770   1.571   1.863 -0.1226 -0.3046  0.5070
 5211SOL    HW218526   0.723   1.691   1.943  0.1274 -0.4197  0.8308
 5212SOL     OW18527   9.615   3.609   9.230 -0.3591 -0.4464 -0.7453
 5212SOL    HW118528   9.688   3.590   9.171  2.0168  1.6246  1.2378
 5212SOL    HW218529   9.591   3.524   9.268  0.4319 -1.2962 -2.0898
 5213SOL     OW18530   1.492   9.101   3.996 -0.0729 -0.5174  0.1943
 5213SOL    HW118531   1.484   9.008   3.974 -0.3713 -0.2557 -0.8672
 5213SOL    HW218532   1.569   9.131   3.947 -1.1638  0.2396 -1.1367
 5214SOL     OW18533   7.293   0.143   6.778 -0.0703 -0.0605 -0.3833
 5214SOL    HW118534   7.319   0.131   6.687  1.5467  0.0472  0.0186
 5214SOL    HW218535   7.369   0.186   6.819 -0.3951 -0.8979  1.1996
 5215SOL     OW18536   5.344   2.798   1.215 -0.3130 -0.4959 -0.4421
 5215SOL    HW118537   5.422   2.823   1.165  0.2298  0.0142  0.6450
 5215SOL    HW218538   5.272   2.838   1.168  0.3320  1.2566  0.0026
 5216SOL     OW18539   3.690   7.729   1.103 -0.1546 -0.2887  0.1463
 5216SOL    HW118540   3.658   7.654   1.051 -1.9014 -0.5671  1.4939
 5216SOL    HW218541   3.704   7.692   1.191  1.4223  0.4497  0.2227
 5217SOL     OW18542   5.823   1.805   1.319 -0.1719  0.4240  0.3300
 5217SOL    HW118543   5.759   1.841   1.380 -1.4484  0.1154 -0.7871
 5217SOL    HW218544   5.819   1.863   1.243 -0.3863 -0.6007 -0.4535
 5218SOL     OW18545   6.285   6.499   6.491 -0.1435 -0.1627  0.0045
 5218SOL    HW118546   6.258   6.571   6.547  0.1698 -1.1295  1.4429
 5218SOL    HW218547   6.372   6.525   6.459  0.6398 -0.5287  1.7277
 5219SOL     OW18548   0.728   6.694   4.524  0.0227  0.2725 -0.5295
 5219SOL    HW118549   0.683   6.611   4.513 -1.0587  0.7928 -0.1539
 5219SOL    HW218550   0.754   6.695   4.617  0.9669 -0.0830 -0.7713
 5220SOL     OW18551   9.093   7.605   9.546 -0.1889  0.1642 -0.2244
 5220SOL    HW118552   9.090   7.684   9.491 -0.4506 -0.4986 -1.1923
 5220SOL    HW218553   9.029   7.622   9.616 -0.0676  0.9053 -0.2840
 5221SOL     OW18554   8.114   4.651   8.034 -0.0282  0.0664  0.1309
 5221SOL    HW118555   8.089   4.690   7.950 -1.6798  0.7004  0.8820
 5221SOL    HW218556   8.208   4.668   8.041  0.5007 -1.2796 -2.2228
 5222SOL     OW18557   4.767   4.623   3.072 -0.3848  0.8244  0.0260
 5222SOL    HW118558   4.763   4.675   2.992 -0.2895  1.6047  0.5131
 5222SOL    HW218559   4.675   4.616   3.100 -0.4444  0.3410 -0.2724
 5223SOL     OW18560   4.800   7.772   6.211 -0.0825  0.5166  0.1460
 5223SOL    HW118561   4.749   7.696   6.183  0.5958 -0.8206  2.2705
 5223SOL    HW218562   4.739   7.823   6.264 -0.0135  0.4085  0.3320
 5224SOL     OW18563   1.092   9.527   1.754  0.1872  0.7284 -0.1010
 5224SOL    HW118564   1.153   9.596   1.728 -0.8576  2.6232  2.0516
 5224SOL    HW218565   1.126   9.447   1.714  2.3740  2.2088 -1.3791
 5225SOL     OW18566   8.609   6.019   1.887 -0.7819 -0.1762  0.1319
 5225SOL    HW118567   8.673   5.953   1.859 -1.2056  0.1028 -1.5498
 5225SOL    HW218568   8.613   6.016   1.983 -1.3119 -3.1434  0.1301
 5226SOL     OW18569   5.733   1.323   9.559 -0.4124 -0.3606  0.3286
 5226SOL    HW118570   5.754   1.330   9.652 -0.8912 -0.5906  0.4594
 5226SOL    HW218571   5.638   1.320   9.557 -0.3831 -1.2992 -0.0927
 5227SOL     OW18572   0.161   1.706   1.263  0.2145  0.3298  0.0637
 5227SOL    HW118573   0.214   1.781   1.235  0.7929 -0.0101  0.2388
 5227SOL    HW218574   0.222   1.632   1.264 -0.1147  0.0533  0.8646
 5228SOL     OW18575   2.564   1.617   9.404  0.1490 -0.2883 -0.0447
 5228SOL    HW118576   2.562   1.532   9.447  0.4699 -0.2398  0.0714
 5228SOL    HW218577   2.631   1.607   9.335  3.1378  1.0045  2.4236
 5229SOL     OW18578   4.223   4.827   4.008 -0.0235 -0.1353  0.4888
 5229SOL    HW118579   4.257   4.915   3.998 -1.5470  0.4291 -0.0219
 5229SOL    HW218580   4.209   4.816   4.102 -1.3616  0.8003  0.4230
 5230SOL     OW18581   3.174   6.857   2.330 -0.0956  0.2562 -0.0627
 5230SOL    HW118582   3.249   6.857   2.390 -1.0271 -1.2370  1.1924
 5230SOL    HW218583   3.200   6.913   2.258  2.4681 -0.6736  0.0524
 5231SOL     OW18584   3.121   1.818   1.802 -0.5008 -0.0574  0.4920
 5231SOL    HW118585   3.210   1.850   1.788 -0.0095 -1.5992 -0.1662
 5231SOL    HW218586   3.123   1.778   1.889 -0.7069  0.3751  0.6988
 5232SOL     OW18587   8.551   7.998   3.748  0.1980  0.1095  0.4577
 5232SOL    HW118588   8.539   7.910   3.711 -0.8998  0.4574 -0.0463
 5232SOL    HW218589   8.509   7.993   3.834  1.5167 -0.2917  1.1061
 5233SOL     OW18590   2.516   2.615   0.708  0.2273  0.2889 -0.0073
 5233SOL    HW118591   2.600   2.572   0.720 -0.3851 -0.7908  0.5110
 5233SOL    HW218592   2.484   2.583   0.623 -0.0920 -0.0589  0.2407
 5234SOL     OW18593   4.467   1.286   6.224  0.8414  0.1802 -0.6968
 5234SOL    HW118594   4.523   1.211   6.243 -1.3580 -1.4793 -0.2651
 5234SOL    HW218595   4.454   1.283   6.129  1.1409  0.3171 -0.7429
 5235SOL     OW18596   2.457   2.197   0.506 -0.4926  0.9220  0.0701
 5235SOL    HW118597   2.373   2.192   0.460  1.1159 -3.5261 -3.1068
 5235SOL    HW218598   2.458   2.120   0.563  1.4559  0.6812 -0.1976
 5236SOL     OW18599   9.119   2.366   1.404  0.1045 -0.1689 -0.1729
 5236SOL    HW118600   9.161   2.322   1.330 -0.7429 -2.5232  0.6375
 5236SOL    HW218601   9.057   2.301   1.438 -1.1515  1.6586  1.2291
 5237SOL     OW18602   0.066   6.154   2.235 -0.1799  0.2275  0.1471
 5237SOL    HW118603  -0.011   6.207   2.212 -0.1971 -0.4384 -1.4656
 5237SOL    HW218604   0.059   6.077   2.179  1.7961  0.2584 -0.2085
 5238SOL     OW18605   3.515   7.414   4.211 -0.2001 -0.4874 -0.8799
 5238SOL    HW118606   3.605   7.426   4.182 -0.0325  0.0172 -0.1780
 5238SOL    HW218607   3.472   7.497   4.190  0.7054  1.2233  3.0514
 5239SOL     OW18608   1.043   8.861   7.828 -0.1049 -0.5776 -0.1089
 5239SOL    HW118609   0.984   8.927   7.791 -1.3879 -0.2269  2.3870
 5239SOL    HW218610   1.131   8.890   7.801 -0.8206  0.5573 -1.3800
 5240SOL     OW18611   5.757   8.560   9.342 -0.3058 -0.2851  0.2042
 5240SOL    HW118612   5.784   8.606   9.421  1.6768  0.6306 -0.9125
 5240SOL    HW218613   5.768   8.467   9.363  1.7667 -0.0228  0.5551
 5241SOL     OW18614   4.027   4.618   5.834 -0.4057  0.1232 -0.5369
 5241SOL    HW118615   4.102   4.672   5.809 -0.0350  0.2626  0.7997
 5241SOL    HW218616   4.019   4.555   5.762  1.6792 -0.5726 -0.2533
 5242SOL     OW18617   6.127   4.695   5.819  0.1376 -0.0012  0.5467
 5242SOL    HW118618   6.108   4.603   5.837  2.2052 -0.3332  1.2805
 5242SOL    HW218619   6.152   4.696   5.727 -0.1661 -0.1152  0.4606
 5243SOL     OW18620   7.082   1.409   0.304 -0.0706 -0.3853 -0.2273
 5243SOL    HW118621   7.110   1.323   0.336  0.4199  0.1084  0.6855
 5243SOL    HW218622   7.127   1.420   0.221  0.1656 -0.8439 -0.1606
 5244SOL     OW18623   6.088   4.618   6.820 -0.4130 -0.3908  0.8238
 5244SOL    HW118624   6.168   4.573   6.847 -0.8841 -2.5805 -1.0613
 5244SOL    HW218625   6.118   4.682   6.755 -0.2233 -2.0265 -0.7816
 5245SOL     OW18626   4.993   6.358   2.500  0.3695  0.0455  0.0667
 5245SOL    HW118627   4.998   6.409   2.419 -2.6618  0.7555  0.2227
 5245SOL    HW218628   4.962   6.272   2.472 -0.1710  0.1254  0.4164
 5246SOL     OW18629   1.701   9.276   8.091  0.0240  0.4047 -0.9682
 5246SOL    HW118630   1.652   9.216   8.148 -1.4425  2.6938  0.3544
 5246SOL    HW218631   1.763   9.319   8.149 -0.3631  1.6149 -1.4134
 5247SOL     OW18632   0.462   4.558   3.259 -0.1274  0.0711 -0.7181
 5247SOL    HW118633   0.502   4.472   3.267 -1.9825 -0.8247 -0.4253
 5247SOL    HW218634   0.503   4.611   3.326 -0.2439 -1.1410  0.3477
 5248SOL     OW18635   6.375   4.572   6.363  0.0268  0.2383  0.2126
 5248SOL    HW118636   6.283   4.594   6.346  0.3044  1.5500  0.3115
 5248SOL    HW218637   6.410   4.549   6.277 -0.3524 -0.1164  0.1495
 5249SOL     OW18638   0.743   8.489   1.252 -0.1776 -0.2916  0.1073
 5249SOL    HW118639   0.832   8.478   1.220 -0.2864  2.6062 -1.5448
 5249SOL    HW218640   0.750   8.478   1.347  1.8923 -0.2813  0.0008
 5250SOL     OW18641   7.256   9.336   1.366  0.7858 -0.4848  0.0907
 5250SOL    HW118642   7.172   9.323   1.411  0.2768 -0.7859 -0.9214
 5250SOL    HW218643   7.234   9.329   1.273  1.6536  1.0581 -0.2535
 5251SOL     OW18644   9.054   0.104   8.576  0.3435  0.9011  0.1878
 5251SOL    HW118645   9.074   0.117   8.483  0.8394 -0.5114  0.0693
 5251SOL    HW218646   9.132   0.135   8.622  0.5322  0.6123  0.0634
 5252SOL     OW18647   5.041   2.702   1.742 -0.1250  0.6387 -0.3253
 5252SOL    HW118648   5.109   2.683   1.806 -2.3945  1.8365  2.6834
 5252SOL    HW218649   5.083   2.760   1.679  2.0482 -0.0552  0.4092
 5253SOL     OW18650   5.750   8.944   4.167  0.2655 -0.5090 -0.1204
 5253SOL    HW118651   5.659   8.935   4.140  0.5851 -1.0596 -1.0885
 5253SOL    HW218652   5.746   8.982   4.254 -0.9388 -1.8361  0.4465
 5254SOL     OW18653   6.044   5.530   5.346 -0.0903  0.2325 -0.3958
 5254SOL    HW118654   6.005   5.617   5.355  1.9606  1.3571 -1.5829
 5254SOL    HW218655   6.115   5.543   5.284  0.3322 -2.3068 -0.5124
 5255SOL     OW18656   1.938   1.615   7.530  0.9118  0.2649 -0.3480
 5255SOL    HW118657   1.884   1.687   7.563  0.4850  0.9246 -2.4013
 5255SOL    HW218658   1.978   1.578   7.609 -2.3297 -0.1293  1.2687
 5256SOL     OW18659   9.597   6.679   2.027 -0.2541 -0.3732  0.7565
 5256SOL    HW118660   9.597   6.586   2.005  0.3804 -0.1956 -0.0611
 5256SOL    HW218661   9.690   6.702   2.031 -0.3853 -0.0024  2.0036
 5257SOL     OW18662   2.432   5.775   2.547 -0.3169 -0.8089  0.0640
 5257SOL    HW118663   2.360   5.830   2.579  0.3793  0.5789 -0.6709
 5257SOL    HW218664   2.468   5.823   2.472  3.2188  0.0345  2.0689
 5258SOL     OW18665   8.219   5.018   3.512  0.2578  0.0534 -0.3506
 5258SOL    HW118666   8.283   4.949   3.498 -1.5716 -1.5064 -1.6335
 5258SOL    HW218667   8.264   5.083   3.567  2.1217 -2.0382  0.7492
 5259SOL     OW18668   4.129   9.626   3.474  0.1846 -0.4676  0.0614
 5259SOL    HW118669   4.191   9.609   3.545  0.0999  1.0309  0.5380
 5259SOL    HW218670   4.043   9.606   3.513 -0.2788  3.6704  1.7556
 5260SOL     OW18671   6.803   7.166   1.985 -0.0418  0.1143  0.3929
 5260SOL    HW118672   6.723   7.127   1.951 -0.6513  2.2026 -0.7051
 5260SOL    HW218673   6.871   7.140   1.923  0.1330 -1.4141  1.1684
 5261SOL     OW18674   7.532   3.907   2.938  0.1734  0.9418 -0.1391
 5261SOL    HW118675   7.524   3.961   3.016  0.2979  1.7952 -0.6950
 5261SOL    HW218676   7.524   3.970   2.865 -0.5781  0.0913 -0.8151
 5262SOL     OW18677   2.537   4.554   3.165 -0.4691 -0.1528  0.2618
 5262SOL    HW118678   2.529   4.635   3.215  0.4595  1.4339 -1.9983
 5262SOL    HW218679   2.512   4.579   3.076  1.7164 -1.8352 -0.9205
 5263SOL     OW18680   4.374   3.787   6.021  0.5766  0.0847  0.0210
 5263SOL    HW118681   4.330   3.820   6.099  1.7165 -0.4358  0.9246
 5263SOL    HW218682   4.448   3.847   6.008 -0.7396  1.3982 -1.9111
 5264SOL     OW18683   8.353   9.603   6.219  0.3736 -0.1661  0.5524
 5264SOL    HW118684   8.324   9.515   6.192  0.6157  0.1429 -0.8004
 5264SOL    HW218685   8.275   9.658   6.207  0.8472  0.2319 -0.8952
 5265SOL     OW18686   0.435   4.200   0.177 -0.2007 -0.2465 -1.0546
 5265SOL    HW118687   0.377   4.209   0.253  1.7405 -0.1220  0.4888
 5265SOL    HW218688   0.457   4.107   0.175  0.1881 -0.1519 -1.1392
 5266SOL     OW18689   3.410   6.458   4.109  0.3634 -0.3566  0.0266
 5266SOL    HW118690   3.452   6.537   4.074 -1.0782  0.3183 -0.2451
 5266SOL    HW218691   3.353   6.428   4.038 -2.2658  0.7628  1.5612
 5267SOL     OW18692   9.484   4.945   8.812 -0.1990 -0.0121 -0.1036
 5267SOL    HW118693   9.568   4.941   8.767  0.4184 -0.8848  1.0715
 5267SOL    HW218694   9.501   4.998   8.890 -0.8530  0.1669 -0.0734
 5268SOL     OW18695   9.369   4.796   5.038 -0.1419  0.3543  0.4589
 5268SOL    HW118696   9.462   4.786   5.016 -0.7844 -2.4105 -1.5719
 5268SOL    HW218697   9.335   4.855   4.971  0.1759  1.8124  1.5259
 5269SOL     OW18698   7.228   7.799   5.612 -0.0829  0.3854 -0.1799
 5269SOL    HW118699   7.173   7.777   5.536  0.3578 -1.1309 -0.0940
 5269SOL    HW218700   7.317   7.776   5.584 -0.0972 -1.7646  1.3198
 5270SOL     OW18701   0.610   9.388   8.980 -0.0659  0.3698 -0.0850
 5270SOL    HW118702   0.559   9.313   8.949  0.8089  0.7529 -2.6591
 5270SOL    HW218703   0.546   9.441   9.028 -1.4539 -0.5211 -0.8630
 5271SOL     OW18704   7.647   5.806   8.585 -0.0574  0.0287 -0.2148
 5271SOL    HW118705   7.623   5.811   8.492  0.1698 -1.1760 -0.3450
 5271SOL    HW218706   7.663   5.713   8.601  1.0419  0.3599  0.7444
 5272SOL     OW18707   2.490   9.286   3.799 -0.1582  0.0418  0.2190
 5272SOL    HW118708   2.579   9.302   3.830  0.1713  0.3592 -0.8376
 5272SOL    HW218709   2.502   9.253   3.710 -0.9958 -2.5790  0.9915
 5273SOL     OW18710   0.961   1.673   0.054  0.6412 -0.6418  0.1104
 5273SOL    HW118711   1.013   1.619   0.114  0.2993 -1.2822 -0.1557
 5273SOL    HW218712   1.016   1.684  -0.023  1.2299  0.4890  0.6617
 5274SOL     OW18713   1.073   8.166   6.875  0.2481 -1.0794 -0.4988
 5274SOL    HW118714   1.087   8.072   6.886 -0.8023 -1.3844 -1.5370
 5274SOL    HW218715   1.162   8.202   6.871  0.6831 -1.7299  1.8743
 5275SOL     OW18716   8.606   2.118   4.058 -0.2255  0.8098  0.2564
 5275SOL    HW118717   8.623   2.152   3.970 -0.8669 -0.9703 -0.6096
 5275SOL    HW218718   8.517   2.082   4.053  0.6857 -1.6801  0.8157
 5276SOL     OW18719   1.664   4.837   0.976 -0.5880 -0.5812  0.4914
 5276SOL    HW118720   1.752   4.812   0.949 -1.2255 -2.7392  0.1497
 5276SOL    HW218721   1.671   4.928   1.004  0.9559  0.6379 -3.2798
 5277SOL     OW18722   8.718   8.753   5.441  0.0057 -0.1624 -0.4221
 5277SOL    HW118723   8.655   8.706   5.495  0.6962 -0.6274  0.0017
 5277SOL    HW218724   8.667   8.789   5.369 -0.9642  0.5725  0.5999
 5278SOL     OW18725   5.477   7.289   9.203 -0.0777 -0.9498  0.1999
 5278SOL    HW118726   5.422   7.313   9.129 -0.3604  0.6328  0.8741
 5278SOL    HW218727   5.415   7.268   9.273  0.1676 -0.4672  0.5682
 5279SOL     OW18728   1.115   4.454   0.854  0.1732  0.2363  0.5824
 5279SOL    HW118729   1.107   4.400   0.776  0.4561  0.5219  0.3561
 5279SOL    HW218730   1.200   4.431   0.892  0.3972  0.6909  0.3575
 5280SOL     OW18731   6.015   3.885   1.776  0.7531 -0.0954 -0.2000
 5280SOL    HW118732   6.089   3.833   1.746  1.4269  2.1573 -2.9848
 5280SOL    HW218733   6.052   3.944   1.842  1.0533 -0.1757 -0.2957
 5281SOL     OW18734   4.412   6.925   8.164  0.2140  0.0623  0.1860
 5281SOL    HW118735   4.469   6.931   8.088 -0.5264 -0.0955 -0.3881
 5281SOL    HW218736   4.384   7.015   8.180 -0.6399 -0.0627 -0.5218
 5282SOL     OW18737   7.594   5.193   8.169  0.3320  0.0040 -0.2111
 5282SOL    HW118738   7.575   5.111   8.124  0.0342 -1.1375  1.8515
 5282SOL    HW218739   7.533   5.257   8.130  0.9313 -0.5796 -2.2062
 5283SOL     OW18740   6.081   5.498   5.819  0.2015 -0.1318  0.1649
 5283SOL    HW118741   6.143   5.462   5.882 -1.7709 -0.9181  1.7546
 5283SOL    HW218742   6.068   5.428   5.755  0.8047 -0.0067 -0.1083
 5284SOL     OW18743   6.582   2.609   8.794 -0.3570  0.2809  0.4623
 5284SOL    HW118744   6.633   2.677   8.749 -0.6716 -0.2482 -0.7262
 5284SOL    HW218745   6.595   2.530   8.742  0.1872 -0.6578  1.9634
 5285SOL     OW18746   1.427   3.738   2.096  0.5117 -0.1094  0.2805
 5285SOL    HW118747   1.381   3.657   2.072 -2.1441  1.0796  0.9847
 5285SOL    HW218748   1.460   3.772   2.013 -0.2298 -0.8185 -0.3282
 5286SOL     OW18749   6.341   9.574   5.935  0.5344 -0.0383  0.0558
 5286SOL    HW118750   6.274   9.513   5.903  0.1750  0.9649 -1.1840
 5286SOL    HW218751   6.416   9.559   5.879 -0.5013  2.5761 -2.2270
 5287SOL     OW18752   2.334   3.045   2.947  0.7954 -0.0130 -0.2789
 5287SOL    HW118753   2.262   2.982   2.947  0.3123  0.4877  0.9159
 5287SOL    HW218754   2.385   3.023   3.025 -0.5288  2.2472  1.3588
 5288SOL     OW18755   9.140   8.432   8.585  0.0995 -0.2159 -0.1797
 5288SOL    HW118756   9.165   8.398   8.499  1.4154 -0.7776  0.3917
 5288SOL    HW218757   9.097   8.515   8.567 -0.3854 -0.7232 -1.4246
 5289SOL     OW18758   4.850   9.021   8.049  0.2273 -0.1987 -0.4186
 5289SOL    HW118759   4.904   9.020   8.127 -0.0137 -1.7309 -0.2500
 5289SOL    HW218760   4.908   9.052   7.980  0.7387  0.1334  0.1547
 5290SOL     OW18761   0.130   2.284   3.688  0.3616 -0.1247 -0.2932
 5290SOL    HW118762   0.122   2.289   3.593 -0.6871 -0.1622 -0.2092
 5290SOL    HW218763   0.222   2.258   3.702  0.6128  0.1850 -1.2728
 5291SOL     OW18764   5.775   6.021   0.812  0.5339 -0.1700  0.7126
 5291SOL    HW118765   5.867   6.034   0.834  0.5344  0.0539  0.5737
 5291SOL    HW218766   5.768   5.927   0.795  0.4141 -0.4529  2.2110
 5292SOL     OW18767   8.483   9.639   3.740  0.6608 -0.0351 -0.1106
 5292SOL    HW118768   8.396   9.653   3.779  0.6131  0.5423 -0.4180
 5292SOL    HW218769   8.471   9.653   3.647  0.3640 -3.2881 -0.6775
 5293SOL     OW18770   8.172   3.222   9.094  0.2363  0.0832 -0.5602
 5293SOL    HW118771   8.249   3.280   9.095  0.8443 -0.6814  0.8441
 5293SOL    HW218772   8.098   3.280   9.078  0.9243  1.1047 -0.1415
 5294SOL     OW18773   0.357   3.593   5.468  0.3257  0.4297  0.3633
 5294SOL    HW118774   0.358   3.684   5.500  1.0923  0.7153 -0.4495
 5294SOL    HW218775   0.429   3.589   5.405 -1.0299 -0.1536 -1.2239
 5295SOL     OW18776   7.932   6.471   1.787 -0.1214  0.0693 -0.2123
 5295SOL    HW118777   7.988   6.537   1.827 -1.1230  0.5392  0.4412
 5295SOL    HW218778   7.987   6.430   1.720  1.0752  0.3381  0.5846
 5296SOL     OW18779   7.797   7.731   4.191 -0.4739  0.2104  0.5676
 5296SOL    HW118780   7.846   7.736   4.273 -0.4873 -0.7821  0.6527
 5296SOL    HW218781   7.713   7.774   4.210 -0.8204 -0.7834  1.3510
 5297SOL     OW18782   4.032   6.813   2.260  0.0086 -0.2107 -0.3449
 5297SOL    HW118783   4.117   6.807   2.217 -0.3468 -0.8008 -0.9870
 5297SOL    HW218784   4.013   6.907   2.264  0.4103 -0.1122 -0.7609
 5298SOL     OW18785   7.464   7.876   2.284  0.1437 -0.1251  0.0963
 5298SOL    HW118786   7.447   7.869   2.378 -1.6987  0.2536 -0.1752
 5298SOL    HW218787   7.513   7.958   2.275 -0.5634  0.3637  0.6341
 5299SOL     OW18788   6.059   4.064   3.630  0.5774 -0.0028  0.4487
 5299SOL    HW118789   6.056   3.986   3.684  1.7417  0.3596  1.0781
 5299SOL    HW218790   6.106   4.037   3.551  1.5434  0.1896  0.9375
 5300SOL     OW18791   6.545   5.115   8.334  0.1246 -0.4248  0.3571
 5300SOL    HW118792   6.524   5.027   8.367  0.6657 -0.6663  0.0714
 5300SOL    HW218793   6.620   5.101   8.276 -1.3068 -0.1559 -1.6796
 5301SOL     OW18794   4.103   8.421   0.321 -0.2356  0.2686  0.0299
 5301SOL    HW118795   4.132   8.496   0.268 -1.7399  1.3213  0.6377
 5301SOL    HW218796   4.016   8.445   0.352 -0.4532 -1.4298  0.8747
 5302SOL     OW18797   3.304   0.521   8.982  0.0430  0.0629 -0.0963
 5302SOL    HW118798   3.270   0.492   8.897 -1.3176  0.3752  0.3203
 5302SOL    HW218799   3.325   0.614   8.969  0.5504 -0.0726 -0.2862
 5303SOL     OW18800   6.614   8.679   0.199 -0.4122 -0.2986  0.6831
 5303SOL    HW118801   6.545   8.633   0.152 -1.5107  1.1141  0.8267
 5303SOL    HW218802   6.694   8.629   0.182 -1.4702 -2.0126  0.5555
 5304SOL     OW18803   9.012   0.108   7.470 -0.0492 -0.1648  0.1259
 5304SOL    HW118804   9.032   0.176   7.535  1.3070 -1.6049  1.3292
 5304SOL    HW218805   9.071   0.126   7.397 -0.1747  0.3303  0.1436
 5305SOL     OW18806   6.309   4.106   0.688 -0.5739 -0.2621 -0.0878
 5305SOL    HW118807   6.345   4.060   0.612  0.7562  0.4568  0.0680
 5305SOL    HW218808   6.377   4.097   0.756  0.4781  3.0706 -0.4944
 5306SOL     OW18809   5.291   9.282   6.235 -0.4680 -0.0206  0.1556
 5306SOL    HW118810   5.362   9.312   6.178 -0.9848 -1.0060 -1.0544
 5306SOL    HW218811   5.258   9.203   6.193 -1.2707 -0.4544  1.5259
 5307SOL     OW18812   7.367   4.774   6.251  0.2346 -0.0661  0.1094
 5307SOL    HW118813   7.406   4.856   6.279 -0.7105  0.4565 -0.0723
 5307SOL    HW218814   7.442   4.715   6.238  0.9093  0.7171  0.3644
 5308SOL     OW18815   7.989   5.583   1.004  0.1666 -0.0254 -0.6869
 5308SOL    HW118816   8.017   5.675   1.003 -2.8652  1.0200 -2.1580
 5308SOL    HW218817   7.926   5.579   1.076 -0.6907 -0.6147 -1.4597
 5309SOL     OW18818   9.009   6.829   0.165  0.5012 -0.3514 -0.4937
 5309SOL    HW118819   8.972   6.819   0.252  2.3213 -1.2125  0.2317
 5309SOL    HW218820   8.933   6.839   0.107 -0.7363  0.2399  1.1640
 5310SOL     OW18821   0.446   9.117   8.380 -0.7382 -0.1643  0.3289
 5310SOL    HW118822   0.408   9.054   8.441 -2.1929  0.9355  0.5899
 5310SOL    HW218823   0.535   9.132   8.413 -2.0324  1.7964  3.3441
 5311SOL     OW18824   6.232   1.859   8.984 -0.4436  0.1774 -0.1993
 5311SOL    HW118825   6.146   1.899   8.973 -0.6250 -0.7113 -2.9055
 5311SOL    HW218826   6.236   1.791   8.916  1.1585 -2.0868  1.9789
 5312SOL     OW18827   3.996   3.428   4.870  0.1477 -0.5592 -0.6969
 5312SOL    HW118828   3.975   3.513   4.909  1.1501  0.2744 -1.9007
 5312SOL    HW218829   3.967   3.435   4.780 -1.2791 -2.1258 -0.3999
 5313SOL     OW18830   7.821   5.396   3.605  0.0070  0.0119  0.1166
 5313SOL    HW118831   7.760   5.328   3.575 -0.5075  1.0902 -1.4095
 5313SOL    HW218832   7.856   5.433   3.524  3.2141 -0.9728  0.9194
 5314SOL     OW18833   0.430   4.031   3.430  0.5437  0.7771  0.0193
 5314SOL    HW118834   0.394   4.120   3.429  0.2702  0.6761  0.7142
 5314SOL    HW218835   0.439   4.008   3.338  3.7794  2.7983 -0.3426
 5315SOL     OW18836   3.923   7.008   1.928  0.4105  0.0421  0.1608
 5315SOL    HW118837   3.853   6.949   1.957 -0.0764  0.2015 -0.6478
 5315SOL    HW218838   3.991   6.950   1.893  1.7506 -0.2660  3.0238
 5316SOL     OW18839   7.432   3.151   6.918  0.2185  0.0704  0.0099
 5316SOL    HW118840   7.377   3.087   6.963  0.8370 -1.3316 -1.1305
 5316SOL    HW218841   7.448   3.112   6.832  2.0072  0.9809 -0.1177
 5317SOL     OW18842   4.473   3.516   4.247 -0.2017  0.2893 -0.2923
 5317SOL    HW118843   4.466   3.423   4.268  0.3227  0.0181 -1.2513
 5317SOL    HW218844   4.518   3.554   4.322 -1.2020 -0.0618  0.5046
 5318SOL     OW18845   6.560   5.835   5.198 -0.3165 -0.1866 -0.2174
 5318SOL    HW118846   6.602   5.848   5.113 -0.4866 -0.6852 -0.3777
 5318SOL    HW218847   6.633   5.832   5.260 -0.2680  1.9007 -0.1002
 5319SOL     OW18848   7.276   3.947   8.759 -0.0601  0.1989  0.1267
 5319SOL    HW118849   7.285   3.859   8.722  1.2557  0.1933  0.3988
 5319SOL    HW218850   7.315   3.940   8.846  0.9015  1.2624 -0.1896
 5320SOL     OW18851   5.350   2.558   1.336 -0.1251  0.5807  0.1928
 5320SOL    HW118852   5.337   2.648   1.307 -0.6957  0.1859 -0.8258
 5320SOL    HW218853   5.315   2.505   1.265 -1.6184 -0.4456  1.6349
 5321SOL     OW18854   1.898   5.606   5.799 -0.1928  0.6615 -0.1350
 5321SOL    HW118855   1.844   5.677   5.835 -1.0182 -0.9313  2.0205
 5321SOL    HW218856   1.841   5.565   5.733  0.4312  2.1538 -1.6726
 5322SOL     OW18857   4.923   7.304   0.920 -0.3136  0.3481  0.1374
 5322SOL    HW118858   4.949   7.367   0.853 -0.1228  0.3730  0.2325
 5322SOL    HW218859   4.843   7.340   0.958 -0.1345  0.6002  0.2793
 5323SOL     OW18860   5.507   7.434   2.964  0.1701  0.1227 -0.4273
 5323SOL    HW118861   5.504   7.460   2.872  1.5326  1.3792 -0.1614
 5323SOL    HW218862   5.515   7.517   3.012 -1.2107 -0.4611  0.8913
 5324SOL     OW18863   9.464   7.688   7.733 -0.6614 -0.0887  0.0133
 5324SOL    HW118864   9.490   7.755   7.796  1.4336 -0.6407 -0.1903
 5324SOL    HW218865   9.508   7.609   7.763 -0.4255 -0.5963 -1.5669
 5325SOL     OW18866   4.733   5.772   6.410  0.2567  0.1667  0.3408
 5325SOL    HW118867   4.668   5.834   6.378  1.3618  2.1994  1.8259
 5325SOL    HW218868   4.746   5.711   6.337 -2.4602  0.3054 -0.3904
 5326SOL     OW18869   2.140   5.489   0.058  0.7447  0.2650  0.2424
 5326SOL    HW118870   2.170   5.565   0.108  1.2178  1.2889 -1.4864
 5326SOL    HW218871   2.207   5.477  -0.009 -0.0665 -0.7718 -0.4160
 5327SOL     OW18872   6.029   5.647   6.349 -0.2277  0.1081 -0.2723
 5327SOL    HW118873   5.970   5.718   6.376  1.0133  0.8707  0.5298
 5327SOL    HW218874   6.070   5.679   6.268 -0.0515  0.0893 -0.1915
 5328SOL     OW18875   9.193   0.336   3.093  0.5261  0.2337 -0.2433
 5328SOL    HW118876   9.239   0.266   3.140  0.3671  0.5023  0.3216
 5328SOL    HW218877   9.263   0.390   3.055  0.6745  0.4368  0.3124
 5329SOL     OW18878   1.544   3.071   7.024  0.1116  0.4341 -0.6993
 5329SOL    HW118879   1.587   3.129   7.087 -0.8936  0.6818 -0.2366
 5329SOL    HW218880   1.471   3.122   6.989  0.7924  0.3971 -2.2807
 5330SOL     OW18881   6.743   0.110   0.266 -0.0713 -0.2257 -0.1208
 5330SOL    HW118882   6.784   0.192   0.237 -0.4102  0.6141  1.6901
 5330SOL    HW218883   6.779   0.044   0.206  0.9934  1.0683 -0.9789
 5331SOL     OW18884   8.873   4.107   9.010  0.3516  0.1509  0.0661
 5331SOL    HW118885   8.796   4.162   9.018  1.4032  1.8743 -0.8857
 5331SOL    HW218886   8.898   4.114   8.918  0.8732 -1.4555  0.0609
 5332SOL     OW18887   4.130   6.157   6.279 -0.0259  0.2033 -0.3035
 5332SOL    HW118888   4.047   6.114   6.301  0.5021 -0.4933  0.3699
 5332SOL    HW218889   4.108   6.249   6.267 -0.4650  0.5185  2.4732
 5333SOL     OW18890   4.930   5.383   1.052 -0.2983 -0.3285  0.1276
 5333SOL    HW118891   4.983   5.426   1.120 -0.1230  0.2769 -0.3825
 5333SOL    HW218892   4.843   5.420   1.063 -0.4976 -0.9326  0.6257
 5334SOL     OW18893   4.438   5.148   5.976 -0.6248  0.1403  0.2544
 5334SOL    HW118894   4.432   5.131   5.882 -1.6853 -0.1024  0.3521
 5334SOL    HW218895   4.477   5.068   6.012  0.9999  0.7365 -0.1150
 5335SOL     OW18896   8.629   6.445   8.713  0.1845 -0.4278  0.3575
 5335SOL    HW118897   8.540   6.429   8.681  0.0125  0.7315  0.2240
 5335SOL    HW218898   8.644   6.375   8.777 -0.3629 -1.3387 -0.4746
 5336SOL     OW18899   4.346   7.928   3.502 -0.6892  0.1149  0.1996
 5336SOL    HW118900   4.316   7.865   3.568  0.4132  0.9739  1.5783
 5336SOL    HW218901   4.274   7.989   3.493 -0.8182  0.0400  0.6813
 5337SOL     OW18902   6.420   2.396   9.067  0.7088  0.7677  0.5183
 5337SOL    HW118903   6.449   2.485   9.087 -0.6745  0.9128  2.0779
 5337SOL    HW218904   6.343   2.382   9.123 -0.8329 -0.4174 -1.7498
 5338SOL     OW18905   8.615   1.306   2.570  0.4448  1.0879  0.2551
 5338SOL    HW118906   8.584   1.218   2.553 -1.7630  2.0040 -0.8815
 5338SOL    HW218907   8.622   1.311   2.666 -0.1331 -0.0799  0.3782
 5339SOL     OW18908   8.023   4.071   6.717  0.2314 -0.0640  0.1598
 5339SOL    HW118909   8.095   4.065   6.655  0.1157 -1.6773  0.1499
 5339SOL    HW218910   8.000   3.980   6.737  0.0477  0.4069  2.3077
 5340SOL     OW18911   3.282   6.991   1.345  0.2986  0.2147  0.1205
 5340SOL    HW118912   3.347   6.961   1.281 -2.1375 -0.0978 -2.3904
 5340SOL    HW218913   3.299   6.939   1.423  1.7138 -1.3794 -1.1814
 5341SOL     OW18914   6.245   8.257   3.818  0.7762  0.3052 -0.0803
 5341SOL    HW118915   6.239   8.250   3.722  1.1879 -0.1426 -0.0807
 5341SOL    HW218916   6.284   8.343   3.833 -1.3163  1.3210 -0.2227
 5342SOL     OW18917   6.439   6.951   5.368  0.2441 -0.2523  0.2543
 5342SOL    HW118918   6.465   6.997   5.448  0.9005  1.7304 -1.0128
 5342SOL    HW218919   6.403   7.020   5.312  0.2717 -1.4883 -1.3530
 5343SOL     OW18920   2.066   1.055   8.281 -0.2620 -0.2461 -0.0102
 5343SOL    HW118921   2.061   1.140   8.325  0.7788  0.1243 -0.5810
 5343SOL    HW218922   2.000   1.002   8.325  0.4005  0.2594  1.6997
 5344SOL     OW18923   4.219   8.360   5.059 -0.0664 -0.4543 -0.0110
 5344SOL    HW118924   4.313   8.357   5.041 -0.0371 -1.7601  0.2645
 5344SOL    HW218925   4.196   8.452   5.049  1.1511 -0.1833 -0.5329
 5345SOL     OW18926   2.364   9.531   8.369 -0.6707 -0.2521  0.5225
 5345SOL    HW118927   2.377   9.624   8.383  0.4113 -0.1013 -1.1639
 5345SOL    HW218928   2.277   9.513   8.404 -1.0066  1.4323  0.6298
 5346SOL     OW18929   6.345   0.122   8.305 -0.8153  0.4434  0.0392
 5346SOL    HW118930   6.367   0.029   8.299 -1.4358  0.2391  0.8300
 5346SOL    HW218931   6.404   0.157   8.371 -1.2002  0.4146  0.4016
 5347SOL     OW18932   4.731   1.113   9.561  0.5178  0.1970 -0.1021
 5347SOL    HW118933   4.810   1.108   9.508  0.5781 -0.3994  0.0356
 5347SOL    HW218934   4.748   1.055   9.635 -0.4703 -0.8340 -0.6413
 5348SOL     OW18935   7.101   3.580   2.703 -0.1430  0.5336  0.5447
 5348SOL    HW118936   7.075   3.670   2.685 -1.4104  0.2527  0.9482
 5348SOL    HW218937   7.191   3.575   2.668 -0.1985  1.8201  0.1457
 5349SOL     OW18938   5.390   5.035   0.400  0.6172  0.6682  1.0452
 5349SOL    HW118939   5.308   4.998   0.367  1.1681  0.1147  0.2611
 5349SOL    HW218940   5.379   5.034   0.495  0.6334 -1.6670  1.0799
 5350SOL     OW18941   1.486   4.665   6.374 -0.3241  0.4243  0.4028
 5350SOL    HW118942   1.553   4.598   6.367  0.4070  1.0903  0.7880
 5350SOL    HW218943   1.406   4.623   6.343  0.4152 -0.1547 -0.7999
 5351SOL     OW18944   6.124   3.323   0.868  0.1627 -0.2744  0.0023
 5351SOL    HW118945   6.163   3.236   0.875 -1.2773 -0.8705  1.2940
 5351SOL    HW218946   6.035   3.307   0.836 -0.4447  0.6140  1.1706
 5352SOL     OW18947   0.226   0.721   7.126 -0.1819  0.2860  0.7144
 5352SOL    HW118948   0.254   0.669   7.202 -1.8248 -1.6573  0.1003
 5352SOL    HW218949   0.288   0.700   7.057 -1.2404 -1.5730  0.2529
 5353SOL     OW18950   9.327   7.081   0.869 -0.4609 -0.5579  0.4411
 5353SOL    HW118951   9.399   7.027   0.836  0.5522  0.2553  1.2509
 5353SOL    HW218952   9.283   7.113   0.790  2.5122  2.1747 -0.3058
 5354SOL     OW18953   8.672   8.200   0.431  0.1624  0.2415 -0.0410
 5354SOL    HW118954   8.758   8.189   0.391 -0.5361  0.9902 -1.8641
 5354SOL    HW218955   8.671   8.291   0.461  0.0898  0.1645  0.1939
 5355SOL     OW18956   7.409   9.108   8.921  0.0028  0.5759  0.3810
 5355SOL    HW118957   7.333   9.054   8.902 -0.3225  1.0442  0.3172
 5355SOL    HW218958   7.392   9.145   9.007  0.2155  0.5834  0.4204
 5356SOL     OW18959   9.432   8.454   8.421 -0.2038  0.5609  0.0902
 5356SOL    HW118960   9.473   8.392   8.482  0.1384  0.0389 -0.6381
 5356SOL    HW218961   9.348   8.414   8.399  0.7110 -0.5538 -1.6704
 5357SOL     OW18962   7.496   4.172   0.274  0.0999  0.2678  0.6746
 5357SOL    HW118963   7.560   4.226   0.320 -0.1098  1.6938 -0.6136
 5357SOL    HW218964   7.524   4.082   0.290  3.7422  0.7945 -1.5266
 5358SOL     OW18965   5.183   3.463   4.170 -0.1434 -0.1095 -0.0586
 5358SOL    HW118966   5.202   3.370   4.161 -0.2814 -0.1137 -0.3135
 5358SOL    HW218967   5.246   3.506   4.112 -0.0569 -0.0401  0.0851
 5359SOL     OW18968   1.756   0.661   6.505  0.5791 -0.0269  0.6603
 5359SOL    HW118969   1.763   0.665   6.410 -0.6125 -0.6147  0.5300
 5359SOL    HW218970   1.665   0.685   6.524  0.5492 -0.7975  1.5803
 5360SOL     OW18971   2.861   6.267   0.164  0.2704 -0.1368 -0.0139
 5360SOL    HW118972   2.882   6.207   0.092 -0.5483 -1.0745  0.5020
 5360SOL    HW218973   2.934   6.328   0.165 -0.0088  0.3285 -2.0660
 5361SOL     OW18974   5.521   4.215   0.910  0.4042  0.3043  0.4852
 5361SOL    HW118975   5.492   4.285   0.968  2.0877  1.2679  0.2160
 5361SOL    HW218976   5.604   4.245   0.875  0.3880 -1.1266 -0.9132
 5362SOL     OW18977   3.570   3.144   4.265  0.1777 -0.3101  0.1930
 5362SOL    HW118978   3.618   3.078   4.215 -0.1615 -0.8598  0.5823
 5362SOL    HW218979   3.502   3.094   4.311  0.2016  0.2472  0.8455
 5363SOL     OW18980   8.050   9.354   1.536  0.6005  0.0058  0.0528
 5363SOL    HW118981   7.993   9.360   1.460  0.4615  1.9116  0.2571
 5363SOL    HW218982   8.139   9.351   1.500  0.5620  1.3702 -0.2304
 5364SOL     OW18983   9.330   7.371   7.045 -0.1575 -0.5579 -0.5025
 5364SOL    HW118984   9.337   7.447   6.987 -0.5476 -0.9060 -1.0127
 5364SOL    HW218985   9.370   7.400   7.127 -1.8703  0.8304 -0.0834
 5365SOL     OW18986   2.187   6.461   7.905  0.1279  0.0131 -0.2334
 5365SOL    HW118987   2.161   6.408   7.981  1.8571 -0.5605  0.0114
 5365SOL    HW218988   2.191   6.398   7.833  0.8723  0.0639 -0.2427
 5366SOL     OW18989   1.892   1.488   0.887 -0.3802  0.3603 -0.0466
 5366SOL    HW118990   1.826   1.541   0.842 -4.2424 -3.4297  0.5131
 5366SOL    HW218991   1.917   1.421   0.823  1.2696  0.4008  0.5166
 5367SOL     OW18992   2.932   3.165   8.849 -0.3245  0.1476 -0.2630
 5367SOL    HW118993   2.857   3.190   8.904  1.3704  1.3841  1.6581
 5367SOL    HW218994   2.977   3.098   8.900 -0.1086 -0.6093 -1.4205
 5368SOL     OW18995   7.541   8.758   8.315 -0.5189 -0.3416  0.1244
 5368SOL    HW118996   7.515   8.681   8.366 -0.1849 -2.4372 -2.6302
 5368SOL    HW218997   7.465   8.776   8.259 -0.6249  1.4541  0.7779
 5369SOL     OW18998   6.646   7.149   3.974  0.2734 -0.5909 -0.3205
 5369SOL    HW118999   6.735   7.113   3.969  0.8508  0.7568 -0.1441
 5369SOL    HW219000   6.659   7.243   3.985 -1.1847 -0.3904 -0.1592
 5370SOL     OW19001   2.834   2.606   7.858  0.1416 -0.1559 -0.1071
 5370SOL    HW119002   2.798   2.580   7.773 -0.0363 -0.3031  0.0133
 5370SOL    HW219003   2.781   2.560   7.922  0.9389 -0.8872  0.0556
 5371SOL     OW19004   4.900   1.759   2.146 -0.4380 -0.4972 -0.3824
 5371SOL    HW119005   4.822   1.808   2.172 -0.0278 -0.7500  1.4539
 5371SOL    HW219006   4.866   1.675   2.116 -0.9501 -0.1383 -0.8401
 5372SOL     OW19007   8.788   4.386   8.880  0.4336 -0.1114 -0.1906
 5372SOL    HW119008   8.791   4.309   8.823 -0.7916 -0.2109 -0.1455
 5372SOL    HW219009   8.754   4.456   8.824  0.9870  0.2574 -0.0729
 5373SOL     OW19010   7.204   2.273   1.844 -0.1850  0.1091 -0.6423
 5373SOL    HW119011   7.137   2.229   1.791 -0.1359  1.1779 -1.6407
 5373SOL    HW219012   7.183   2.366   1.837  0.7518  0.3775 -0.0499
 5374SOL     OW19013   5.514   1.344   6.484  0.7074  0.7059 -0.4069
 5374SOL    HW119014   5.599   1.318   6.519 -0.1460  0.2492  1.4937
 5374SOL    HW219015   5.479   1.405   6.549 -0.9289 -0.1025 -0.4450
 5375SOL     OW19016   6.120   8.704   0.355 -0.1636  0.4005  0.2052
 5375SOL    HW119017   6.076   8.742   0.279 -1.0544  0.2872  0.6582
 5375SOL    HW219018   6.213   8.720   0.339  0.1425 -3.1190 -2.9609
 5376SOL     OW19019   5.988   2.092   0.548  0.7796  0.0716 -0.3702
 5376SOL    HW119020   5.895   2.071   0.551  0.8097  0.0405  0.7072
 5376SOL    HW219021   5.991   2.183   0.517  0.3825  0.1399 -0.2173
 5377SOL     OW19022   3.080   9.312   8.613  0.0858  0.0549 -0.0339
 5377SOL    HW119023   3.104   9.296   8.521 -1.0494  0.8933 -0.5037
 5377SOL    HW219024   3.066   9.224   8.649 -1.7735 -0.2657 -1.3448
 5378SOL     OW19025   4.702   6.036   7.815 -0.1977  0.1837  0.4764
 5378SOL    HW119026   4.686   5.964   7.754 -0.5831  0.2724  0.4720
 5378SOL    HW219027   4.673   6.115   7.768  0.4312  0.3706  0.3936
 5379SOL     OW19028   2.651   3.976   7.209  0.4774 -0.1128  0.8684
 5379SOL    HW119029   2.676   3.985   7.117 -1.1020 -1.5609  0.2511
 5379SOL    HW219030   2.708   4.038   7.255  0.5538  1.4621 -1.1878
 5380SOL     OW19031   3.168   1.763   8.828  0.5467 -1.0522  0.0358
 5380SOL    HW119032   3.120   1.808   8.898  0.8240  0.8954 -0.9435
 5380SOL    HW219033   3.243   1.724   8.872  1.4536  1.2846  0.7232
 5381SOL     OW19034   1.676   1.132   4.365 -0.3511  0.5475  0.4562
 5381SOL    HW119035   1.763   1.169   4.350 -0.4835  1.1525  1.1095
 5381SOL    HW219036   1.618   1.209   4.370 -0.7104  0.2326  1.3597
 5382SOL     OW19037   2.761   5.555   0.150 -0.0112  0.6977 -0.0989
 5382SOL    HW119038   2.806   5.604   0.219 -1.8082  0.5126  1.2616
 5382SOL    HW219039   2.813   5.475   0.139 -0.7565 -0.2109  2.4821
 5383SOL     OW19040   7.761   0.786   7.439 -0.1308 -0.1697 -0.0118
 5383SOL    HW119041   7.721   0.806   7.524 -1.1235  0.4857 -0.6190
 5383SOL    HW219042   7.707   0.831   7.375  1.0146 -0.0790 -0.9576
 5384SOL     OW19043   4.075   2.142   6.352 -0.0941 -0.7872 -0.2019
 5384SOL    HW119044   4.119   2.205   6.295 -0.9754 -0.4785 -0.5528
 5384SOL    HW219045   4.052   2.192   6.430 -0.9273 -0.6241 -0.5424
 5385SOL     OW19046   1.872   6.836   8.404  0.5776  0.1102 -0.9389
 5385SOL    HW119047   1.944   6.778   8.379 -0.1873 -0.6419 -1.4071
 5385SOL    HW219048   1.839   6.799   8.486  1.3156  1.0078 -0.2015
 5386SOL     OW19049   1.388   4.988   1.796  0.6323 -0.4399  0.4741
 5386SOL    HW119050   1.326   5.056   1.824  1.6622  0.6845  0.1159
 5386SOL    HW219051   1.350   4.906   1.829 -1.2426  0.1472 -0.0705
 5387SOL     OW19052   8.192   1.289   2.984  0.1321  0.0684  0.0112
 5387SOL    HW119053   8.141   1.235   2.924 -2.1539 -0.5520  2.3215
 5387SOL    HW219054   8.279   1.249   2.985 -0.6087 -1.6497 -0.7165
 5388SOL     OW19055   0.985   1.116   6.555  0.0444 -0.0982  0.2304
 5388SOL    HW119056   1.023   1.196   6.591  0.1945  0.0220 -0.1954
 5388SOL    HW219057   1.045   1.089   6.486 -1.3635  0.8780 -1.4423
 5389SOL     OW19058   4.209   5.701   0.036 -0.1636 -0.0800  1.0197
 5389SOL    HW119059   4.211   5.791   0.067  0.5118  0.4293 -0.4242
 5389SOL    HW219060   4.136   5.698  -0.026 -0.0770 -0.4881  0.9333
 5390SOL     OW19061   5.574   6.763   5.027  0.4231 -0.6977 -0.1803
 5390SOL    HW119062   5.559   6.763   4.932 -0.1715 -2.5526 -0.1237
 5390SOL    HW219063   5.486   6.776   5.064  0.5013 -1.0032  0.1137
 5391SOL     OW19064   0.844   9.271   1.294  0.4767  0.6499  0.1983
 5391SOL    HW119065   0.862   9.343   1.354 -1.9916  1.0329  0.5888
 5391SOL    HW219066   0.813   9.199   1.351 -0.0266  0.3569 -0.4275
 5392SOL     OW19067   0.847   4.590   4.273 -0.2033 -0.3356 -0.0173
 5392SOL    HW119068   0.790   4.513   4.272 -0.9301  0.1224  1.5179
 5392SOL    HW219069   0.918   4.567   4.333 -0.0494 -0.0674 -0.0945
 5393SOL     OW19070   4.446   0.610   6.174  0.8747  0.0751  0.5466
 5393SOL    HW119071   4.456   0.637   6.083 -1.4500 -0.0692  0.1806
 5393SOL    HW219072   4.363   0.562   6.176  0.6447  0.4524  2.8195
 5394SOL     OW19073   4.320   7.179   8.306 -0.1534 -0.7627 -0.3199
 5394SOL    HW119074   4.376   7.167   8.383  0.0236  0.0315 -0.3155
 5394SOL    HW219075   4.235   7.203   8.342  0.2020  0.7044 -0.3617
 5395SOL     OW19076   2.516   4.098   0.919 -0.2023 -0.2708 -0.3713
 5395SOL    HW119077   2.602   4.141   0.925  0.1876 -1.1302  0.4492
 5395SOL    HW219078   2.471   4.126   0.999  0.0673 -1.3773  0.1885
 5396SOL     OW19079   2.012   3.147   3.402  0.0707  0.0512 -0.6060
 5396SOL    HW119080   1.961   3.110   3.474 -0.0186 -0.8683 -1.1327
 5396SOL    HW219081   1.959   3.221   3.372  0.1657  0.5270  0.3335
 5397SOL     OW19082   8.360   4.566   7.257 -0.4808  0.4046 -0.0401
 5397SOL    HW119083   8.280   4.601   7.297 -1.0681  1.6491 -2.1523
 5397SOL    HW219084   8.389   4.498   7.318 -4.2931 -1.5976 -0.1161
 5398SOL     OW19085   5.524   1.847   8.084  0.0085 -0.0729 -0.2766
 5398SOL    HW119086   5.505   1.834   8.177 -0.5975 -0.7041 -0.4796
 5398SOL    HW219087   5.472   1.781   8.039 -0.3498  0.7626 -1.1309
 5399SOL     OW19088   4.073   1.686   3.728  0.1014 -0.3193  0.2078
 5399SOL    HW119089   4.121   1.742   3.667 -1.0530  0.6143  0.1103
 5399SOL    HW219090   3.986   1.725   3.733 -0.2353 -1.1481  1.4385
 5400SOL     OW19091   8.117   0.615   8.315  0.1942  0.0505 -0.2750
 5400SOL    HW119092   8.195   0.618   8.259  0.0429 -0.3300 -0.5086
 5400SOL    HW219093   8.053   0.566   8.264 -0.0378 -0.0547  0.1148
 5401SOL     OW19094   4.022   2.113   5.783 -0.0349  0.8803 -0.3333
 5401SOL    HW119095   4.093   2.051   5.774 -0.0849  0.8789 -0.7310
 5401SOL    HW219096   4.027   2.143   5.874  0.9726  1.4898 -0.5851
 5402SOL     OW19097   1.969   1.483   4.460  0.3892  0.1683  1.1119
 5402SOL    HW119098   1.900   1.545   4.484  1.8559  1.6381  1.7721
 5402SOL    HW219099   1.923   1.403   4.434 -1.5243  1.0484  1.6671
 5403SOL     OW19100   0.788   6.210   5.914 -0.3081 -0.4312  0.0232
 5403SOL    HW119101   0.818   6.301   5.912  1.0042 -0.8408  0.5366
 5403SOL    HW219102   0.756   6.194   5.825  2.8562 -0.5457 -1.2384
 5404SOL     OW19103   3.087   7.836   3.351  0.0249 -0.0590  0.1305
 5404SOL    HW119104   3.098   7.833   3.446  1.9034 -0.0699 -0.0499
 5404SOL    HW219105   3.018   7.771   3.333  0.6280 -1.0934  1.3593
 5405SOL     OW19106   1.135   7.781   3.185  0.2398  0.2895 -0.2635
 5405SOL    HW119107   1.173   7.856   3.232 -0.0355 -0.2268  0.8164
 5405SOL    HW219108   1.201   7.712   3.192  0.0876  0.1293 -0.4029
 5406SOL     OW19109   2.282   5.338   3.852  0.8108  0.4988  0.3539
 5406SOL    HW119110   2.254   5.272   3.789 -0.4413 -0.3587  1.7496
 5406SOL    HW219111   2.296   5.290   3.934 -0.0595  1.9247  1.3916
 5407SOL     OW19112   3.015   7.858   6.052  0.3651 -0.4110 -0.1862
 5407SOL    HW119113   2.939   7.909   6.079  0.6670 -0.3694  0.6207
 5407SOL    HW219114   2.997   7.770   6.085  1.3156 -0.0736  1.3264
 5408SOL     OW19115   8.852   1.541   7.207 -0.3187 -0.1408 -0.5273
 5408SOL    HW119116   8.839   1.544   7.112 -0.5224  0.5137 -0.4855
 5408SOL    HW219117   8.946   1.556   7.219 -0.1591 -1.0183 -0.6574
 5409SOL     OW19118   1.185   0.947   8.720 -0.1663 -0.1278  0.0825
 5409SOL    HW119119   1.148   0.866   8.686 -3.6800  1.9825 -1.6540
 5409SOL    HW219120   1.219   0.993   8.643 -3.1935  2.3009  0.0115
 5410SOL     OW19121   2.855   3.791   6.910  0.1077  0.1348  0.4117
 5410SOL    HW119122   2.770   3.783   6.866 -0.0256 -1.2412  0.8603
 5410SOL    HW219123   2.869   3.705   6.950  1.4366  0.5362  0.8573
 5411SOL     OW19124   4.196   2.423   2.169 -0.2098  0.1949  0.0318
 5411SOL    HW119125   4.209   2.448   2.260 -3.0615  0.0246  0.5688
 5411SOL    HW219126   4.187   2.328   2.171  1.0855  0.0291 -0.6764
 5412SOL     OW19127   0.035   8.949   7.109 -0.0329  0.1423 -0.1272
 5412SOL    HW119128   0.093   9.023   7.127 -0.1228  0.2265 -0.1853
 5412SOL    HW219129   0.044   8.934   7.015  0.4605 -0.3172 -0.0169
 5413SOL     OW19130   1.108   2.055   4.713  0.2355  0.6958 -0.4004
 5413SOL    HW119131   1.147   1.969   4.698 -0.6099  0.5166 -1.8263
 5413SOL    HW219132   1.118   2.100   4.629  0.3852  1.8769  0.2353
 5414SOL     OW19133   1.940   3.090   0.742  0.8366  0.0133 -0.4069
 5414SOL    HW119134   1.978   3.062   0.825 -0.9210 -2.1175 -0.2242
 5414SOL    HW219135   1.880   3.160   0.765 -0.5941 -1.4124  0.3806
 5415SOL     OW19136   4.750   7.431   4.254  0.1882 -0.3511  0.3327
 5415SOL    HW119137   4.752   7.362   4.187  0.8641 -0.8184  0.8179
 5415SOL    HW219138   4.803   7.396   4.325  1.3011  1.0498  0.2288
 5416SOL     OW19139   8.621   1.396   1.201 -0.6474 -0.1233  0.2426
 5416SOL    HW119140   8.697   1.396   1.142 -1.0506  1.7744 -0.3382
 5416SOL    HW219141   8.566   1.468   1.169 -0.3290  1.8120  3.6232
 5417SOL     OW19142   0.012   0.336   5.822 -0.4438 -0.3577 -0.0972
 5417SOL    HW119143  -0.007   0.387   5.743 -0.8523 -0.4850 -0.0820
 5417SOL    HW219144  -0.033   0.384   5.892  1.4926  0.8509  0.3963
 5418SOL     OW19145   1.944   3.568   4.492 -0.2026  0.5973  0.3390
 5418SOL    HW119146   1.890   3.491   4.508  2.5769 -1.1006  2.3083
 5418SOL    HW219147   1.899   3.638   4.540 -1.2866 -0.4586  0.9293
 5419SOL     OW19148   7.724   1.702   3.781  0.4158 -0.6194 -0.2348
 5419SOL    HW119149   7.700   1.677   3.870  2.5771 -0.0407  0.5922
 5419SOL    HW219150   7.731   1.798   3.784  1.0599 -0.6334 -0.8443
 5420SOL     OW19151   4.234   1.360   9.193 -0.3883  0.2785  0.2469
 5420SOL    HW119152   4.225   1.393   9.104 -0.7638  1.5939  0.7457
 5420SOL    HW219153   4.210   1.435   9.249 -1.4533 -0.8986  1.4313
 5421SOL     OW19154   4.813   7.996   5.734 -0.2840  0.0209  0.3084
 5421SOL    HW119155   4.792   8.087   5.711  2.1848  1.0370  1.6243
 5421SOL    HW219156   4.886   7.974   5.676 -1.0990 -1.2951 -0.2467
 5422SOL     OW19157   5.624   3.609   0.002 -0.3309 -0.3240 -0.3293
 5422SOL    HW119158   5.577   3.531  -0.027 -2.8141  1.0559 -0.2588
 5422SOL    HW219159   5.608   3.614   0.096 -1.1441  0.8203 -0.5054
 5423SOL     OW19160   7.567   6.470   6.600 -0.6271  0.4829 -0.1788
 5423SOL    HW119161   7.572   6.526   6.677 -1.1380 -1.6873  1.5389
 5423SOL    HW219162   7.655   6.474   6.561 -0.5065  1.9939  0.2104
 5424SOL     OW19163   5.576   5.750   8.465 -0.6457 -0.1459 -0.5358
 5424SOL    HW119164   5.627   5.677   8.429  0.8377  0.1744  0.8042
 5424SOL    HW219165   5.500   5.709   8.504  0.0594 -0.9662  0.0080
 5425SOL     OW19166   0.181   7.339   3.924  0.3656 -0.0743 -0.5732
 5425SOL    HW119167   0.159   7.398   3.852  0.6214  0.1221 -0.4951
 5425SOL    HW219168   0.098   7.320   3.967  0.0981 -0.7844 -1.3655
 5426SOL     OW19169   7.850   2.144   3.320 -0.3071  0.0938  0.5569
 5426SOL    HW119170   7.860   2.237   3.341 -0.7533  0.4208 -0.6290
 5426SOL    HW219171   7.872   2.137   3.227 -0.4617 -0.9606  0.5829
 5427SOL     OW19172   5.560   0.500   8.791 -0.0297 -0.5894  0.8248
 5427SOL    HW119173   5.485   0.470   8.842 -1.1926  0.7088 -0.0747
 5427SOL    HW219174   5.579   0.588   8.824 -0.5419  0.1067 -0.6451
 5428SOL     OW19175   4.005   9.583   0.144  0.0947  0.2064  0.4041
 5428SOL    HW119176   3.955   9.544   0.073  3.0017 -1.0763 -1.0693
 5428SOL    HW219177   4.063   9.646   0.101  1.5279 -0.1845  1.6969
 5429SOL     OW19178   0.063   4.357   6.400 -0.2544 -0.7644 -0.1107
 5429SOL    HW119179   0.119   4.333   6.327  0.9995 -0.8960  0.8611
 5429SOL    HW219180   0.029   4.273   6.433  1.5787 -1.0247  1.2858
 5430SOL     OW19181   8.055   9.382   1.799 -0.0842  0.4572 -0.1910
 5430SOL    HW119182   8.002   9.461   1.801 -0.8048 -0.0272  1.0540
 5430SOL    HW219183   8.059   9.358   1.707 -0.5413  1.4772 -0.4898
 5431SOL     OW19184   3.402   1.467   5.182 -0.0357  0.3303 -0.3133
 5431SOL    HW119185   3.487   1.503   5.205  0.2647 -0.0828 -0.7626
 5431SOL    HW219186   3.339   1.530   5.218  0.4780  2.1404 -2.3601
 5432SOL     OW19187   5.782   4.258   0.766 -0.0585  0.1210  0.2783
 5432SOL    HW119188   5.837   4.200   0.819  0.7067  2.6149  2.3650
 5432SOL    HW219189   5.816   4.345   0.781 -1.2761  1.2368 -2.6288
 5433SOL     OW19190   8.817   8.377   0.045  0.1062  0.3213  0.1100
 5433SOL    HW119191   8.732   8.378   0.002  0.1556 -1.8766 -0.1224
 5433SOL    HW219192   8.847   8.287   0.039  1.5970  0.6253  1.8987
 5434SOL     OW19193   7.413   3.839   8.191  0.5745 -1.2130  0.3542
 5434SOL    HW119194   7.325   3.803   8.202 -0.1251 -0.3145 -1.7703
 5434SOL    HW219195   7.399   3.926   8.152  2.3641 -0.4000  1.3947
 5435SOL     OW19196   6.122   7.706   3.628  0.0104  0.0569 -0.8420
 5435SOL    HW119197   6.068   7.639   3.671  1.6597 -1.0561 -0.4158
 5435SOL    HW219198   6.088   7.789   3.661 -0.6312 -0.6654  0.3845
 5436SOL     OW19199   7.348   7.354   7.852  1.1219 -0.3869  0.3720
 5436SOL    HW119200   7.427   7.300   7.843  0.4748 -1.4017  0.6660
 5436SOL    HW219201   7.278   7.302   7.813  0.9678  1.5300 -2.1911
 5437SOL     OW19202   3.982   0.483   6.325  0.5239 -0.9141  0.4272
 5437SOL    HW119203   3.939   0.399   6.341  0.8732 -0.9843  1.0101
 5437SOL    HW219204   4.027   0.503   6.406  1.4849 -0.7668 -0.1266
 5438SOL     OW19205   3.190   9.144   7.908 -0.2520 -0.2581 -0.0190
 5438SOL    HW119206   3.239   9.207   7.960 -1.3961 -0.5027  1.4304
 5438SOL    HW219207   3.186   9.066   7.962 -0.9564 -0.7409 -0.7433
 5439SOL     OW19208   0.528   6.360   0.428 -0.1802 -0.3004 -0.3886
 5439SOL    HW119209   0.502   6.438   0.475 -0.0150 -1.3394  1.5145
 5439SOL    HW219210   0.446   6.313   0.411 -0.2276  0.0125 -1.0669
 5440SOL     OW19211   7.052   7.163   4.360  0.0539 -0.1992 -0.2111
 5440SOL    HW119212   7.041   7.137   4.451 -1.6660 -2.3564 -0.9446
 5440SOL    HW219213   6.987   7.232   4.347  1.4352  1.3230  0.5479
 5441SOL     OW19214   3.129   1.008   7.042 -0.3802 -0.1756 -0.3254
 5441SOL    HW119215   3.058   1.032   6.982  0.0250  0.7008 -0.4565
 5441SOL    HW219216   3.172   1.090   7.064 -0.9356 -0.3949  1.7268
 5442SOL     OW19217   4.338   8.422   2.448 -0.5704  0.4509 -0.6137
 5442SOL    HW119218   4.414   8.426   2.506 -1.6222  0.0944  0.8196
 5442SOL    HW219219   4.316   8.329   2.444 -1.8673  0.6969  0.2627
 5443SOL     OW19220   4.731   9.201   4.565  0.3220  0.1217  0.3823
 5443SOL    HW119221   4.816   9.188   4.608 -0.1609 -0.3165  1.2358
 5443SOL    HW219222   4.670   9.215   4.638 -0.2880  0.7322 -0.2357
 5444SOL     OW19223   4.994   1.939   3.832  0.5290 -0.0952  0.3414
 5444SOL    HW119224   4.962   1.897   3.752  1.3987 -0.0056 -0.0611
 5444SOL    HW219225   4.983   1.872   3.900  1.7862 -0.9410 -0.2723
 5445SOL     OW19226   1.599   1.572   8.205  0.1595 -0.4108  0.0051
 5445SOL    HW119227   1.686   1.599   8.236 -0.9726  0.3937  2.7782
 5445SOL    HW219228   1.573   1.641   8.145  0.5161  0.6110  0.9823
 5446SOL     OW19229   2.526   3.197   3.149 -0.1687  0.3745  0.3813
 5446SOL    HW119230   2.546   3.251   3.073 -2.0991  2.1958  1.0573
 5446SOL    HW219231   2.579   3.234   3.220  0.4287 -0.2970  0.2959
 5447SOL     OW19232   0.736   5.953   4.481  0.1506  0.1408 -0.0539
 5447SOL    HW119233   0.784   5.897   4.420 -1.1458 -0.5697 -0.4867
 5447SOL    HW219234   0.729   6.037   4.436  0.9528  0.2514  0.0117
 5448SOL     OW19235   5.692   2.567   5.987  0.0838  0.3888  0.3765
 5448SOL    HW119236   5.607   2.573   6.031 -0.8928  0.2188 -1.3632
 5448SOL    HW219237   5.700   2.648   5.937  1.1271  0.5626  0.7997
 5449SOL     OW19238   8.964   7.046   6.407 -0.1957  0.1883  0.0526
 5449SOL    HW119239   8.894   6.995   6.448 -0.1197 -0.2331 -0.3248
 5449SOL    HW219240   8.919   7.120   6.366 -0.1551  1.1769  1.7377
 5450SOL     OW19241   4.380   4.285   9.264  0.4705 -0.1496  0.0161
 5450SOL    HW119242   4.334   4.323   9.339 -0.5765 -1.4867  0.0809
 5450SOL    HW219243   4.337   4.324   9.187  1.8543  1.5864  0.0530
 5451SOL     OW19244   2.517   7.908   5.167 -0.1767  0.0735 -0.0101
 5451SOL    HW119245   2.522   8.004   5.170  0.5619  0.0918 -1.1346
 5451SOL    HW219246   2.490   7.882   5.255 -1.9239  1.3888 -0.0985
 5452SOL     OW19247   2.346   0.156   5.721  0.1652 -0.0397  0.3470
 5452SOL    HW119248   2.363   0.173   5.814  0.4394 -0.6517  0.4162
 5452SOL    HW219249   2.393   0.225   5.675 -1.9388  1.7335  0.7177
 5453SOL     OW19250   7.540   6.099   4.912  0.0181  0.2990 -0.3877
 5453SOL    HW119251   7.487   6.085   4.990  0.4183  0.5550 -0.0659
 5453SOL    HW219252   7.507   6.181   4.875 -3.2695 -1.9306 -3.0394
 5454SOL     OW19253   6.203   4.314   3.580 -0.0063  0.1697 -0.3039
 5454SOL    HW119254   6.137   4.244   3.578 -2.0605  1.9283  1.4064
 5454SOL    HW219255   6.273   4.278   3.635 -0.2595 -1.1439 -0.7937
 5455SOL     OW19256   3.929   7.325   0.387  0.3625  0.1568 -0.6270
 5455SOL    HW119257   3.976   7.330   0.470  0.0304 -0.4899 -0.3924
 5455SOL    HW219258   3.847   7.372   0.402  0.9754  1.4232 -1.0844
 5456SOL     OW19259   5.976   7.918   7.639  0.3389 -0.1038  0.0901
 5456SOL    HW119260   5.973   8.006   7.602  1.8780 -0.7054 -1.6161
 5456SOL    HW219261   5.970   7.932   7.733 -1.2535  1.6832 -0.2149
 5457SOL     OW19262   6.031   3.230   9.155 -0.1950  0.3231  0.0951
 5457SOL    HW119263   6.053   3.314   9.196  1.3795  0.6783 -1.4017
 5457SOL    HW219264   6.105   3.173   9.175 -0.0350  0.0954 -1.0962
 5458SOL     OW19265   9.149   3.914   0.343 -0.2333  0.2483  0.1186
 5458SOL    HW119266   9.120   3.855   0.273 -0.2341  0.6553 -0.2290
 5458SOL    HW219267   9.182   3.991   0.297 -0.8000  0.7743  0.5771
 5459SOL     OW19268   3.974   6.343   6.907  0.4103  0.6785 -0.2823
 5459SOL    HW119269   4.027   6.418   6.881 -0.1593  1.1025 -0.2261
 5459SOL    HW219270   3.889   6.358   6.866  1.0292 -1.2081 -2.4206
 5460SOL     OW19271   0.302   2.559   3.847 -0.0951  1.1586  0.4657
 5460SOL    HW119272   0.305   2.605   3.931 -1.6705  1.7702  0.2197
 5460SOL    HW219273   0.387   2.577   3.807  0.1280  2.0819  1.3086
 5461SOL     OW19274   4.590   3.854   3.962 -0.3320  0.3686 -0.0979
 5461SOL    HW119275   4.656   3.872   4.029 -1.0549  0.3780  0.6226
 5461SOL    HW219276   4.641   3.827   3.885  0.4572 -0.9875  0.8680
 5462SOL     OW19277   1.230   8.623   4.804 -0.8255 -0.1894  0.0420
 5462SOL    HW119278   1.309   8.654   4.760 -0.8471  1.1534  0.8932
 5462SOL    HW219279   1.241   8.651   4.895 -2.7226  0.9765 -0.0255
 5463SOL     OW19280   2.993   3.639   0.992  0.4309 -0.8361  0.2280
 5463SOL    HW119281   3.079   3.602   0.973  0.3523 -0.9381  0.0661
 5463SOL    HW219282   2.941   3.621   0.914  0.3690 -0.4475  0.1742
 5464SOL     OW19283   8.454   7.137   7.351 -0.3535  0.9318  0.2446
 5464SOL    HW119284   8.383   7.186   7.309 -0.8924 -0.4580 -0.5034
 5464SOL    HW219285   8.460   7.174   7.439 -2.5837  0.4820  0.6229
 5465SOL     OW19286   9.433   5.458   9.628 -0.8006 -0.1502 -0.1102
 5465SOL    HW119287   9.347   5.444   9.667 -2.0614  2.9602 -1.4539
 5465SOL    HW219288   9.481   5.510   9.693  0.0772 -1.7358  0.5661
 5466SOL     OW19289   5.671   6.422   9.223  0.9083  0.0766  0.3649
 5466SOL    HW119290   5.694   6.389   9.310 -2.1396 -1.2033  0.8252
 5466SOL    HW219291   5.650   6.514   9.237 -3.0947 -0.8796  1.9361
 5467SOL     OW19292   4.012   7.380   8.156  0.4196 -0.3524 -0.3614
 5467SOL    HW119293   4.098   7.402   8.121  1.4118 -0.3335  1.9139
 5467SOL    HW219294   4.030   7.322   8.230 -1.6431 -1.6352 -0.7867
 5468SOL     OW19295   7.866   1.152   2.308  0.5284 -0.4021 -0.3421
 5468SOL    HW119296   7.940   1.191   2.354 -0.8146  0.8371  0.8377
 5468SOL    HW219297   7.901   1.071   2.271  2.0089 -0.8084  1.7837
 5469SOL     OW19298   3.320   6.433   6.870 -0.5628 -0.3322 -0.5296
 5469SOL    HW119299   3.326   6.508   6.811 -1.9773  0.5549  0.3970
 5469SOL    HW219300   3.228   6.407   6.867 -0.6009 -0.4754  1.0035
 5470SOL     OW19301   4.703   7.590   1.289 -0.4396 -0.2949  0.3052
 5470SOL    HW119302   4.701   7.629   1.201 -2.4097 -0.3177  0.3126
 5470SOL    HW219303   4.615   7.602   1.323 -0.5616 -2.9109  1.1259
 5471SOL     OW19304   0.455   8.238   3.909 -0.7055  0.3069  0.0015
 5471SOL    HW119305   0.388   8.186   3.865  0.3368  0.0849 -1.3811
 5471SOL    HW219306   0.428   8.328   3.895 -0.7764  0.2181 -0.4518
 5472SOL     OW19307   8.996   3.485   4.101  0.1601 -0.1358  0.1402
 5472SOL    HW119308   9.002   3.572   4.063 -0.1935 -0.3464 -0.4085
 5472SOL    HW219309   8.997   3.500   4.196  3.9332  0.2418  0.2101
 5473SOL     OW19310   0.125   2.867   6.490  0.6360 -0.0490  0.4762
 5473SOL    HW119311   0.178   2.788   6.504 -0.8888 -1.2096 -0.1034
 5473SOL    HW219312   0.051   2.857   6.549 -0.1336  0.4181 -0.3964
 5474SOL     OW19313   3.053   6.333   6.635  0.1736 -0.6767  0.0796
 5474SOL    HW119314   3.026   6.367   6.550  0.5406  0.9235  0.5643
 5474SOL    HW219315   3.057   6.238   6.623  0.0339 -0.5000 -1.6210
 5475SOL     OW19316   7.777   8.164   4.228  0.0687  0.2289  0.3735
 5475SOL    HW119317   7.787   8.149   4.134 -0.1875 -0.1091  0.3975
 5475SOL    HW219318   7.747   8.080   4.263 -0.5298  0.5466  0.6474
 5476SOL     OW19319   3.019   3.436   6.077  0.4510 -0.2164 -0.9189
 5476SOL    HW119320   3.003   3.526   6.052  0.2285  1.1439  3.3229
 5476SOL    HW219321   3.112   3.433   6.100  0.6215 -1.2933 -1.6711
 5477SOL     OW19322   3.274   2.892   9.171  0.1366 -0.0389  0.5981
 5477SOL    HW119323   3.315   2.838   9.239  0.7202  0.9118  1.0128
 5477SOL    HW219324   3.187   2.913   9.207 -0.1683 -0.8418  0.3527
 5478SOL     OW19325   0.951   5.811   9.506 -0.7526  0.1913  0.1709
 5478SOL    HW119326   0.888   5.851   9.447 -0.2868  1.6308  0.6276
 5478SOL    HW219327   0.960   5.721   9.473 -1.9872  0.3728 -0.7256
 5479SOL     OW19328   3.162   2.260   1.225  0.6052 -0.2128  0.2178
 5479SOL    HW119329   3.134   2.207   1.300 -0.3714 -2.0600 -1.3541
 5479SOL    HW219330   3.098   2.332   1.222 -0.6044 -1.2529  0.0021
 5480SOL     OW19331   2.016   2.170   6.346  0.2561 -0.1713 -0.3641
 5480SOL    HW119332   2.103   2.162   6.305  0.2041 -0.9944 -0.3260
 5480SOL    HW219333   2.031   2.151   6.438  0.5277  2.5713  0.2221
 5481SOL     OW19334   9.234   8.439   9.496 -0.2282  0.4894 -0.1007
 5481SOL    HW119335   9.282   8.507   9.542  0.6437 -0.9949  1.2783
 5481SOL    HW219336   9.160   8.419   9.554 -0.0812 -0.2255 -0.1565
 5482SOL     OW19337   7.877   2.375   1.836  0.1657  0.1498 -0.2835
 5482SOL    HW119338   7.904   2.335   1.919 -0.2393  0.9893  0.2744
 5482SOL    HW219339   7.861   2.301   1.777  0.1222 -0.4770  0.4988
 5483SOL     OW19340   6.157   2.968   6.829 -0.0791 -0.3813 -0.2631
 5483SOL    HW119341   6.132   3.058   6.806  1.0238  0.3422  1.2056
 5483SOL    HW219342   6.074   2.924   6.846 -0.5803  0.8084  0.5015
 5484SOL     OW19343   7.537   3.748   1.480 -0.7460  0.1163 -0.3365
 5484SOL    HW119344   7.445   3.747   1.451  0.0546 -2.1227 -3.3430
 5484SOL    HW219345   7.546   3.670   1.534 -0.5070  0.1050 -0.3933
 5485SOL     OW19346   4.890   4.422   2.839 -0.1614 -0.3824 -0.3849
 5485SOL    HW119347   4.851   4.504   2.809  0.4330  0.0435  0.0047
 5485SOL    HW219348   4.843   4.401   2.920 -0.5968 -0.6492 -0.7004
 5486SOL     OW19349   4.957   7.453   8.247 -0.1447  0.4524 -0.6183
 5486SOL    HW119350   4.936   7.539   8.212  1.2351  0.0621 -2.5756
 5486SOL    HW219351   5.035   7.467   8.300  1.1296  0.1877 -2.3509
 5487SOL     OW19352   1.993   4.418   8.950 -0.1012 -0.3194 -0.0381
 5487SOL    HW119353   2.067   4.408   8.891  0.6038  1.6865  0.4160
 5487SOL    HW219354   2.030   4.404   9.037 -0.1559  0.9634  0.2127
 5488SOL     OW19355   1.550   8.731   0.069  0.2739  0.1078  0.3424
 5488SOL    HW119356   1.543   8.826   0.066 -1.3423  0.0237  0.6761
 5488SOL    HW219357   1.544   8.709   0.161 -0.5079 -0.3759  0.1848
 5489SOL     OW19358   7.701   4.624   6.765 -0.3800 -0.4322 -0.4502
 5489SOL    HW119359   7.699   4.598   6.857  0.4156 -3.9801 -1.2946
 5489SOL    HW219360   7.778   4.681   6.758  0.1554 -0.9392  0.8974
 5490SOL     OW19361   2.353   5.638   4.925  0.1961 -0.1992  0.1461
 5490SOL    HW119362   2.328   5.701   4.857 -2.1196  0.5309  1.5696
 5490SOL    HW219363   2.284   5.571   4.923  0.5678 -0.6437  1.1873
 5491SOL     OW19364   5.770   0.129   7.616  0.3694  0.1389  0.1026
 5491SOL    HW119365   5.698   0.167   7.565  1.1009  0.8708 -0.4187
 5491SOL    HW219366   5.814   0.071   7.554 -0.2185 -0.9192  0.6487
 5492SOL     OW19367   9.152   1.767   6.005  0.4137 -0.2878 -0.0835
 5492SOL    HW119368   9.157   1.798   5.915  0.9098 -1.4837 -0.4897
 5492SOL    HW219369   9.115   1.679   5.998 -2.2426  0.6183  1.1447
 5493SOL     OW19370   6.239   4.382   7.524  0.4762  0.1539 -0.7557
 5493SOL    HW119371   6.273   4.450   7.583  0.8373  2.2955 -3.2306
 5493SOL    HW219372   6.194   4.320   7.581  0.8176  2.0580  1.7352
 5494SOL     OW19373   7.548   3.921   4.626  0.1746 -0.1545 -0.5530
 5494SOL    HW119374   7.526   3.985   4.558  0.4467  0.9995  0.4217
 5494SOL    HW219375   7.544   3.970   4.708  0.6150 -1.3377  0.2038
 5495SOL     OW19376   7.409   0.711   1.242  0.0261  0.2232 -0.3107
 5495SOL    HW119377   7.392   0.683   1.332 -0.4084  0.1006 -0.4307
 5495SOL    HW219378   7.449   0.634   1.200 -2.1340 -0.6334 -0.9388
 5496SOL     OW19379   2.643   1.040   0.738 -0.0499 -0.1063 -0.4602
 5496SOL    HW119380   2.641   1.126   0.697  1.4868  1.4842  2.4553
 5496SOL    HW219381   2.573   1.043   0.804  2.0430  0.3125  1.9192
 5497SOL     OW19382   1.776   3.886   1.179  0.3077 -0.0116 -0.0081
 5497SOL    HW119383   1.813   3.930   1.255  2.1352 -0.8033 -0.3764
 5497SOL    HW219384   1.841   3.899   1.110 -1.7422  1.5100 -1.7729
 5498SOL     OW19385   6.908   3.224   0.248  0.9909 -0.0524  0.1796
 5498SOL    HW119386   6.946   3.220   0.335  1.4233 -0.1266 -0.0081
 5498SOL    HW219387   6.847   3.297   0.251 -0.4506 -1.2225  1.1100
 5499SOL     OW19388   4.598   4.632   4.905  0.3974  0.1434  0.8600
 5499SOL    HW119389   4.658   4.559   4.894 -0.1828 -0.0408 -1.7614
 5499SOL    HW219390   4.645   4.708   4.872 -0.7706 -0.0525 -1.5076
 5500SOL     OW19391   3.668   4.399   3.102 -0.6170  0.4202 -0.2897
 5500SOL    HW119392   3.730   4.353   3.045 -0.8850  0.9031 -0.9943
 5500SOL    HW219393   3.714   4.409   3.185 -0.5696 -1.1781 -0.0750
 5501SOL     OW19394   6.269   4.124   8.924 -0.0047 -0.1325  0.0281
 5501SOL    HW119395   6.251   4.165   8.840  0.5384  1.4064  0.6166
 5501SOL    HW219396   6.288   4.197   8.983  1.5732 -1.2477  1.0127
 5502SOL     OW19397   4.039   7.351   6.168 -0.2938  0.4734  0.1214
 5502SOL    HW119398   4.025   7.355   6.073 -1.2346 -1.2287  0.1539
 5502SOL    HW219399   4.059   7.259   6.185  0.6672  0.9196  1.4888
 5503SOL     OW19400   7.408   7.926   1.355 -0.1168 -0.1634  0.1387
 5503SOL    HW119401   7.449   8.012   1.353  1.8492 -0.9942  1.6840
 5503SOL    HW219402   7.468   7.869   1.309  0.1666 -1.2657  1.7783
 5504SOL     OW19403   0.840   8.703   8.767  0.1107 -0.1425 -0.5827
 5504SOL    HW119404   0.817   8.646   8.693 -2.9918  1.3486 -0.9395
 5504SOL    HW219405   0.850   8.789   8.728 -0.4958  0.4738  0.5624
 5505SOL     OW19406   5.381   3.865   2.399  0.6589  1.0353  0.2566
 5505SOL    HW119407   5.316   3.844   2.466 -0.5754  0.2540 -1.1302
 5505SOL    HW219408   5.430   3.783   2.386 -0.9020  0.3276 -1.6557
 5506SOL     OW19409   4.003   0.038   8.373 -0.0033  0.0160 -0.0340
 5506SOL    HW119410   3.928  -0.021   8.368 -0.4710  0.5927 -0.0179
 5506SOL    HW219411   3.997   0.090   8.293  1.7006 -1.4563 -1.1773
 5507SOL     OW19412   0.077   5.190   6.973 -0.5900  0.4906  0.5136
 5507SOL    HW119413   0.024   5.259   7.015 -0.0405  0.2984  1.5685
 5507SOL    HW219414   0.045   5.186   6.883 -1.0984  1.6530  0.6284
 5508SOL     OW19415   8.660   2.779   7.687  0.4660  0.1696 -0.3235
 5508SOL    HW119416   8.731   2.716   7.672  1.1646  1.0144 -0.6308
 5508SOL    HW219417   8.702   2.854   7.728  0.1163  1.4790 -2.2298
 5509SOL     OW19418   4.080   3.327   1.273 -0.4955 -0.5218  0.1101
 5509SOL    HW119419   4.087   3.246   1.223 -0.5120 -1.6112  1.7896
 5509SOL    HW219420   4.171   3.352   1.288 -0.4880  0.1266 -0.9063
 5510SOL     OW19421   8.585   4.532   5.559  0.3499  0.3003  0.2757
 5510SOL    HW119422   8.530   4.605   5.585  0.0620 -0.4594  1.9511
 5510SOL    HW219423   8.525   4.458   5.552  0.8269 -0.0602 -0.1163
 5511SOL     OW19424   8.843   8.257   4.771  0.1930  0.1182 -1.3078
 5511SOL    HW119425   8.905   8.280   4.841 -1.1068 -0.5200  0.1192
 5511SOL    HW219426   8.786   8.333   4.763 -1.2671 -0.7375  0.2140
 5512SOL     OW19427   2.799   2.386   7.403 -0.4078 -0.5857  0.6900
 5512SOL    HW119428   2.741   2.447   7.359  0.5344 -0.6417 -0.7184
 5512SOL    HW219429   2.784   2.302   7.358  0.7799 -0.5776  0.2374
 5513SOL     OW19430   2.176   0.547   7.887 -0.2691 -0.1764 -0.4765
 5513SOL    HW119431   2.247   0.504   7.838 -0.8249  1.3697 -2.8014
 5513SOL    HW219432   2.119   0.583   7.819 -0.9568  2.3693  1.3149
 5514SOL     OW19433   9.267   3.720   7.312  0.0730 -0.1546 -0.8737
 5514SOL    HW119434   9.233   3.758   7.393  3.5650  1.6789 -0.0276
 5514SOL    HW219435   9.252   3.787   7.246  0.0706 -0.2774 -0.9977
 5515SOL     OW19436   6.285   0.708   3.556 -0.2303 -0.0819 -0.5435
 5515SOL    HW119437   6.357   0.709   3.493  0.5460  0.2284  0.3210
 5515SOL    HW219438   6.216   0.760   3.514  0.7304  1.1891 -0.6330
 5516SOL     OW19439   3.503   4.601   1.934  0.6014 -0.0943  0.8528
 5516SOL    HW119440   3.411   4.626   1.928  0.9554  1.0469 -0.3092
 5516SOL    HW219441   3.501   4.506   1.946 -0.7099 -0.2936 -0.6609
 5517SOL     OW19442   8.564   8.681   8.678  0.7123  0.4558 -0.0038
 5517SOL    HW119443   8.654   8.649   8.670  0.3317 -1.2042  1.5998
 5517SOL    HW219444   8.526   8.628   8.749 -1.5555  1.0447 -0.6850
 5518SOL     OW19445   6.576   4.820   1.812  0.4556  0.1253 -0.2917
 5518SOL    HW119446   6.591   4.907   1.848  0.5597 -0.1109  0.2515
 5518SOL    HW219447   6.616   4.760   1.876 -0.6878 -0.3939 -0.0343
 5519SOL     OW19448   5.958   1.980   5.377  0.3661  0.5563  0.6823
 5519SOL    HW119449   5.970   1.926   5.455 -0.2200 -0.6681 -0.0462
 5519SOL    HW219450   5.996   1.928   5.306  0.1459  1.2885  0.0149
 5520SOL     OW19451   9.305   3.233   3.870 -0.6404  0.0657  0.3331
 5520SOL    HW119452   9.252   3.277   3.804 -0.5248  0.3849  0.4477
 5520SOL    HW219453   9.292   3.140   3.854  0.6887  0.0942 -1.2128
 5521SOL     OW19454   1.664   7.926   0.387  0.1028 -0.0367 -0.5075
 5521SOL    HW119455   1.697   7.838   0.366  1.7935  0.0948  1.3477
 5521SOL    HW219456   1.721   7.985   0.338 -0.0966  0.0845 -0.5956
 5522SOL     OW19457   7.504   9.080   0.281 -0.5884 -0.3889  0.0949
 5522SOL    HW119458   7.431   9.069   0.342  0.2945 -1.2944  1.0198
 5522SOL    HW219459   7.518   8.993   0.244  0.0691 -0.2419 -0.0126
 5523SOL     OW19460   8.852   8.684   0.148  0.7932  0.5245 -0.1707
 5523SOL    HW119461   8.931   8.661   0.197  0.9631  2.3221  0.4679
 5523SOL    HW219462   8.793   8.610   0.163  2.4586 -1.0777 -1.0351
 5524SOL     OW19463   0.095   6.389   4.372  0.3431 -0.1334 -0.4071
 5524SOL    HW119464   0.141   6.305   4.368  1.7128  0.5111  0.6735
 5524SOL    HW219465   0.023   6.375   4.434  2.4759  0.2399  2.3808
 5525SOL     OW19466   2.603   0.565   3.469  0.2448 -0.7760 -0.2631
 5525SOL    HW119467   2.665   0.577   3.398  0.9852  0.9996  0.6087
 5525SOL    HW219468   2.517   0.567   3.427  0.5877  1.8901 -1.0115
 5526SOL     OW19469   8.443   1.501   2.536 -0.4718 -0.2481 -0.6423
 5526SOL    HW119470   8.370   1.498   2.598 -0.8807  1.0052 -1.0400
 5526SOL    HW219471   8.493   1.421   2.554  0.0695  0.6100  2.0867
 5527SOL     OW19472   1.453   4.422   4.789 -0.1119 -0.0848  0.4421
 5527SOL    HW119473   1.397   4.367   4.845 -0.3069 -0.7693 -0.4093
 5527SOL    HW219474   1.441   4.511   4.823  0.3523 -0.5718  1.9648
 5528SOL     OW19475   5.004   2.560   1.072 -0.1705  0.5514  0.3616
 5528SOL    HW119476   5.069   2.501   1.109 -1.0747 -1.0116 -0.4622
 5528SOL    HW219477   5.050   2.602   0.998 -0.3175 -1.2069 -0.7748
 5529SOL     OW19478   5.558   2.195   0.594  0.4512  0.0148 -0.8738
 5529SOL    HW119479   5.504   2.174   0.518  1.9965 -1.3994 -1.6582
 5529SOL    HW219480   5.553   2.290   0.602 -2.0591 -0.0420 -0.9058
 5530SOL     OW19481   8.755   3.663   0.304  0.0913 -0.0751  0.0704
 5530SOL    HW119482   8.733   3.751   0.271  0.6834  0.2133  0.4346
 5530SOL    HW219483   8.709   3.604   0.245  0.4818  0.4574 -0.7893
 5531SOL     OW19484   2.663   2.631   6.555 -0.2163 -0.6152 -0.6169
 5531SOL    HW119485   2.703   2.574   6.490  1.5729  0.8788 -0.9240
 5531SOL    HW219486   2.705   2.609   6.638 -1.2146 -1.3012 -0.2682
 5532SOL     OW19487   8.633   1.509   2.327 -0.1156  0.0861 -0.7534
 5532SOL    HW119488   8.561   1.499   2.390  0.0954 -1.6254 -0.7384
 5532SOL    HW219489   8.683   1.583   2.360 -0.9734  0.3028  0.1314
 5533SOL     OW19490   4.270   6.186   9.552  0.2626  0.3754  0.0979
 5533SOL    HW119491   4.287   6.111   9.495  0.9048 -0.5390  1.4552
 5533SOL    HW219492   4.209   6.154   9.618  0.1008  1.2068  0.3674
 5534SOL     OW19493   2.841   8.931   8.880  0.1912  0.3641  1.0207
 5534SOL    HW119494   2.796   8.850   8.856  1.9145 -0.3921  0.1579
 5534SOL    HW219495   2.839   8.933   8.975 -0.0366 -0.6036  1.0480
 5535SOL     OW19496   7.985   3.354   3.306 -0.3432 -0.0264  0.3345
 5535SOL    HW119497   7.973   3.434   3.357 -0.6146  0.7689 -0.9271
 5535SOL    HW219498   8.075   3.327   3.326 -0.4089  0.3176  1.1430
 5536SOL     OW19499   2.711   4.779   2.348 -0.0504 -0.2802  0.7037
 5536SOL    HW119500   2.728   4.814   2.435 -1.6612 -1.9317  1.7473
 5536SOL    HW219501   2.796   4.745   2.319  0.5521  0.4842  1.5114
 5537SOL     OW19502   7.893   4.636   1.011 -0.2640 -0.1171  0.8378
 5537SOL    HW119503   7.798   4.627   0.997 -0.1519  0.5234 -0.4216
 5537SOL    HW219504   7.900   4.662   1.103 -1.5145  2.3458  0.3392
 5538SOL     OW19505   8.678   3.341   1.405  0.4881  0.3724 -0.8158
 5538SOL    HW119506   8.645   3.398   1.336  0.0653  0.3953 -0.5981
 5538SOL    HW219507   8.606   3.336   1.469  1.0782  0.8186 -0.1005
 5539SOL     OW19508   3.987   8.757   0.312 -0.2505  0.3147 -0.9985
 5539SOL    HW119509   3.975   8.766   0.406 -2.3539 -3.6864 -0.6845
 5539SOL    HW219510   4.080   8.739   0.300  0.2408  1.8741  0.0925
 5540SOL     OW19511   1.279   4.613   6.864  0.1329  0.2924 -0.3310
 5540SOL    HW119512   1.322   4.550   6.922  0.6223 -0.3423 -1.3602
 5540SOL    HW219513   1.350   4.650   6.811 -0.2323  1.2680 -0.1666
 5541SOL     OW19514   5.263   3.355   1.224 -0.2596  0.1476  0.0295
 5541SOL    HW119515   5.306   3.358   1.309 -0.0339  1.1193 -0.1048
 5541SOL    HW219516   5.169   3.360   1.245 -0.1786  1.1648  0.2044
 5542SOL     OW19517   8.799   0.463   2.375 -0.3085  0.1672 -0.2907
 5542SOL    HW119518   8.778   0.452   2.467  0.1855  1.1662 -0.0364
 5542SOL    HW219519   8.747   0.539   2.347 -0.0503  0.2046 -0.6821
 5543SOL     OW19520   4.545   5.843   7.663  0.2872  0.2868  0.0706
 5543SOL    HW119521   4.468   5.798   7.628  0.3991 -0.5192  0.8250
 5543SOL    HW219522   4.597   5.773   7.702  0.9216  0.9611  0.4414
 5544SOL     OW19523   3.431   8.970   7.454 -0.2996  0.6215  0.2923
 5544SOL    HW119524   3.512   8.973   7.505  0.4990  0.0916 -0.8997
 5544SOL    HW219525   3.406   9.062   7.443 -0.2872  0.7590  1.3094
 5545SOL     OW19526   8.010   2.436   3.119 -0.4506 -0.6700  0.6093
 5545SOL    HW119527   8.013   2.434   3.024  0.0725 -0.2894  0.6180
 5545SOL    HW219528   8.080   2.377   3.147  0.0530 -0.0002  0.7625
 5546SOL     OW19529   3.601   6.264   7.368  0.1636  0.2779  0.1044
 5546SOL    HW119530   3.508   6.246   7.360  0.1232  0.5599 -0.0961
 5546SOL    HW219531   3.631   6.207   7.438 -0.2872  0.6355  0.5961
 5547SOL     OW19532   0.148   9.534   9.452 -0.3940  0.2218 -0.6898
 5547SOL    HW119533   0.093   9.566   9.380 -1.6494 -0.7858 -0.2077
 5547SOL    HW219534   0.114   9.447   9.472  0.7641 -0.0329  0.2771
 5548SOL     OW19535   0.599   6.184   4.978  0.1911 -0.2807  0.7161
 5548SOL    HW119536   0.569   6.204   4.889 -0.1859 -1.1178  0.6408
 5548SOL    HW219537   0.531   6.126   5.013  1.9465 -2.7832  0.3090
 5549SOL     OW19538   4.969   9.525   5.743  0.2426 -0.2044 -0.0401
 5549SOL    HW119539   4.927   9.549   5.825 -0.3067 -0.7965 -0.1456
 5549SOL    HW219540   4.958   9.601   5.687 -3.9740 -1.5134 -1.3728
 5550SOL     OW19541   0.207   7.743   6.676  0.2864 -0.2527 -0.2004
 5550SOL    HW119542   0.271   7.814   6.673 -0.6339  0.6048 -2.3283
 5550SOL    HW219543   0.124   7.785   6.652 -0.4346 -1.8835 -0.7454
 5551SOL     OW19544   0.291   2.063   5.785  0.2063 -0.2061 -0.3298
 5551SOL    HW119545   0.307   2.134   5.848 -0.2932 -0.2965 -0.0890
 5551SOL    HW219546   0.369   2.007   5.791  0.1271 -0.2620  0.2823
 5552SOL     OW19547   8.530   1.370   3.995 -0.4744 -0.0992  0.3422
 5552SOL    HW119548   8.520   1.299   4.058  0.3484  0.4006  1.0492
 5552SOL    HW219549   8.480   1.341   3.918 -1.3649 -0.7856  1.1558
 5553SOL     OW19550   4.096   6.614   3.502 -0.6099 -0.6824 -0.0141
 5553SOL    HW119551   4.151   6.554   3.452 -0.7579  0.2886 -1.4056
 5553SOL    HW219552   4.094   6.694   3.450  0.1744  0.8116  2.1237
 5554SOL     OW19553   4.483   1.625   9.138 -0.1854  0.2281 -0.5978
 5554SOL    HW119554   4.406   1.603   9.190  0.3078 -2.2544 -0.8005
 5554SOL    HW219555   4.557   1.599   9.192  0.5524  2.1176 -0.6131
 5555SOL     OW19556   8.701   9.609   3.349  0.6084 -0.6241  0.0756
 5555SOL    HW119557   8.769   9.665   3.386  0.5766  0.8038 -1.8376
 5555SOL    HW219558   8.708   9.623   3.254 -2.9971  0.3814 -0.1831
 5556SOL     OW19559   7.763   4.992   1.233 -0.3990 -0.5539 -0.0249
 5556SOL    HW119560   7.809   4.971   1.314  0.7878  1.7465 -0.0457
 5556SOL    HW219561   7.831   5.019   1.172 -1.0874 -3.3695 -2.3262
 5557SOL     OW19562   0.118   9.184   1.690  0.1702 -0.0491  0.2130
 5557SOL    HW119563   0.213   9.193   1.687  0.2248 -0.5501 -2.3882
 5557SOL    HW219564   0.103   9.091   1.701  0.0437 -0.1516 -0.6988
 5558SOL     OW19565   4.131   7.111   3.087 -0.6203  0.2724  0.2317
 5558SOL    HW119566   4.070   7.038   3.091  0.7514 -0.8699  1.1273
 5558SOL    HW219567   4.132   7.146   3.176 -0.7586  0.9694 -0.0338
 5559SOL     OW19568   2.364   6.848   6.046 -0.3125 -0.1391 -0.2865
 5559SOL    HW119569   2.449   6.836   6.003 -0.2882  0.9281 -0.5578
 5559SOL    HW219570   2.300   6.842   5.975 -0.7277 -3.3746  0.2059
 5560SOL     OW19571   3.231   0.839   8.746 -0.3932  0.3843  0.6107
 5560SOL    HW119572   3.310   0.810   8.791 -1.0274 -1.0926  0.8394
 5560SOL    HW219573   3.161   0.825   8.810 -1.1082 -0.2808 -0.2873
 5561SOL     OW19574   5.533   0.210   2.452 -1.0221  0.5308 -0.2869
 5561SOL    HW119575   5.499   0.228   2.365 -2.5804 -1.2583 -0.1052
 5561SOL    HW219576   5.503   0.122   2.472  2.3258 -0.5638  0.6297
 5562SOL     OW19577   9.378   2.711   2.277  0.5732  0.0995  0.1921
 5562SOL    HW119578   9.290   2.700   2.311  1.3062 -1.4702  1.7206
 5562SOL    HW219579   9.385   2.648   2.205  0.1178  1.0357 -0.7034
 5563SOL     OW19580   7.800   3.178   1.194 -0.5734 -0.1477  0.1935
 5563SOL    HW119581   7.729   3.240   1.178 -0.5676 -0.7018 -2.3816
 5563SOL    HW219582   7.872   3.209   1.139  0.7131 -0.4327  1.6339
 5564SOL     OW19583   1.876   8.860   1.934  0.0367  0.1538  0.2744
 5564SOL    HW119584   1.897   8.799   2.005  0.5622  1.8124  1.6142
 5564SOL    HW219585   1.873   8.946   1.977 -3.2642  0.8184 -1.0281
 5565SOL     OW19586   8.055   7.250   9.009  0.1070 -0.8753 -0.0043
 5565SOL    HW119587   8.058   7.241   9.104 -1.4506  0.9435  0.2746
 5565SOL    HW219588   7.995   7.182   8.980  0.3084 -1.2046  0.3526
 5566SOL     OW19589   2.489   0.283   7.016 -0.0152  0.3089 -0.2179
 5566SOL    HW119590   2.544   0.239   7.081  0.3696 -0.4948 -1.0644
 5566SOL    HW219591   2.492   0.376   7.041 -0.0605 -0.0109  1.0258
 5567SOL     OW19592   1.014   9.101   6.713 -0.1415  0.6668 -0.0364
 5567SOL    HW119593   0.995   9.162   6.642 -1.9118 -1.0304 -1.1185
 5567SOL    HW219594   1.046   9.022   6.669 -1.2074 -0.3989  1.0377
 5568SOL     OW19595   0.776   5.945   9.341 -0.2825 -0.6055  0.3389
 5568SOL    HW119596   0.837   6.014   9.314  0.1199 -0.5340  1.3889
 5568SOL    HW219597   0.689   5.980   9.318 -0.1380  0.5390  1.4023
 5569SOL     OW19598   8.701   2.208   5.055  0.4273 -0.3558 -0.2506
 5569SOL    HW119599   8.659   2.180   5.137  0.3177 -0.8942 -0.4871
 5569SOL    HW219600   8.648   2.282   5.025  0.6804  0.0799  0.3494
 5570SOL     OW19601   0.528   3.350   5.308 -0.4817  0.5498 -0.4418
 5570SOL    HW119602   0.553   3.259   5.295 -1.9714  0.2542 -1.5519
 5570SOL    HW219603   0.442   3.357   5.267  0.8556  3.1794 -3.1835
 5571SOL     OW19604   4.634   1.334   1.096  0.0230  0.0653 -0.0976
 5571SOL    HW119605   4.676   1.266   1.149  0.2702  1.5880  1.7746
 5571SOL    HW219606   4.685   1.413   1.113 -0.9999  1.0058 -1.2070
 5572SOL     OW19607   4.351   4.721   2.509 -0.0271  0.1628  0.0808
 5572SOL    HW119608   4.308   4.802   2.535  0.0009  0.7018 -1.4627
 5572SOL    HW219609   4.288   4.677   2.451  1.2366  0.7559 -1.8566
 5573SOL     OW19610   5.844   5.847   7.201 -0.0676 -0.0641  0.9312
 5573SOL    HW119611   5.859   5.753   7.186 -1.4467 -0.3457  1.1814
 5573SOL    HW219612   5.888   5.890   7.128  0.3139 -0.9328  0.6392
 5574SOL     OW19613   8.976   7.210   7.422 -0.3096  0.1408 -0.5327
 5574SOL    HW119614   9.032   7.150   7.372  0.0804  0.5297 -0.5699
 5574SOL    HW219615   8.887   7.178   7.406 -0.0045 -1.7377  1.1662
 5575SOL     OW19616   1.928   3.243   3.678 -0.2076 -0.6572  0.2245
 5575SOL    HW119617   1.918   3.254   3.772  0.5515 -0.5923  0.3025
 5575SOL    HW219618   1.895   3.155   3.660  0.2497 -0.9207  0.6509
 5576SOL     OW19619   2.747   2.156   6.305  0.1006  0.0168  0.3251
 5576SOL    HW119620   2.778   2.071   6.335  0.3674 -0.1438 -0.3780
 5576SOL    HW219621   2.804   2.177   6.231 -1.0154  0.0356 -0.5626
 5577SOL     OW19622   8.320   0.858   4.290  0.0086  0.3835  0.1607
 5577SOL    HW119623   8.401   0.901   4.317 -0.4019  0.6554  0.9911
 5577SOL    HW219624   8.304   0.792   4.357  0.1888 -0.5317 -0.6594
 5578SOL     OW19625   7.164   5.159   8.143  0.0459  0.6199  0.0802
 5578SOL    HW119626   7.083   5.209   8.156  0.3105  1.1964 -0.4472
 5578SOL    HW219627   7.146   5.105   8.066 -0.4934 -0.6475  1.0684
 5579SOL     OW19628   8.692   0.479   2.868 -0.4596 -0.6805  0.3239
 5579SOL    HW119629   8.698   0.438   2.781 -1.4116 -0.7352  0.2690
 5579SOL    HW219630   8.692   0.405   2.929 -3.8942 -1.0236  0.1535
 5580SOL     OW19631   4.118   5.943   6.079  0.3099 -0.0023 -0.5260
 5580SOL    HW119632   4.073   5.997   6.144  1.3225 -2.2854  2.3008
 5580SOL    HW219633   4.208   5.976   6.078  0.6672 -0.9012  0.4170
 5581SOL     OW19634   0.050   5.220   7.480 -0.2186 -0.1303  0.1883
 5581SOL    HW119635   0.086   5.149   7.533  0.3344  0.3679  0.4907
 5581SOL    HW219636  -0.041   5.195   7.465 -0.2910 -0.4459  1.0827
 5582SOL     OW19637   5.363   3.162   3.460 -0.4120  0.3488  0.2012
 5582SOL    HW119638   5.321   3.247   3.469  0.2945  0.9997 -2.0751
 5582SOL    HW219639   5.290   3.100   3.452 -0.9213  0.7749  1.3329
 5583SOL     OW19640   6.487   0.377   0.781  0.0839  0.2517 -0.3017
 5583SOL    HW119641   6.425   0.427   0.834 -0.9139 -1.0444 -0.1929
 5583SOL    HW219642   6.566   0.430   0.780 -0.4495  1.1204  1.0326
 5584SOL     OW19643   4.672   9.079   3.888  0.3085  0.1363 -0.0619
 5584SOL    HW119644   4.738   9.129   3.936  0.0009 -0.3793  0.9010
 5584SOL    HW219645   4.588   9.114   3.918  0.1114  0.8419 -1.3343
 5585SOL     OW19646   0.947   4.169   2.288 -0.0325 -0.0742 -0.2222
 5585SOL    HW119647   0.939   4.092   2.231 -0.7108  0.4740 -0.8854
 5585SOL    HW219648   0.964   4.133   2.375 -1.9268 -1.0650 -0.2142
 5586SOL     OW19649   6.396   8.178   0.155  0.0413 -0.6483  0.7388
 5586SOL    HW119650   6.330   8.243   0.130 -0.3755 -2.0394 -2.3773
 5586SOL    HW219651   6.350   8.121   0.217 -0.2348  0.7957  1.9213
 5587SOL     OW19652   4.089   7.569   0.763  0.3176  0.3151  0.2748
 5587SOL    HW119653   4.099   7.561   0.858 -1.0905  1.8311  0.6044
 5587SOL    HW219654   4.126   7.655   0.743  2.7937 -0.9213 -0.9882
 5588SOL     OW19655   0.679   2.076   2.919 -0.0236  0.0161 -0.5792
 5588SOL    HW119656   0.755   2.085   2.977  0.2692  1.1560 -1.1096
 5588SOL    HW219657   0.603   2.083   2.977  0.2749  0.3087 -0.2161
 5589SOL     OW19658   9.151   3.867   7.512 -0.1881  0.3041  0.1168
 5589SOL    HW119659   9.209   3.910   7.575  0.4896 -2.6871  1.7536
 5589SOL    HW219660   9.084   3.825   7.567  0.9067 -3.1613 -0.9265
 5590SOL     OW19661   3.100   5.620   6.147 -0.3519 -0.1661  0.0517
 5590SOL    HW119662   3.055   5.592   6.068 -0.0045  0.7936 -0.4956
 5590SOL    HW219663   3.037   5.676   6.192 -0.3165 -0.2041  0.1496
 5591SOL     OW19664   4.891   4.759   1.104  0.3569  0.1724  0.2970
 5591SOL    HW119665   4.942   4.821   1.156  1.4681 -0.5127  0.0605
 5591SOL    HW219666   4.953   4.688   1.083 -0.1568  0.2103 -1.5768
 5592SOL     OW19667   6.388   8.372   0.491 -0.1601  0.3096 -0.3572
 5592SOL    HW119668   6.340   8.410   0.565  1.1368  1.0727  0.1186
 5592SOL    HW219669   6.319   8.347   0.428 -1.2131  0.6476  0.6303
 5593SOL     OW19670   1.848   6.463   0.640 -0.0589 -0.1543 -0.6609
 5593SOL    HW119671   1.918   6.411   0.601 -0.0436 -0.5325 -0.1387
 5593SOL    HW219672   1.887   6.549   0.655  0.2632 -0.3349 -0.4614
 5594SOL     OW19673   2.078   9.211   2.942  0.2497  0.2577  0.0404
 5594SOL    HW119674   2.081   9.166   2.858 -1.4969 -0.8262  0.5032
 5594SOL    HW219675   2.144   9.280   2.935 -0.3057  0.6429 -2.4846
 5595SOL     OW19676   7.767   3.192   8.442 -0.2400 -0.6880  0.8580
 5595SOL    HW119677   7.729   3.173   8.528 -0.5385 -0.1269  0.8540
 5595SOL    HW219678   7.724   3.273   8.414  0.3499 -0.5009  0.4752
 5596SOL     OW19679   2.762   1.638   2.750  0.0078  0.0119  0.8387
 5596SOL    HW119680   2.839   1.647   2.805  0.7825 -3.8926  0.7186
 5596SOL    HW219681   2.774   1.702   2.680  1.9824  1.0195  2.0353
 5597SOL     OW19682   6.008   8.650   4.217  0.0425 -0.1371  0.1551
 5597SOL    HW119683   5.969   8.566   4.195  1.6045 -0.9094  0.1874
 5597SOL    HW219684   6.076   8.629   4.282 -0.2765  1.2889  1.0005
 5598SOL     OW19685   8.026   6.876   6.568 -0.4839 -0.3481  0.0357
 5598SOL    HW119686   7.978   6.905   6.646  0.7570 -2.2205  1.6011
 5598SOL    HW219687   8.049   6.786   6.587 -0.7988 -1.1501 -2.9018
 5599SOL     OW19688   4.690   6.945   6.852  0.1133 -0.0869 -0.3111
 5599SOL    HW119689   4.595   6.936   6.862  0.0668  0.9695  0.4120
 5599SOL    HW219690   4.714   7.012   6.917  1.2874 -0.0363 -0.7810
 5600SOL     OW19691   8.017   1.144   5.510 -0.3262 -0.6697 -0.4257
 5600SOL    HW119692   7.940   1.091   5.491 -0.9044  0.5666 -1.7302
 5600SOL    HW219693   7.988   1.207   5.576 -0.4311 -0.2664 -0.8462
 5601SOL     OW19694   4.026   3.431   9.092  0.3665 -0.1892 -0.0222
 5601SOL    HW119695   3.973   3.481   9.154 -0.7460  0.5169 -1.5047
 5601SOL    HW219696   3.966   3.367   9.055  1.0637 -0.7054 -0.2820
 5602SOL     OW19697   3.037   4.013   7.362  0.0839  0.3608  0.5982
 5602SOL    HW119698   3.058   4.092   7.311  0.4319  1.0097  1.6990
 5602SOL    HW219699   3.008   3.950   7.298 -0.8049  1.5969 -0.2533
 5603SOL     OW19700   4.569   8.687   3.803  0.3818 -0.0347 -0.2057
 5603SOL    HW119701   4.476   8.706   3.786  0.6265 -1.0985 -3.3505
 5603SOL    HW219702   4.568   8.612   3.861 -0.7836 -0.6264 -0.9490
 5604SOL     OW19703   0.412   3.671   4.822  0.6311  0.0805 -0.1310
 5604SOL    HW119704   0.408   3.651   4.729  1.5311  2.0830 -0.6437
 5604SOL    HW219705   0.505   3.691   4.838  0.0623  2.3961  0.5733
 5605SOL     OW19706   5.885   2.640   0.870  0.0872  0.0733  0.3289
 5605SOL    HW119707   5.856   2.639   0.778  0.3267  0.3926  0.2474
 5605SOL    HW219708   5.939   2.719   0.877  0.8443 -0.4559  0.5069
 5606SOL     OW19709   3.271   3.941   5.610 -0.2282  0.4029 -0.4080
 5606SOL    HW119710   3.241   3.921   5.698 -0.1014  0.4493 -0.3522
 5606SOL    HW219711   3.227   3.878   5.553 -0.1647  0.2503 -0.2886
 5607SOL     OW19712   8.041   4.565   2.098 -0.0411  0.6378  0.4783
 5607SOL    HW119713   8.085   4.628   2.156  0.8232 -0.0157  0.5637
 5607SOL    HW219714   8.015   4.617   2.022  0.3416  1.1682  0.6993
 5608SOL     OW19715   0.876   3.317   8.007 -0.0547  0.2182  0.6007
 5608SOL    HW119716   0.858   3.312   8.101 -1.7482  2.1090  0.4358
 5608SOL    HW219717   0.893   3.410   7.991 -1.7189  0.2722 -1.2485
 5609SOL     OW19718   0.541   5.002   3.980 -0.3212  0.8353  0.0761
 5609SOL    HW119719   0.614   5.003   4.042  0.2452  4.1262 -0.4752
 5609SOL    HW219720   0.538   5.091   3.945 -3.9644  0.5647 -0.6951
 5610SOL     OW19721   8.648   7.801   0.185  0.4126 -0.2358  0.5731
 5610SOL    HW119722   8.572   7.746   0.169 -1.3790  1.2833  3.2368
 5610SOL    HW219723   8.643   7.823   0.278  1.9911  2.9919  0.0274
 5611SOL     OW19724   3.992   8.158   0.218  0.0631  0.4626 -0.4068
 5611SOL    HW119725   3.973   8.176   0.125  0.2877 -0.1835 -0.5884
 5611SOL    HW219726   4.039   8.235   0.249 -0.9446  1.1586 -0.5351
 5612SOL     OW19727   9.599   4.386   2.146  0.1652  0.6516 -0.1426
 5612SOL    HW119728   9.599   4.290   2.136  0.3338  0.5639  0.6898
 5612SOL    HW219729   9.563   4.401   2.233  2.7749  1.2180  0.9271
 5613SOL     OW19730   8.825   3.891   8.720 -0.1079 -0.5570  0.1549
 5613SOL    HW119731   8.746   3.932   8.685 -1.1368 -1.8005  0.9086
 5613SOL    HW219732   8.795   3.845   8.799  1.9149  1.3076  2.1291
 5614SOL     OW19733   3.921   6.182   3.182  0.5659 -0.0722  0.0131
 5614SOL    HW119734   3.830   6.152   3.182 -0.1827  1.7398  2.7893
 5614SOL    HW219735   3.930   6.231   3.100 -0.3745 -1.7038 -1.1251
 5615SOL     OW19736   2.152   8.935   0.215  0.1030  0.4980  0.4446
 5615SOL    HW119737   2.149   8.893   0.301 -0.0786  2.6380  1.5658
 5615SOL    HW219738   2.215   9.007   0.226 -0.3865  1.1932 -1.0183
 5616SOL     OW19739   7.484   8.489   1.151  0.0586  0.2214  0.3040
 5616SOL    HW119740   7.499   8.579   1.122  1.7954  0.0638  0.6210
 5616SOL    HW219741   7.571   8.449   1.152 -0.7483 -1.6615 -0.4269
 5617SOL     OW19742   9.366   6.823   3.058  0.2292  0.6155  0.2432
 5617SOL    HW119743   9.458   6.811   3.082  0.1379 -1.8577 -0.3686
 5617SOL    HW219744   9.319   6.823   3.141  0.7195  1.1474  0.5233
 5618SOL     OW19745   2.716   7.549   0.725 -0.3721 -0.1554  0.1944
 5618SOL    HW119746   2.717   7.604   0.803 -1.0260 -1.1219  0.9197
 5618SOL    HW219747   2.692   7.608   0.654  1.0050  0.9102  0.5785
 5619SOL     OW19748   9.366   5.194   6.495  0.3528  0.0045 -0.3899
 5619SOL    HW119749   9.365   5.102   6.471 -0.0652  0.2091 -1.1759
 5619SOL    HW219750   9.436   5.232   6.442  0.4357  0.1673 -0.1651
 5620SOL     OW19751   8.636   0.072   5.602  0.0059 -0.1041 -0.5877
 5620SOL    HW119752   8.607   0.127   5.675  2.1973  2.1124 -1.2384
 5620SOL    HW219753   8.557   0.029   5.571 -1.1700 -0.3607  2.4297
 5621SOL     OW19754   9.579   9.517   5.399 -0.2292 -0.8686 -0.7069
 5621SOL    HW119755   9.570   9.467   5.318 -1.6945  1.1376 -1.8641
 5621SOL    HW219756   9.493   9.511   5.441 -0.1481 -0.0967 -0.4130
 5622SOL     OW19757   3.610   7.815   2.743 -0.2926 -0.0410 -0.2855
 5622SOL    HW119758   3.539   7.794   2.803  0.0171  1.0506  0.5026
 5622SOL    HW219759   3.597   7.907   2.721 -0.5102 -0.4619 -2.0766
 5623SOL     OW19760   3.015   7.863   5.750 -0.6581  0.0972 -0.5391
 5623SOL    HW119761   3.064   7.784   5.728 -2.6159 -0.9434 -1.3838
 5623SOL    HW219762   2.998   7.856   5.844  0.8222  0.5321 -0.2071
 5624SOL     OW19763   6.981   4.037   7.916 -0.0926  0.0852 -0.0108
 5624SOL    HW119764   6.962   4.010   7.826 -1.4192  1.3304 -0.1466
 5624SOL    HW219765   6.895   4.038   7.959 -0.0543  3.0109  0.2336
 5625SOL     OW19766   9.397   4.691   8.240  0.1957 -0.8754 -0.2053
 5625SOL    HW119767   9.449   4.742   8.301  3.4085 -3.2653 -0.6946
 5625SOL    HW219768   9.320   4.664   8.291 -0.1244  1.7968  0.9121
 5626SOL     OW19769   8.860   3.055   5.316 -0.0280  0.7485 -0.0367
 5626SOL    HW119770   8.909   3.013   5.386 -1.6983 -1.8223 -0.2892
 5626SOL    HW219771   8.915   3.043   5.238 -0.1591 -0.4107  0.0310
 5627SOL     OW19772   2.564   3.727   2.362  0.1695  0.1735  0.0371
 5627SOL    HW119773   2.489   3.675   2.389  0.2949  0.6810  1.4376
 5627SOL    HW219774   2.529   3.815   2.348  0.2878  0.1376 -0.5102
 5628SOL     OW19775   2.933   5.045   0.739 -0.1977  0.2387 -0.3188
 5628SOL    HW119776   2.977   5.008   0.815  0.1619  0.2818 -0.5059
 5628SOL    HW219777   2.907   5.133   0.768 -1.1258 -0.1740  0.1519
 5629SOL     OW19778   4.601   5.226   8.000  0.4765 -0.2415 -0.3603
 5629SOL    HW119779   4.540   5.281   8.049  0.4501  0.7167 -1.4433
 5629SOL    HW219780   4.593   5.140   8.041 -0.8127  0.1239  0.2115
 5630SOL     OW19781   0.597   4.599   0.334  0.8051  0.5520  0.3892
 5630SOL    HW119782   0.688   4.605   0.363  0.4772  1.1340  1.3504
 5630SOL    HW219783   0.597   4.529   0.269  1.8094  0.0671  0.8917
 5631SOL     OW19784   2.564   7.001   0.129  0.1333  0.1910  0.1509
 5631SOL    HW119785   2.544   6.975   0.039  0.0203  2.2957 -0.5029
 5631SOL    HW219786   2.514   7.082   0.142  0.6996  0.3180  1.8767
 5632SOL     OW19787   0.006   1.418   5.494  0.0279 -0.1001  0.0359
 5632SOL    HW119788  -0.045   1.445   5.570 -1.1119 -0.1169 -0.6976
 5632SOL    HW219789   0.018   1.324   5.505  0.5612  0.0264  0.5880
 5633SOL     OW19790   2.620   0.705   2.336  0.4602  0.3241 -0.1581
 5633SOL    HW119791   2.654   0.703   2.426  2.2200 -0.4078 -0.7892
 5633SOL    HW219792   2.594   0.796   2.323 -2.8366 -0.1447  2.0742
 5634SOL     OW19793   0.425   4.825   7.540 -0.4949  0.3950  0.5951
 5634SOL    HW119794   0.348   4.868   7.502 -0.3320  0.4404  0.3144
 5634SOL    HW219795   0.418   4.843   7.634  0.5395  2.6635  0.3159
 5635SOL     OW19796   0.476   8.901   6.562 -0.1138 -0.0859  0.2726
 5635SOL    HW119797   0.495   8.853   6.481  1.2929 -1.1290  1.1778
 5635SOL    HW219798   0.396   8.861   6.595  1.0458 -1.8991  1.0182
 5636SOL     OW19799   3.087   8.870   7.052 -0.2206  0.4501 -0.3428
 5636SOL    HW119800   3.054   8.896   7.138 -2.3333 -0.6359 -0.7670
 5636SOL    HW219801   3.128   8.949   7.018  1.1806  0.7706  1.8406
 5637SOL     OW19802   3.843   1.178   6.534  0.4005  0.5697  0.2545
 5637SOL    HW119803   3.913   1.218   6.483  0.3664 -0.2402 -0.4273
 5637SOL    HW219804   3.830   1.239   6.608  0.3551  1.8209 -0.7503
 5638SOL     OW19805   9.057   9.184   7.364 -0.1256 -0.1037 -0.3125
 5638SOL    HW119806   9.129   9.207   7.306  0.3671 -1.7127 -0.3883
 5638SOL    HW219807   8.992   9.144   7.306 -0.3636 -0.1642 -0.0028
 5639SOL     OW19808   0.036   5.059   0.766 -0.6633  0.5391 -0.3695
 5639SOL    HW119809   0.093   5.105   0.703 -1.5103  0.4454 -1.2163
 5639SOL    HW219810  -0.025   5.126   0.795 -0.2965  0.5720  0.3435
 5640SOL     OW19811   1.101   3.207   0.225 -0.0218  0.2665 -0.1488
 5640SOL    HW119812   1.046   3.140   0.185  0.6419 -0.1857 -0.3268
 5640SOL    HW219813   1.102   3.184   0.318  0.1626  0.0478 -0.2015
 5641SOL     OW19814   5.095   8.916   5.687 -0.6140  0.2095 -0.1440
 5641SOL    HW119815   5.102   8.855   5.760  0.5318 -0.6566 -0.9345
 5641SOL    HW219816   5.145   8.993   5.715  1.3634 -0.8190 -0.6506
 5642SOL     OW19817   0.114   1.547   0.770  0.2338  0.4047 -0.2490
 5642SOL    HW119818   0.020   1.547   0.754  0.1314  0.0192  0.3309
 5642SOL    HW219819   0.153   1.538   0.683 -0.2794 -0.1888 -0.4237
 5643SOL     OW19820   5.599   2.094   8.566 -0.0901 -0.2670 -0.0519
 5643SOL    HW119821   5.601   2.031   8.638 -0.7752 -0.1153  0.1068
 5643SOL    HW219822   5.642   2.172   8.601 -2.9533  0.8617  1.2461
 5644SOL     OW19823   5.413   1.868   3.166  0.4608 -0.6807 -0.0103
 5644SOL    HW119824   5.466   1.915   3.230  2.6445 -1.0563 -1.4270
 5644SOL    HW219825   5.335   1.923   3.154  0.8069  0.2363  1.6849
 5645SOL     OW19826   8.457   2.206   6.736  0.3584  0.5888  0.2624
 5645SOL    HW119827   8.419   2.224   6.822 -0.9784 -0.1036 -0.1596
 5645SOL    HW219828   8.414   2.267   6.677 -0.7946 -0.7765 -0.3722
 5646SOL     OW19829   1.353   8.019   6.923 -0.1665  0.2462 -0.4852
 5646SOL    HW119830   1.447   7.998   6.928 -0.3802 -0.4463  2.2498
 5646SOL    HW219831   1.351   8.113   6.907  1.0014  0.3069 -0.3862
 5647SOL     OW19832   2.261   2.350   1.734 -0.4194 -0.3597  0.3060
 5647SOL    HW119833   2.278   2.357   1.640  0.4255 -1.1857  0.3873
 5647SOL    HW219834   2.325   2.286   1.766 -2.3561 -2.0820  0.9893
 5648SOL     OW19835   0.671   9.406   3.828 -0.1659 -0.3698 -0.0456
 5648SOL    HW119836   0.609   9.342   3.865  0.6435  0.6828  3.5115
 5648SOL    HW219837   0.621   9.487   3.822  0.2705 -0.0424  0.7171
 5649SOL     OW19838   9.017   3.267   3.289  0.4605  0.4088 -0.1865
 5649SOL    HW119839   9.107   3.245   3.314  0.6609  0.4588 -0.8290
 5649SOL    HW219840   8.993   3.340   3.345  0.6184  0.0324  0.3785
 5650SOL     OW19841   4.017   0.583   5.822 -0.2268  0.4572  0.1222
 5650SOL    HW119842   3.964   0.662   5.819 -0.1872  0.4610 -1.1226
 5650SOL    HW219843   4.010   0.552   5.913 -1.7237  0.8796  0.1742
 5651SOL     OW19844   8.023   8.197   1.689  0.2243 -0.3502 -0.1551
 5651SOL    HW119845   8.001   8.206   1.782 -1.2872  0.5498 -0.5757
 5651SOL    HW219846   8.118   8.213   1.686  0.9270 -3.3536  1.5825
 5652SOL     OW19847   0.521   7.629   6.624 -0.5685  0.1335  0.5129
 5652SOL    HW119848   0.448   7.593   6.674 -0.6164  0.6532  0.8216
 5652SOL    HW219849   0.557   7.697   6.680 -1.7243  1.9635 -0.8436
 5653SOL     OW19850   2.218   5.331   4.398 -0.6260 -0.4009 -0.0267
 5653SOL    HW119851   2.163   5.406   4.374  0.2050  0.4865  0.7019
 5653SOL    HW219852   2.290   5.334   4.335 -1.6845 -1.9262 -1.3651
 5654SOL     OW19853   0.008   3.376   0.604  0.2333 -0.0059  0.1393
 5654SOL    HW119854  -0.005   3.371   0.699  1.6189 -1.1209  0.3154
 5654SOL    HW219855  -0.041   3.302   0.569  0.6036 -0.2343  0.1018
 5655SOL     OW19856   6.549   7.886   1.997 -0.0043  0.1254  0.0625
 5655SOL    HW119857   6.478   7.823   2.006 -0.1540  0.5449  2.6192
 5655SOL    HW219858   6.577   7.879   1.906 -0.2805 -3.3114  0.1313
 5656SOL     OW19859   4.679   1.155   6.311  0.2079 -0.0958 -0.3115
 5656SOL    HW119860   4.714   1.237   6.344 -0.5083 -0.4794  1.5094
 5656SOL    HW219861   4.719   1.088   6.366 -0.9805 -0.7802 -0.2516
 5657SOL     OW19862   1.760   7.755   5.127 -0.0721 -0.2330 -0.1942
 5657SOL    HW119863   1.697   7.731   5.195 -0.6717  0.1639 -0.5876
 5657SOL    HW219864   1.785   7.673   5.086  0.6562 -0.5185  0.8140
 5658SOL     OW19865   6.134   4.709   0.344  0.1770  0.3440  0.5969
 5658SOL    HW119866   6.145   4.708   0.249  0.0033 -1.3455  0.5656
 5658SOL    HW219867   6.085   4.789   0.362 -0.9230  0.0371 -0.8681
 5659SOL     OW19868   7.202   3.545   1.969 -0.1221 -0.2213 -0.7775
 5659SOL    HW119869   7.162   3.460   1.957  3.8665 -2.5907  0.6400
 5659SOL    HW219870   7.192   3.564   2.062 -2.8968  2.1607 -1.3969
 5660SOL     OW19871   4.231   7.474   9.586 -0.3859 -0.0559 -0.1133
 5660SOL    HW119872   4.200   7.390   9.620 -0.9316  0.4865  0.7432
 5660SOL    HW219873   4.152   7.525   9.569 -0.0929  0.0093 -1.4003
 5661SOL     OW19874   2.915   0.093   2.544  0.2947 -0.3229 -0.0396
 5661SOL    HW119875   2.879   0.122   2.628  0.7851 -0.3938  0.2020
 5661SOL    HW219876   2.880   0.154   2.480 -1.2982 -1.1584 -0.0087
 5662SOL     OW19877   2.623   9.379   0.743 -0.1596  0.1895 -0.2961
 5662SOL    HW119878   2.671   9.443   0.691  1.4988  0.3976  1.3878
 5662SOL    HW219879   2.674   9.298   0.734 -0.1440  0.0994  0.5713
 5663SOL     OW19880   7.090   1.711   3.583  0.3990 -0.0930  0.1354
 5663SOL    HW119881   7.134   1.795   3.576 -1.0999  0.6037 -1.8836
 5663SOL    HW219882   7.161   1.646   3.574  1.2591  0.9789 -1.3536
 5664SOL     OW19883   7.769   5.257   8.404  0.1644  0.2091 -0.3791
 5664SOL    HW119884   7.686   5.258   8.355 -1.4930 -3.3052  1.9425
 5664SOL    HW219885   7.742   5.258   8.496  2.9084  1.3296  0.5099
 5665SOL     OW19886   3.282   8.587   1.426  0.2953  0.1891 -0.5813
 5665SOL    HW119887   3.377   8.583   1.413  1.1731 -0.4804  4.1418
 5665SOL    HW219888   3.253   8.497   1.414  0.9677 -0.3148  1.1765
 5666SOL     OW19889   9.515   8.307   7.990 -0.2481  0.5074  0.0535
 5666SOL    HW119890   9.511   8.246   8.064 -0.7052  0.8190  0.2843
 5666SOL    HW219891   9.479   8.389   8.023 -1.0457  0.4778 -0.6841
 5667SOL     OW19892   7.213   4.217   4.956 -0.8254  0.5387  0.0730
 5667SOL    HW119893   7.237   4.308   4.939  3.6178 -0.7106 -1.9511
 5667SOL    HW219894   7.281   4.185   5.015 -1.1550 -1.8791 -0.7484
 5668SOL     OW19895   3.287   0.676   5.357 -0.3756 -0.2119  0.6038
 5668SOL    HW119896   3.216   0.709   5.412  0.0598  2.3419 -0.2167
 5668SOL    HW219897   3.365   0.681   5.413 -0.4287 -0.5809  0.7121
 5669SOL     OW19898   5.236   1.209   0.796 -0.1175  0.6115  0.4280
 5669SOL    HW119899   5.183   1.215   0.717  2.0642  0.4540 -1.1493
 5669SOL    HW219900   5.258   1.300   0.817  1.0918  0.5567 -0.4896
 5670SOL     OW19901   4.687   5.517   1.107 -0.0451  0.5351  0.2469
 5670SOL    HW119902   4.678   5.442   1.165  0.2744 -1.1838 -1.8128
 5670SOL    HW219903   4.600   5.557   1.106 -1.6958 -2.6847 -2.2497
 5671SOL     OW19904   9.447   4.806   4.488 -0.0971  0.7580 -0.0939
 5671SOL    HW119905   9.387   4.733   4.473  0.2169  0.3321  0.7083
 5671SOL    HW219906   9.479   4.794   4.577  3.1898 -0.5088 -1.3070
 5672SOL     OW19907   5.859   7.769   3.704  0.0369 -0.2356 -0.0599
 5672SOL    HW119908   5.835   7.752   3.795 -0.0756  1.4653  0.2604
 5672SOL    HW219909   5.854   7.864   3.695  2.2305 -0.1549 -1.2169
 5673SOL     OW19910   1.683   7.447   2.563  1.0443 -0.4603 -0.2804
 5673SOL    HW119911   1.778   7.435   2.564  1.2434  0.9411  1.1948
 5673SOL    HW219912   1.664   7.481   2.475  1.8084 -1.2385 -0.7642
 5674SOL     OW19913   8.490   7.877   9.437 -0.2189 -0.0456 -0.3271
 5674SOL    HW119914   8.478   7.961   9.482 -2.3870 -1.6709  2.4293
 5674SOL    HW219915   8.542   7.825   9.498  0.0208 -1.1237 -1.4257
 5675SOL     OW19916   1.885   5.959   4.424  0.0256 -0.6372  0.4810
 5675SOL    HW119917   1.850   5.985   4.509 -0.0062  0.3935  0.1564
 5675SOL    HW219918   1.927   5.874   4.441 -1.8686 -1.5237  1.0524
 5676SOL     OW19919   0.036   5.269   2.166  0.1952 -0.1580 -0.4279
 5676SOL    HW119920   0.021   5.216   2.245  0.5761 -0.3170 -0.4585
 5676SOL    HW219921   0.074   5.208   2.103 -0.3777 -0.1018 -0.8404
 5677SOL     OW19922   1.407   3.377   0.259 -0.1500 -0.0682  0.1234
 5677SOL    HW119923   1.348   3.449   0.236 -1.7870 -1.6299 -0.8374
 5677SOL    HW219924   1.408   3.321   0.181  1.5211 -0.8170  0.6466
 5678SOL     OW19925   4.816   6.966   8.121  0.3787  0.1195 -0.1645
 5678SOL    HW119926   4.885   6.907   8.150  0.5541  0.2695 -0.2749
 5678SOL    HW219927   4.843   7.052   8.152 -0.1445  0.0634  0.4669
 5679SOL     OW19928   8.757   3.893   0.879  1.0294 -0.4899 -0.5068
 5679SOL    HW119929   8.716   3.873   0.795 -2.2731 -0.4006  0.9290
 5679SOL    HW219930   8.738   3.816   0.933  1.1246  0.3610  0.7633
 5680SOL     OW19931   2.996   5.016   3.201 -0.3387 -0.1425 -0.6108
 5680SOL    HW119932   3.028   4.959   3.131 -2.2905 -1.6441 -0.3689
 5680SOL    HW219933   3.042   4.986   3.279 -0.5811 -0.7162 -0.6783
 5681SOL     OW19934   3.068   2.716   3.727 -0.0657 -0.7578  0.3650
 5681SOL    HW119935   3.050   2.669   3.646  0.5324 -2.7532  1.3099
 5681SOL    HW219936   3.162   2.708   3.740 -0.2958 -1.5760  1.8426
 5682SOL     OW19937   8.419   7.001   2.217 -0.0939  0.1009  0.0173
 5682SOL    HW119938   8.467   7.077   2.184 -1.3236 -0.2142 -2.7779
 5682SOL    HW219939   8.439   6.931   2.155 -0.9622 -1.1604  1.1033
 5683SOL     OW19940   9.087   7.966   0.420 -0.1373 -0.5323 -0.1905
 5683SOL    HW119941   9.108   7.879   0.386 -0.3044 -0.6032 -0.1090
 5683SOL    HW219942   9.166   7.993   0.466  0.6232  0.1320 -1.7761
 5684SOL     OW19943   8.811   1.866   4.022  0.2903 -0.0810 -0.1374
 5684SOL    HW119944   8.794   1.932   4.090 -0.4086 -1.4625  1.0729
 5684SOL    HW219945   8.739   1.804   4.030 -0.2401  0.1036 -2.7086
 5685SOL     OW19946   7.905   9.073   0.308 -0.0517 -0.3936  0.0477
 5685SOL    HW119947   7.846   9.145   0.287  0.8812 -0.0359 -1.5182
 5685SOL    HW219948   7.861   9.025   0.378 -2.2364 -0.2106 -1.1270
 5686SOL     OW19949   0.755   6.831   3.156 -0.0081  0.2813  0.5880
 5686SOL    HW119950   0.787   6.902   3.100 -1.3463  2.2075  2.1298
 5686SOL    HW219951   0.686   6.871   3.208 -0.9601 -2.2389  1.4155
 5687SOL     OW19952   5.469   5.017   6.666  0.2947 -0.6053  0.4823
 5687SOL    HW119953   5.389   5.057   6.633 -0.9060  0.6811  4.3667
 5687SOL    HW219954   5.441   4.931   6.697  0.9972 -1.1045 -0.2303
 5688SOL     OW19955   5.146   8.679   5.561 -0.7804 -0.0692 -0.5224
 5688SOL    HW119956   5.099   8.751   5.602  1.9143 -0.1299  3.1944
 5688SOL    HW219957   5.101   8.600   5.592 -0.5907 -0.0548 -0.2055
 5689SOL     OW19958   2.537   6.384   4.365  0.2046 -0.1613 -0.4872
 5689SOL    HW119959   2.448   6.349   4.369  0.1295  0.0858  0.1352
 5689SOL    HW219960   2.584   6.337   4.434  0.4016  0.1414 -0.4151
 5690SOL     OW19961   7.516   4.055   6.080  0.0507  0.2588 -0.0084
 5690SOL    HW119962   7.427   4.079   6.055 -0.2544 -0.8315 -0.0077
 5690SOL    HW219963   7.510   3.963   6.105  0.8956  0.5489  1.3963
 5691SOL     OW19964   8.441   9.291   4.580 -0.8578  0.3884 -0.3009
 5691SOL    HW119965   8.489   9.310   4.660 -2.1026  0.8939  0.3403
 5691SOL    HW219966   8.468   9.361   4.519  0.1478 -0.0447 -0.3763
 5692SOL     OW19967   1.811   8.749   6.364 -0.1717 -0.5283  0.2168
 5692SOL    HW119968   1.763   8.801   6.429  0.1804 -2.3292  2.0407
 5692SOL    HW219969   1.895   8.730   6.406  1.0091  0.1123 -1.7289
 5693SOL     OW19970   4.316   2.133   1.903  0.0631  0.3340 -0.1157
 5693SOL    HW119971   4.234   2.128   1.953 -0.0577  0.2645 -0.3226
 5693SOL    HW219972   4.382   2.104   1.966  0.0566  1.2668  0.3378
 5694SOL     OW19973   8.239   4.215   7.114 -0.7095 -0.1707  0.1917
 5694SOL    HW119974   8.269   4.126   7.098  1.3944  0.5601 -0.3523
 5694SOL    HW219975   8.186   4.210   7.193 -1.3880 -2.0228 -0.3350
 5695SOL     OW19976   6.639   3.998   5.275 -0.5562 -0.0562 -0.1066
 5695SOL    HW119977   6.720   4.022   5.231 -0.3692  0.8718  0.7067
 5695SOL    HW219978   6.668   3.957   5.357 -0.8680  1.6593  0.9184
 5696SOL     OW19979   7.671   6.184   9.400 -0.3139 -0.1037 -0.2879
 5696SOL    HW119980   7.597   6.241   9.380 -1.7821 -2.1428 -0.9495
 5696SOL    HW219981   7.640   6.096   9.379  2.0589 -1.1109  0.1347
 5697SOL     OW19982   2.494   4.032   8.978 -0.1471 -0.7730  0.3290
 5697SOL    HW119983   2.519   3.945   8.947  0.7497 -0.7879  1.0549
 5697SOL    HW219984   2.546   4.092   8.924 -1.0673 -0.6595 -0.4503
 5698SOL     OW19985   1.541   1.310   7.404 -0.4845  0.6496  0.0662
 5698SOL    HW119986   1.594   1.230   7.405  1.0227  1.5071  3.6185
 5698SOL    HW219987   1.590   1.371   7.348  0.0857  0.1062 -0.0343
 5699SOL     OW19988   8.225   0.238   5.592 -0.1106  0.1910 -0.9130
 5699SOL    HW119989   8.150   0.248   5.650  1.8302  2.3132  1.4796
 5699SOL    HW219990   8.200   0.284   5.512 -0.9550  1.9346  0.2925
 5700SOL     OW19991   9.245   2.761   7.087  0.3831 -0.4195  0.4403
 5700SOL    HW119992   9.169   2.717   7.124  0.1505 -0.0742  0.3729
 5700SOL    HW219993   9.213   2.846   7.059  0.2572 -1.1353 -1.7370
 5701SOL     OW19994   0.817   8.347   5.967 -0.2729  0.1149 -0.2942
 5701SOL    HW119995   0.759   8.375   5.896 -1.0885 -0.5035  0.1027
 5701SOL    HW219996   0.878   8.286   5.926 -0.2000  0.4142 -0.6308
 5702SOL     OW19997   4.514   5.243   6.574 -0.2139  0.0267 -0.4586
 5702SOL    HW119998   4.568   5.230   6.652 -2.5759 -1.1982  1.0831
 5702SOL    HW219999   4.527   5.165   6.522  0.1680  0.1317 -0.5218
 5703SOL     OW20000   2.365   9.265   2.581 -0.5572  0.5279  0.2740
 5703SOL    HW120001   2.365   9.338   2.642 -1.3202  0.9572 -0.2170
 5703SOL    HW220002   2.319   9.195   2.627 -1.0492  0.8220  0.2352
 5704SOL     OW20003   6.040   2.326   6.776  0.8765 -0.0475 -0.3440
 5704SOL    HW120004   6.080   2.251   6.819  0.4424  0.0377  0.2111
 5704SOL    HW220005   6.104   2.353   6.709  2.1948  0.6994  1.1596
 5705SOL     OW20006   8.699   7.836   3.376  0.5157 -0.3293  0.5503
 5705SOL    HW120007   8.616   7.819   3.332  0.2248  1.3053  0.4187
 5705SOL    HW220008   8.705   7.768   3.443  0.1154 -1.7714 -0.8151
 5706SOL     OW20009   8.855   4.764   8.756 -0.2397 -0.0861  0.5489
 5706SOL    HW120010   8.945   4.751   8.786 -0.0481 -0.7213 -0.2639
 5706SOL    HW220011   8.859   4.841   8.700  0.5037 -1.9284 -2.1459
 5707SOL     OW20012   1.417   8.195   3.678 -0.0319 -0.2247  0.9070
 5707SOL    HW120013   1.478   8.216   3.749  1.7714  0.5763 -0.7996
 5707SOL    HW220014   1.388   8.106   3.697  0.1631  0.0649  2.7795
 5708SOL     OW20015   3.822   1.483   7.409 -0.3884  0.1594  0.4761
 5708SOL    HW120016   3.767   1.415   7.447 -1.5116  0.5321 -0.4126
 5708SOL    HW220017   3.902   1.438   7.382 -1.5841 -1.1074 -1.1947
 5709SOL     OW20018   4.107   8.077   6.497  0.3290 -0.1410  0.4425
 5709SOL    HW120019   4.077   8.135   6.428 -1.1288 -0.1349  1.0517
 5709SOL    HW220020   4.067   7.992   6.477  0.8135 -0.4282  0.6609
 5710SOL     OW20021   7.962   5.503   3.101  1.0768  0.1566 -0.0711
 5710SOL    HW120022   7.969   5.410   3.122  1.1356 -0.4156 -2.2943
 5710SOL    HW220023   8.051   5.528   3.075  0.8579  0.5436 -0.4652
 5711SOL     OW20024   3.833   5.173   0.937  0.3362  0.0244 -0.3615
 5711SOL    HW120025   3.873   5.177   0.850  3.3547  1.3808  0.9248
 5711SOL    HW220026   3.872   5.095   0.978  0.6355  0.5945  0.4673
 5712SOL     OW20027   8.602   4.814   4.364  0.2015  0.4944  0.1939
 5712SOL    HW120028   8.529   4.789   4.421  0.1388  0.0162 -0.0947
 5712SOL    HW220029   8.676   4.825   4.423 -0.6014  3.3442  0.8594
 5713SOL     OW20030   9.503   7.467   2.927  0.3908 -0.1556 -0.4890
 5713SOL    HW120031   9.498   7.493   2.835  2.5424  0.6404 -0.4367
 5713SOL    HW220032   9.530   7.375   2.924  1.9792  0.2789 -0.7084
 5714SOL     OW20033   8.954   8.003   1.435  0.7595 -0.2873 -0.1410
 5714SOL    HW120034   8.995   8.020   1.519  0.4864  0.7385 -0.1995
 5714SOL    HW220035   8.979   8.078   1.380  0.3059 -0.5553 -0.7304
 5715SOL     OW20036   7.053   7.580   8.261  0.5196 -0.3823 -0.3214
 5715SOL    HW120037   7.102   7.536   8.192  0.5606  1.6176 -1.6362
 5715SOL    HW220038   7.010   7.653   8.218 -1.8907 -0.7742  1.2259
 5716SOL     OW20039   2.051   2.973   6.881 -0.0789  0.8916 -0.7909
 5716SOL    HW120040   2.115   2.908   6.853  0.7034  1.8006 -1.1455
 5716SOL    HW220041   2.103   3.043   6.921 -0.9560  1.0002  0.2020
 5717SOL     OW20042   4.561   3.412   6.967  0.6783 -0.0772 -0.1838
 5717SOL    HW120043   4.535   3.451   6.883 -0.5351 -2.0767 -0.8012
 5717SOL    HW220044   4.496   3.445   7.029  1.5320  1.3435  0.0158
 5718SOL     OW20045   2.781   5.883   2.043 -0.2411  0.0176  0.2999
 5718SOL    HW120046   2.797   5.798   2.003 -0.1236  0.4738 -0.6556
 5718SOL    HW220047   2.838   5.943   1.995 -1.0186  0.7952  0.3237
 5719SOL     OW20048   6.155   7.552   8.799  0.6541  0.2955 -0.3968
 5719SOL    HW120049   6.237   7.601   8.797  1.0386 -0.3214 -0.1108
 5719SOL    HW220050   6.087   7.618   8.782  0.8391  1.5749  2.9630
 5720SOL     OW20051   1.522   3.924   6.802  0.2058  0.1883  0.2237
 5720SOL    HW120052   1.540   4.015   6.776  1.1678 -0.0499  0.0121
 5720SOL    HW220053   1.546   3.921   6.894  1.0692 -0.0746 -0.0021
 5721SOL     OW20054   9.071   1.073   1.084  0.3910 -0.0261  0.1981
 5721SOL    HW120055   9.122   1.060   1.164  1.5894  1.4934 -0.2536
 5721SOL    HW220056   9.136   1.102   1.020 -1.1392  3.2923 -0.0644
 5722SOL     OW20057   8.132   5.387   6.962 -0.3980 -0.2702 -0.1039
 5722SOL    HW120058   8.188   5.371   7.038 -0.5262 -0.5992 -0.0776
 5722SOL    HW220059   8.119   5.301   6.923 -0.5252 -0.1345 -0.3654
 5723SOL     OW20060   3.702   7.763   6.380  0.2390  0.0510 -0.0553
 5723SOL    HW120061   3.683   7.822   6.453 -0.0301 -0.4864  0.3208
 5723SOL    HW220062   3.757   7.814   6.321  0.3464  0.5409  0.4607
 5724SOL     OW20063   3.933   7.995   6.713 -0.2811  0.2874  0.2533
 5724SOL    HW120064   3.975   7.910   6.729 -0.3934  0.3252  0.7457
 5724SOL    HW220065   3.887   7.984   6.630 -0.6715 -0.2791  0.5398
 5725SOL     OW20066   8.303   1.616   0.598 -0.4288  0.2217  0.0417
 5725SOL    HW120067   8.250   1.569   0.662 -0.5487  0.3632  0.0462
 5725SOL    HW220068   8.363   1.549   0.563 -0.4242  0.1247  0.2339
 5726SOL     OW20069   6.414   8.018   4.591  0.1925 -0.2465  0.7014
 5726SOL    HW120070   6.449   7.996   4.505  0.6242  1.3860  0.4204
 5726SOL    HW220071   6.333   8.066   4.573  1.4220  2.1278  1.0443
 5727SOL     OW20072   9.215   7.946   1.767 -0.0458  0.2218 -0.8251
 5727SOL    HW120073   9.256   7.977   1.848  1.6338 -0.1060 -1.5189
 5727SOL    HW220074   9.219   7.851   1.773  2.4963  0.1401 -2.3852
 5728SOL     OW20075   7.658   9.306   4.810 -0.5039  0.0784 -0.6055
 5728SOL    HW120076   7.591   9.273   4.751 -0.0446 -0.6955 -0.7099
 5728SOL    HW220077   7.656   9.246   4.885  1.6264 -1.4287 -1.6365
 5729SOL     OW20078   2.578   4.802   1.475  0.0826  0.2199 -0.2482
 5729SOL    HW120079   2.596   4.818   1.382 -1.5322  0.3303 -0.5786
 5729SOL    HW220080   2.496   4.850   1.492 -0.4315 -0.9877  0.8480
 5730SOL     OW20081   6.556   9.344   3.142 -0.2525 -0.2441  0.0536
 5730SOL    HW120082   6.597   9.309   3.063 -2.4938 -0.9937 -0.8705
 5730SOL    HW220083   6.523   9.266   3.188  1.1792  0.1571  1.8820
 5731SOL     OW20084   2.349   2.125   0.073  0.8024  0.2461 -0.4328
 5731SOL    HW120085   2.359   2.105  -0.020  1.5532 -0.3527 -0.2304
 5731SOL    HW220086   2.315   2.215   0.075  2.8605  1.0995 -1.2614
 5732SOL     OW20087   7.668   6.920   5.672 -0.0372  0.1762  0.3823
 5732SOL    HW120088   7.675   7.014   5.654  1.7135  0.1398  0.7865
 5732SOL    HW220089   7.690   6.878   5.589 -3.2179  0.0597 -0.5556
 5733SOL     OW20090   7.744   3.032   0.440 -0.8733  0.1156 -0.1912
 5733SOL    HW120091   7.734   2.951   0.390  0.6038  0.1899 -0.6622
 5733SOL    HW220092   7.735   3.006   0.531 -2.2420 -0.2553 -0.4156
 5734SOL     OW20093   2.530   1.295   3.768 -0.5768 -0.1353  0.0104
 5734SOL    HW120094   2.615   1.259   3.794  0.8301  1.8911 -1.4014
 5734SOL    HW220095   2.469   1.222   3.775  1.4060 -1.8461  0.4386
 5735SOL     OW20096   4.793   9.163   6.579 -0.4539  0.6417  0.4329
 5735SOL    HW120097   4.774   9.157   6.485 -1.2073 -1.0803  0.6640
 5735SOL    HW220098   4.879   9.122   6.589 -0.7623  0.0271  0.6008
 5736SOL     OW20099   2.051   1.647   4.225  0.0430 -0.1669 -0.5568
 5736SOL    HW120100   2.029   1.583   4.293  0.4821  0.4918  0.2189
 5736SOL    HW220101   1.980   1.711   4.227 -0.1388 -0.3490 -0.9886
 5737SOL     OW20102   9.328   9.313   2.810  0.2758  0.0734 -0.3696
 5737SOL    HW120103   9.242   9.289   2.845  0.2769  0.5613 -0.0227
 5737SOL    HW220104   9.324   9.289   2.717  0.1741 -0.9634 -0.1060
 5738SOL     OW20105   1.282   0.074   1.703  0.2791  0.0754  0.0043
 5738SOL    HW120106   1.311   0.162   1.682  2.1705 -1.1323 -3.1324
 5738SOL    HW220107   1.363   0.025   1.720 -0.3659 -1.8135 -1.9205
 5739SOL     OW20108   4.630   7.147   6.338  0.4725 -0.4048 -0.3183
 5739SOL    HW120109   4.557   7.156   6.399  0.8699 -0.7628  0.2114
 5739SOL    HW220110   4.707   7.176   6.387  0.4484  1.8846 -1.4691
 5740SOL     OW20111   4.681   9.494   8.931  0.5897 -0.1172  0.1783
 5740SOL    HW120112   4.629   9.414   8.922  0.0377  0.2690 -0.1210
 5740SOL    HW220113   4.624   9.554   8.979  1.1389 -0.0233  0.7252
 5741SOL     OW20114   8.884   2.219   0.599 -0.3168 -0.5340 -0.2631
 5741SOL    HW120115   8.789   2.207   0.609 -0.3774  0.8784  1.4236
 5741SOL    HW220116   8.904   2.183   0.513 -1.9374 -3.2547  0.3761
 5742SOL     OW20117   1.631   4.031   4.192  0.3683 -0.0210 -0.4794
 5742SOL    HW120118   1.663   4.120   4.204 -1.9724  0.7591  0.4006
 5742SOL    HW220119   1.547   4.029   4.237  1.0113 -3.1117  0.8428
 5743SOL     OW20120   7.208   5.307   2.714 -0.6308 -0.2792  0.4574
 5743SOL    HW120121   7.169   5.288   2.799 -1.4783 -0.3372  0.0683
 5743SOL    HW220122   7.136   5.295   2.652  0.1792 -1.0591 -0.3604
 5744SOL     OW20123   0.987   0.719   2.441 -0.3539 -0.2649  0.9419
 5744SOL    HW120124   1.082   0.712   2.429 -0.2617 -1.5132  2.2455
 5744SOL    HW220125   0.976   0.787   2.507 -0.4732  0.8955 -0.2238
 5745SOL     OW20126   5.903   7.110   8.378  0.5437 -0.1189  0.1426
 5745SOL    HW120127   5.846   7.038   8.353 -0.0887 -0.2272  1.7702
 5745SOL    HW220128   5.936   7.086   8.465  0.1938  1.6038  0.8002
 5746SOL     OW20129   5.100   0.381   0.149  0.0876  0.0401 -0.2381
 5746SOL    HW120130   5.124   0.290   0.160 -0.6080 -0.0925  0.2490
 5746SOL    HW220131   5.169   0.418   0.094  1.5374 -0.2484  1.3030
 5747SOL     OW20132   7.546   0.350   4.589  0.1767 -0.4118  0.0744
 5747SOL    HW120133   7.588   0.409   4.652  0.4369 -1.2109  0.6603
 5747SOL    HW220134   7.587   0.373   4.505 -0.8558  1.3238 -0.0056
 5748SOL     OW20135   5.373   7.520   0.351  0.1669 -0.4784 -0.3651
 5748SOL    HW120136   5.307   7.566   0.299  0.8746 -0.9449 -1.7076
 5748SOL    HW220137   5.420   7.466   0.288 -0.6498 -3.1004  1.1440
 5749SOL     OW20138   2.883   3.778   5.192  0.3776  0.2031 -0.4122
 5749SOL    HW120139   2.803   3.780   5.139  0.4404  1.1186 -0.4918
 5749SOL    HW220140   2.853   3.755   5.280  0.0695  0.1731 -0.5245
 5750SOL     OW20141   4.262   6.813   1.035  0.1218  0.3935 -0.2330
 5750SOL    HW120142   4.184   6.760   1.022 -1.3267  2.1013  0.9780
 5750SOL    HW220143   4.327   6.752   1.070 -1.2796 -0.7177  0.5509
 5751SOL     OW20144   5.801   0.905   9.321 -0.1528 -0.2517  0.2234
 5751SOL    HW120145   5.797   0.848   9.244  0.5747 -1.4849  1.0543
 5751SOL    HW220146   5.886   0.949   9.314  0.8390 -1.8605  1.2656
 5752SOL     OW20147   0.272   6.011   0.306 -0.0470 -0.0205 -0.4026
 5752SOL    HW120148   0.339   5.968   0.252  0.4683 -0.6774  0.7355
 5752SOL    HW220149   0.189   5.982   0.268  0.3044 -1.0353 -0.4195
 5753SOL     OW20150   7.449   4.896   3.915 -0.1226 -0.3558 -0.4914
 5753SOL    HW120151   7.483   4.940   3.992  0.1677 -2.3120  0.5609
 5753SOL    HW220152   7.371   4.850   3.946 -0.5649 -0.4071 -1.6095
 5754SOL     OW20153   7.812   3.074   4.359 -0.6091 -0.4744 -0.6438
 5754SOL    HW120154   7.825   3.065   4.265 -1.8640 -0.0029 -0.8771
 5754SOL    HW220155   7.862   3.002   4.397 -2.7937 -2.8007 -1.8580
 5755SOL     OW20156   1.733   8.952   6.582 -0.1178 -0.3708  0.4523
 5755SOL    HW120157   1.763   8.879   6.635 -1.6375 -1.2206  0.1997
 5755SOL    HW220158   1.644   8.969   6.613  0.3328  1.6865  0.8079
 5756SOL     OW20159   5.732   9.061   1.137  0.2906 -0.3398  0.4381
 5756SOL    HW120160   5.784   9.130   1.179 -1.5718  1.6054 -0.1993
 5756SOL    HW220161   5.653   9.107   1.108 -0.4835 -2.5432 -1.1655
 5757SOL     OW20162   0.410   2.020   1.875  0.2245  0.0301  0.8060
 5757SOL    HW120163   0.405   2.109   1.909  1.4655  0.5434 -0.3065
 5757SOL    HW220164   0.503   1.998   1.876  0.0937 -0.6774 -0.3595
 5758SOL     OW20165   8.846   0.953   4.060  0.7921 -0.1588 -0.0541
 5758SOL    HW120166   8.878   1.034   4.020 -1.5070  1.0438  0.3919
 5758SOL    HW220167   8.767   0.931   4.010 -0.7794  0.0539  2.1729
 5759SOL     OW20168   2.443   7.811   4.290  0.5971 -0.1455  0.3356
 5759SOL    HW120169   2.515   7.796   4.228  0.2798  1.5534 -0.5073
 5759SOL    HW220170   2.484   7.809   4.376  1.5580  0.2200 -0.1039
 5760SOL     OW20171   6.979   7.795   2.751 -0.2773 -0.1423  0.4427
 5760SOL    HW120172   6.922   7.812   2.826  0.4829 -0.8288  1.1982
 5760SOL    HW220173   7.001   7.881   2.716 -0.8055  0.1702  0.8745
 5761SOL     OW20174   0.347   2.731   5.092  0.4241 -0.0405  0.1120
 5761SOL    HW120175   0.381   2.645   5.117  0.1361 -0.0788  0.3863
 5761SOL    HW220176   0.374   2.742   5.001  4.0800  1.3806  1.1746
 5762SOL     OW20177   5.624   3.642   0.271 -0.3844 -0.1796  0.2342
 5762SOL    HW120178   5.660   3.723   0.308  0.2797 -0.5178  0.3314
 5762SOL    HW220179   5.546   3.624   0.324 -0.3941  0.2614  0.3721
 5763SOL     OW20180   1.206   1.469   5.117  0.1504 -0.6863 -0.6109
 5763SOL    HW120181   1.154   1.499   5.192 -0.4978 -0.4295 -1.1500
 5763SOL    HW220182   1.172   1.382   5.097 -0.5832 -0.2475 -1.3933
 5764SOL     OW20183   8.786   4.135   2.040  0.0491  0.2253 -0.5383
 5764SOL    HW120184   8.812   4.118   2.131  0.5865 -1.4664 -0.9885
 5764SOL    HW220185   8.864   4.173   2.000 -0.2770  1.2436 -0.2472
 5765SOL     OW20186   3.297   3.773   4.563 -0.5389 -0.0787  0.3989
 5765SOL    HW120187   3.333   3.795   4.477  0.4630 -0.0252  0.8149
 5765SOL    HW220188   3.253   3.689   4.549 -1.7402  0.6585 -0.5021
 5766SOL     OW20189   5.744   4.859   2.837  0.8152  0.4832 -0.0669
 5766SOL    HW120190   5.789   4.834   2.756  0.4519 -1.2311  0.2342
 5766SOL    HW220191   5.689   4.784   2.859 -0.5057  1.6406  0.7984
 5767SOL     OW20192   6.145   8.703   1.413  0.1618  0.2916  0.0555
 5767SOL    HW120193   6.059   8.740   1.393  0.3226 -0.4179 -2.2536
 5767SOL    HW220194   6.207   8.759   1.366  0.3115 -3.4466 -5.0614
 5768SOL     OW20195   8.624   8.627   7.857 -0.0787 -0.1482  0.0315
 5768SOL    HW120196   8.611   8.545   7.808 -1.4644  0.8832 -1.4012
 5768SOL    HW220197   8.678   8.681   7.799 -0.1823  0.4103  0.4469
 5769SOL     OW20198   5.875   1.584   7.126  0.3507 -0.0023 -0.1168
 5769SOL    HW120199   5.891   1.609   7.218 -0.3867 -1.2795  0.3814
 5769SOL    HW220200   5.783   1.555   7.125 -1.0920  3.9042 -2.1496
 5770SOL     OW20201   5.335   1.876   7.026 -0.2676  0.3499  0.2346
 5770SOL    HW120202   5.419   1.845   7.058  0.0054  1.1495  0.3287
 5770SOL    HW220203   5.345   1.971   7.020 -1.4507  0.5601  1.1186
 5771SOL     OW20204   0.583   1.906   4.020  0.1892 -0.2896  0.1406
 5771SOL    HW120205   0.502   1.855   4.022 -0.6544  1.0173  0.4585
 5771SOL    HW220206   0.622   1.892   4.107  1.7682 -3.0759 -0.8658
 5772SOL     OW20207   8.976   8.579   7.583  0.1511 -0.0107  0.1706
 5772SOL    HW120208   8.992   8.620   7.498 -0.3715 -0.3420 -0.0942
 5772SOL    HW220209   8.888   8.540   7.575  1.1196 -2.3219 -0.0447
 5773SOL     OW20210   5.027   6.325   5.299  0.2424  0.3047  0.3711
 5773SOL    HW120211   5.048   6.246   5.349  0.0351  0.8884  1.3961
 5773SOL    HW220212   5.111   6.370   5.289  0.1504  0.5889  0.8894
 5774SOL     OW20213   0.341   9.447   5.598 -0.0747  0.3071  0.3957
 5774SOL    HW120214   0.257   9.448   5.551  0.0880 -1.5799 -0.0163
 5774SOL    HW220215   0.317   9.431   5.689 -0.1692 -1.5786  0.0968
 5775SOL     OW20216   8.757   5.088   1.754 -0.2179 -0.2145  0.0318
 5775SOL    HW120217   8.792   5.100   1.666  1.9357 -1.3728  0.6497
 5775SOL    HW220218   8.683   5.029   1.744 -0.7247  0.5722 -1.0948
 5776SOL     OW20219   1.430   1.594   1.358 -0.2094  0.0935  0.5350
 5776SOL    HW120220   1.419   1.675   1.308  1.5859 -0.2638 -0.5145
 5776SOL    HW220221   1.403   1.618   1.447  0.5410  1.9553  0.3187
 5777SOL     OW20222   3.629   1.734   8.440 -0.1858 -0.1588 -0.0029
 5777SOL    HW120223   3.565   1.748   8.371  0.0453  1.4310  0.0724
 5777SOL    HW220224   3.643   1.639   8.441 -0.1931 -0.2233 -2.1280
 5778SOL     OW20225   3.975   2.065   5.042  1.1495 -0.5414 -0.1098
 5778SOL    HW120226   4.001   2.110   4.961  1.7242  1.6011  1.1797
 5778SOL    HW220227   4.058   2.044   5.085  0.9016  0.8683  1.1754
 5779SOL     OW20228   5.735   9.041   7.688  0.2688  0.1603 -0.4802
 5779SOL    HW120229   5.742   8.957   7.643  0.2437 -0.0896 -0.0243
 5779SOL    HW220230   5.690   9.021   7.770  1.9502  0.2938  0.5051
 5780SOL     OW20231   6.511   8.629   1.813 -0.0657 -0.3892  0.5404
 5780SOL    HW120232   6.417   8.613   1.807 -0.0779 -0.4406  0.8652
 5780SOL    HW220233   6.538   8.587   1.895  0.5228 -1.7568 -0.3018
 5781SOL     OW20234   7.133   7.079   7.004 -0.6359 -0.5538  0.0657
 5781SOL    HW120235   7.160   7.134   7.078 -0.9827  1.0357 -0.9294
 5781SOL    HW220236   7.193   7.102   6.933 -1.1218 -1.0785 -0.5369
 5782SOL     OW20237   7.061   9.016   4.424 -0.0540  0.0916  0.0425
 5782SOL    HW120238   7.125   9.066   4.372  2.4943 -0.1848  2.6800
 5782SOL    HW220239   7.059   8.930   4.383  1.3867  0.0714 -0.0355
 5783SOL     OW20240   6.964   5.828   1.446 -0.0524 -0.7557 -0.1891
 5783SOL    HW120241   6.994   5.870   1.526  1.6029 -1.5641 -0.3449
 5783SOL    HW220242   7.042   5.787   1.409 -0.4897  0.5780 -2.8530
 5784SOL     OW20243   1.575   0.069   7.097  0.3568 -0.2846  0.8322
 5784SOL    HW120244   1.591  -0.005   7.156 -0.3895 -1.3911 -0.3004
 5784SOL    HW220245   1.569   0.030   7.010  1.1884  1.2803  0.0140
 5785SOL     OW20246   9.201   5.294   7.878 -0.1886  0.7871  0.0441
 5785SOL    HW120247   9.217   5.201   7.897  0.1033  1.0946  1.4793
 5785SOL    HW220248   9.288   5.330   7.859 -0.1563  0.9519  0.4767
 5786SOL     OW20249   5.722   8.005   8.107  0.5059  0.1264  0.2603
 5786SOL    HW120250   5.729   8.038   8.017  2.4071 -0.3370  0.1960
 5786SOL    HW220251   5.646   7.947   8.105 -0.9859  1.9755 -0.3959
 5787SOL     OW20252   1.337   6.567   9.174 -0.3860 -0.0266  0.1685
 5787SOL    HW120253   1.428   6.597   9.185 -0.3580 -0.0603  0.0291
 5787SOL    HW220254   1.337   6.478   9.209  0.2007 -0.9324 -1.9903
 5788SOL     OW20255   1.414   0.287   4.188  0.1302 -0.1095  0.3892
 5788SOL    HW120256   1.467   0.337   4.251 -1.2072  0.8527  0.7806
 5788SOL    HW220257   1.331   0.272   4.234 -1.2976  1.5336 -1.4900
 5789SOL     OW20258   8.251   7.767   3.931  0.2933 -0.1118 -0.3943
 5789SOL    HW120259   8.251   7.768   3.836 -3.2793  1.2588 -0.5440
 5789SOL    HW220260   8.274   7.857   3.956 -1.3856  0.2770 -0.1351
 5790SOL     OW20261   5.076   0.023   4.644  0.2304  0.3364 -0.2820
 5790SOL    HW120262   5.047   0.089   4.581 -0.3103 -0.9049 -1.3896
 5790SOL    HW220263   5.157  -0.012   4.607 -0.1836 -0.5243 -0.3984
 5791SOL     OW20264   3.211   1.784   4.811 -0.3224 -0.0461  0.6497
 5791SOL    HW120265   3.126   1.771   4.769 -1.5229  1.0532  2.5904
 5791SOL    HW220266   3.274   1.743   4.751 -2.1130 -0.2506 -1.1952
 5792SOL     OW20267   8.533   1.954   2.848 -0.2000  0.0081  0.1037
 5792SOL    HW120268   8.535   2.043   2.815 -0.3134 -0.4485 -1.1864
 5792SOL    HW220269   8.547   1.899   2.771 -2.9852 -1.1953  0.3596
 5793SOL     OW20270   0.959   0.848   5.612 -0.4345 -1.0686  0.3957
 5793SOL    HW120271   0.938   0.781   5.678 -2.1188 -1.1929 -0.2096
 5793SOL    HW220272   1.054   0.850   5.608 -0.3175 -1.7888  2.0919
 5794SOL     OW20273   6.546   6.634   7.076  0.1610 -0.5332  0.2604
 5794SOL    HW120274   6.620   6.646   7.017  0.4840 -0.6210  0.6395
 5794SOL    HW220275   6.526   6.721   7.109 -1.1887 -0.1857 -1.3376
 5795SOL     OW20276   6.103   2.585   5.971 -0.3209  0.7082  0.2353
 5795SOL    HW120277   6.166   2.628   6.029  0.6443 -2.1229  1.4978
 5795SOL    HW220278   6.038   2.548   6.030  1.0146 -2.7850 -0.2239
 5796SOL     OW20279   1.830   5.326   7.555  0.1400 -0.2888 -0.6245
 5796SOL    HW120280   1.780   5.264   7.607 -0.8343  1.3279  0.4541
 5796SOL    HW220281   1.905   5.348   7.610  0.9451 -1.0972 -1.3556
 5797SOL     OW20282   2.593   6.002   4.295  0.3834  0.1823  0.5184
 5797SOL    HW120283   2.507   6.010   4.254  0.3887 -2.3955 -0.1540
 5797SOL    HW220284   2.655   6.026   4.226  0.3326 -2.8570 -0.7460
 5798SOL     OW20285   7.039   2.625   8.542  0.3878 -0.3597 -0.3101
 5798SOL    HW120286   7.073   2.667   8.462 -1.1504 -1.3897 -1.5565
 5798SOL    HW220287   7.021   2.535   8.516 -0.3045 -0.6771  1.1689
 5799SOL     OW20288   4.297   0.777   8.863 -0.2217 -0.0220  0.0461
 5799SOL    HW120289   4.335   0.858   8.828  0.1000  0.0534  0.5483
 5799SOL    HW220290   4.208   0.801   8.887 -0.3570 -0.0040 -0.4626
 5800SOL     OW20291   8.573   8.869   8.923 -0.3623  0.1030 -0.1604
 5800SOL    HW120292   8.609   8.957   8.934  0.5811 -0.4094  1.0332
 5800SOL    HW220293   8.633   8.826   8.863 -0.6646  0.1762 -0.5180
 5801SOL     OW20294   6.691   6.210   1.132 -0.1629 -0.0492  0.1186
 5801SOL    HW120295   6.736   6.192   1.050  2.3668 -1.1768  1.6090
 5801SOL    HW220296   6.636   6.133   1.147  1.2754 -1.0231  0.6106
 5802SOL     OW20297   5.373   6.029   2.829  1.1100 -0.1988 -0.3389
 5802SOL    HW120298   5.394   6.096   2.764  1.2400 -0.6506 -0.7686
 5802SOL    HW220299   5.382   6.074   2.913  0.3849  0.5443 -0.6458
 5803SOL     OW20300   2.851   1.465   0.121 -0.3661  0.3839 -0.4895
 5803SOL    HW120301   2.927   1.442   0.067  1.1345  1.7305  0.9328
 5803SOL    HW220302   2.790   1.393   0.108  2.1877 -2.1150  0.2639
 5804SOL     OW20303   5.810   0.519   0.753 -0.3501 -0.4662 -0.3583
 5804SOL    HW120304   5.832   0.491   0.841 -2.4324  1.4718  0.8901
 5804SOL    HW220305   5.737   0.463   0.727  0.4009 -1.1811 -0.9807
 5805SOL     OW20306   4.881   0.918   7.953  0.2192 -0.9105 -0.0518
 5805SOL    HW120307   4.837   0.887   7.874  0.1498 -1.0554  0.0414
 5805SOL    HW220308   4.847   0.861   8.022  0.3423 -0.8390  0.0674
 5806SOL     OW20309   7.947   1.007   8.422  0.2142  0.2587  0.1843
 5806SOL    HW120310   7.961   1.059   8.501 -0.3020  0.6518  0.0263
 5806SOL    HW220311   8.028   0.958   8.410 -0.1101 -0.6638  1.5858
 5807SOL     OW20312   9.129   1.950   8.232  0.8064 -0.0570  0.3796
 5807SOL    HW120313   9.195   1.954   8.301  0.8769 -0.2379  0.3235
 5807SOL    HW220314   9.087   2.036   8.233  0.5554 -0.1832  0.8928
 5808SOL     OW20315   2.258   8.545   4.703  0.2821  0.0060  0.0033
 5808SOL    HW120316   2.266   8.510   4.792 -0.5655 -0.1892  0.0111
 5808SOL    HW220317   2.328   8.609   4.696  1.2415 -0.9696  0.3399
 5809SOL     OW20318   0.556   6.728   2.018 -0.0546 -0.0602 -0.0425
 5809SOL    HW120319   0.518   6.779   1.946  0.4581  1.1173  0.4973
 5809SOL    HW220320   0.516   6.764   2.097 -0.2426 -1.0134  0.3075
 5810SOL     OW20321   7.453   8.219   0.498 -0.7899  0.1268 -0.0930
 5810SOL    HW120322   7.486   8.187   0.582  0.1066 -0.1854 -0.5574
 5810SOL    HW220323   7.515   8.287   0.472 -0.9653  0.1007 -0.5876
 5811SOL     OW20324   2.628   8.161   8.943  0.1801 -0.3110 -0.3250
 5811SOL    HW120325   2.652   8.076   8.980 -0.4557 -0.0670  0.6805
 5811SOL    HW220326   2.657   8.224   9.009 -3.6511 -0.0059  1.3135
 5812SOL     OW20327   4.103   5.148   1.260  0.3475 -0.4320  0.0924
 5812SOL    HW120328   4.061   5.088   1.321 -1.1278  0.3903 -0.0537
 5812SOL    HW220329   4.094   5.234   1.302 -0.5922  0.1274 -1.1951
 5813SOL     OW20330   0.889   2.541   1.808 -0.2045 -0.2077 -0.3080
 5813SOL    HW120331   0.952   2.475   1.836  0.5169 -0.1298 -1.6856
 5813SOL    HW220332   0.940   2.601   1.753 -1.6503 -0.6220 -2.1741
 5814SOL     OW20333   2.882   3.591   3.409 -0.0626 -0.0305 -0.1202
 5814SOL    HW120334   2.801   3.601   3.461  0.6187  1.2102  0.7634
 5814SOL    HW220335   2.951   3.585   3.475  0.7693  0.9728 -0.8755
 5815SOL     OW20336   3.840   1.235   1.283 -0.7840 -0.2912 -0.4556
 5815SOL    HW120337   3.784   1.182   1.227 -1.9038  1.9214 -1.5510
 5815SOL    HW220338   3.810   1.325   1.269  1.8141  0.7960  0.3893
 5816SOL     OW20339   1.818   8.829   5.745 -0.5985  0.0608 -0.3563
 5816SOL    HW120340   1.733   8.863   5.715 -0.7114  1.0366  0.9953
 5816SOL    HW220341   1.825   8.858   5.836  0.1666 -1.9741  0.2839
 5817SOL     OW20342   1.133   6.660   1.984  0.1317  0.1169 -0.0204
 5817SOL    HW120343   1.136   6.653   2.079 -2.0144 -0.4568  0.0648
 5817SOL    HW220344   1.135   6.569   1.953 -0.3595  0.2483 -0.4502
 5818SOL     OW20345   3.014   4.132   7.598  0.4413  0.8555  0.0204
 5818SOL    HW120346   3.011   4.045   7.557 -0.3821  0.2121  1.3961
 5818SOL    HW220347   3.073   4.182   7.541  1.2111 -0.6890 -0.6252
 5819SOL     OW20348   5.918   7.401   7.429  0.5072 -0.1070 -0.0851
 5819SOL    HW120349   5.904   7.488   7.464  2.8519 -0.1851  1.2632
 5819SOL    HW220350   6.013   7.395   7.416  0.5064 -2.6170  0.4288
 5820SOL     OW20351   0.136   8.331   1.602  0.2506 -0.3652  0.3887
 5820SOL    HW120352   0.207   8.274   1.574  0.5369  0.4785 -0.6631
 5820SOL    HW220353   0.059   8.299   1.555  0.0363 -0.9221  1.0933
 5821SOL     OW20354   3.390   7.169   6.377 -0.3735  0.4386  0.3282
 5821SOL    HW120355   3.471   7.190   6.329 -1.2105  0.3382 -1.1973
 5821SOL    HW220356   3.351   7.097   6.327 -0.5790 -0.6753  2.0190
 5822SOL     OW20357   0.368   0.044   9.327 -0.1573  0.2348 -0.3556
 5822SOL    HW120358   0.299  -0.003   9.374  0.7970 -2.3708 -1.3392
 5822SOL    HW220359   0.439   0.053   9.391  0.0667 -0.7382 -0.4458
 5823SOL     OW20360   9.493   3.328   5.986  0.3119  0.0002  0.0734
 5823SOL    HW120361   9.418   3.388   5.985  0.6443  0.4187 -0.0936
 5823SOL    HW220362   9.535   3.341   5.901  0.8619  0.1378  0.3580
 5824SOL     OW20363   1.213   2.285   7.730 -0.2161 -0.4507 -0.7676
 5824SOL    HW120364   1.199   2.378   7.713  0.5372 -0.1608  0.1451
 5824SOL    HW220365   1.308   2.273   7.722  0.0444 -0.5554  1.8364
 5825SOL     OW20366   0.894   2.562   7.642  0.6510 -0.4291 -0.0098
 5825SOL    HW120367   0.802   2.548   7.661  0.8725 -2.0808  0.0148
 5825SOL    HW220368   0.909   2.655   7.659 -0.5367 -0.5534  1.9721
 5826SOL     OW20369   6.717   1.089   3.751 -0.2079  0.1733 -0.6668
 5826SOL    HW120370   6.653   1.018   3.755 -0.1525  0.1228 -0.6689
 5826SOL    HW220371   6.798   1.046   3.722 -0.8687  0.6952 -3.6408
 5827SOL     OW20372   3.210   8.522   6.591 -0.5937  0.2206  0.2488
 5827SOL    HW120373   3.192   8.428   6.591 -2.1306  0.4890  0.6481
 5827SOL    HW220374   3.124   8.562   6.576  0.3610  1.5243 -2.2833
 5828SOL     OW20375   4.158   6.372   4.703 -0.0943 -0.1324  0.1577
 5828SOL    HW120376   4.171   6.285   4.738 -1.3067  0.0061  1.0382
 5828SOL    HW220377   4.065   6.390   4.717 -0.2842  0.5839 -1.6813
 5829SOL     OW20378   1.188   1.975   4.434 -0.0522 -0.4422  0.2825
 5829SOL    HW120379   1.113   2.033   4.443  0.0591  0.1118 -1.7738
 5829SOL    HW220380   1.262   2.033   4.415  0.3085 -1.1475 -0.5749
 5830SOL     OW20381   7.522   7.376   0.143  0.1865 -0.1973 -0.2300
 5830SOL    HW120382   7.434   7.413   0.150  0.0332 -0.6249  0.1753
 5830SOL    HW220383   7.580   7.450   0.157 -0.0946 -0.4994  3.4325
 5831SOL     OW20384   5.325   6.011   4.469 -0.3447 -0.2036 -0.4211
 5831SOL    HW120385   5.354   5.937   4.523 -1.1904 -0.0051  0.3256
 5831SOL    HW220386   5.395   6.022   4.405  0.6860 -0.4571  0.6164
 5832SOL     OW20387   1.595   1.661   2.039  0.2686  0.7814 -0.0960
 5832SOL    HW120388   1.684   1.627   2.029 -0.5496 -1.1006 -1.8908
 5832SOL    HW220389   1.607   1.753   2.064  2.6955  0.5666 -0.2014
 5833SOL     OW20390   9.263   0.189   9.275  0.8307  0.1090  0.1912
 5833SOL    HW120391   9.291   0.103   9.307  0.2707  0.1636  0.8713
 5833SOL    HW220392   9.189   0.169   9.217 -0.5352  0.2200  1.8185
 5834SOL     OW20393   9.526   0.573   8.756  0.6289 -0.0571 -0.2691
 5834SOL    HW120394   9.435   0.602   8.751 -0.7697 -3.7464  0.8241
 5834SOL    HW220395   9.551   0.558   8.665 -0.2886 -0.1830 -0.5089
 5835SOL     OW20396   7.067   5.325   9.574  0.1434  0.2521 -0.0966
 5835SOL    HW120397   7.113   5.374   9.643 -1.3285  1.3988  0.1183
 5835SOL    HW220398   6.981   5.366   9.569 -0.7810 -1.6571 -0.6887
 5836SOL     OW20399   4.955   5.630   0.073  0.3814 -0.0600  0.6473
 5836SOL    HW120400   4.992   5.648   0.160  0.4663  0.8471  0.4385
 5836SOL    HW220401   5.019   5.573   0.031 -0.4516 -1.9263  1.7631
 5837SOL     OW20402   6.947   7.402   7.651  0.0722  0.2656 -0.7400
 5837SOL    HW120403   6.949   7.474   7.714 -0.0193  0.7602 -1.2964
 5837SOL    HW220404   7.017   7.421   7.589  0.8029 -0.7326 -0.2438
 5838SOL     OW20405   0.188   5.327   2.889 -0.1265 -0.1233 -0.4189
 5838SOL    HW120406   0.129   5.360   2.957  1.9636  3.1375 -0.0133
 5838SOL    HW220407   0.179   5.389   2.817  0.4430 -1.4530 -1.6912
 5839SOL     OW20408   1.223   5.362   2.498 -0.1054  0.0635  1.0538
 5839SOL    HW120409   1.237   5.277   2.540  1.0126 -0.8706 -1.0691
 5839SOL    HW220410   1.296   5.416   2.528  2.4902 -1.5309 -1.7770
 5840SOL     OW20411   2.702   8.104   1.940 -0.3775 -0.4385  0.4109
 5840SOL    HW120412   2.706   8.021   1.891 -2.4974 -1.1118  1.2706
 5840SOL    HW220413   2.732   8.080   2.028 -1.9068 -0.5675  0.9278
 5841SOL     OW20414   4.684   5.867   1.586 -0.1528  0.0780 -0.0465
 5841SOL    HW120415   4.642   5.811   1.521 -0.7475  0.0840  0.3302
 5841SOL    HW220416   4.635   5.853   1.667 -1.1327  2.0671 -0.2295
 5842SOL     OW20417   1.468   7.852   5.587  0.0618 -0.1065  0.2469
 5842SOL    HW120418   1.407   7.921   5.558  0.2684 -0.1233 -0.2380
 5842SOL    HW220419   1.554   7.894   5.585 -0.0659  0.3518  2.3027
 5843SOL     OW20420   6.212   5.719   8.190 -0.2559 -0.0050  0.0066
 5843SOL    HW120421   6.235   5.667   8.267  2.5294 -2.0953 -2.0088
 5843SOL    HW220422   6.230   5.809   8.216  0.9779 -0.6807  1.6917
 5844SOL     OW20423   3.197   2.297   3.052  0.0200 -0.1398  0.3857
 5844SOL    HW120424   3.267   2.236   3.077 -0.0351 -0.3635 -0.0015
 5844SOL    HW220425   3.238   2.383   3.060 -0.0374 -0.1879  1.3790
 5845SOL     OW20426   0.229   5.131   7.927  0.3681 -0.0678 -0.3604
 5845SOL    HW120427   0.279   5.118   8.007  0.7665  0.1100 -0.5762
 5845SOL    HW220428   0.206   5.224   7.927 -0.0007 -0.1606 -0.2375
 5846SOL     OW20429   2.486   6.704   2.408  0.1733 -0.0340 -0.0193
 5846SOL    HW120430   2.521   6.750   2.332  1.3825 -0.3353  0.3303
 5846SOL    HW220431   2.441   6.627   2.372  1.3500 -0.5633 -0.4148
 5847SOL     OW20432   2.777   0.413   2.666 -0.2846 -0.9437  0.1576
 5847SOL    HW120433   2.703   0.448   2.715  1.2414  0.2651  1.7439
 5847SOL    HW220434   2.820   0.352   2.727  0.4979 -0.9777 -0.4049
 5848SOL     OW20435   2.102   8.448   0.637 -0.3023  0.1641 -0.2189
 5848SOL    HW120436   2.036   8.503   0.680 -1.1995 -0.4203 -0.8285
 5848SOL    HW220437   2.183   8.467   0.685 -0.9299  0.7948  0.6314
 5849SOL     OW20438   6.398   9.624   6.208  0.3165  0.1918 -0.8537
 5849SOL    HW120439   6.449   9.704   6.193  2.9038 -1.5042 -1.5945
 5849SOL    HW220440   6.376   9.593   6.121 -0.7281  0.0883 -0.5644
 5850SOL     OW20441   9.058   8.207   1.291  0.2912 -0.4423  0.3578
 5850SOL    HW120442   9.141   8.254   1.287  0.5210 -0.8839 -0.4558
 5850SOL    HW220443   8.998   8.260   1.237 -0.1972  0.3077  1.6034
 5851SOL     OW20444   3.116   4.196   5.047  0.3343 -0.7867 -0.0073
 5851SOL    HW120445   3.176   4.138   5.095  0.4700 -2.6229 -2.2509
 5851SOL    HW220446   3.168   4.275   5.030  0.8468 -0.8225  1.2824
 5852SOL     OW20447   2.431   5.107   7.083 -0.5799 -0.5192  0.4304
 5852SOL    HW120448   2.383   5.154   7.152  0.6756  1.7396 -0.1399
 5852SOL    HW220449   2.432   5.168   7.009  0.7797 -1.6367 -0.5128
 5853SOL     OW20450   1.408   3.091   5.373 -0.1870 -0.2990 -0.6803
 5853SOL    HW120451   1.364   3.055   5.295 -1.0893  0.0713 -0.3596
 5853SOL    HW220452   1.336   3.124   5.427  0.4770 -0.0262  0.0442
 5854SOL     OW20453   8.217   7.021   5.828  0.3767  0.1183 -0.1701
 5854SOL    HW120454   8.177   7.073   5.898  0.0483  0.3157 -0.4985
 5854SOL    HW220455   8.149   6.959   5.802  1.2012 -1.3993  1.1238
 5855SOL     OW20456   5.280   5.939   5.655  0.2078 -0.2613 -0.3635
 5855SOL    HW120457   5.256   5.853   5.620  0.5167 -1.3321  1.9021
 5855SOL    HW220458   5.370   5.952   5.625  0.0385 -0.5287 -1.0195
 5856SOL     OW20459   8.001   4.543   9.450  0.4137  0.2481  0.4052
 5856SOL    HW120460   7.960   4.629   9.460 -0.9427 -0.1623 -1.3195
 5856SOL    HW220461   8.051   4.531   9.531 -1.3378  1.6033  1.7587
 5857SOL     OW20462   2.367   6.309   1.669 -0.2160  0.2209  0.6982
 5857SOL    HW120463   2.384   6.335   1.760 -0.4110 -1.8486  1.3725
 5857SOL    HW220464   2.312   6.379   1.634 -0.4770  0.8624  2.2906
 5858SOL     OW20465   7.703   0.148   1.496  0.0572 -0.2026 -0.6060
 5858SOL    HW120466   7.675   0.237   1.516  0.7122 -0.2073  0.3965
 5858SOL    HW220467   7.624   0.095   1.508  0.3661 -0.1967  2.0635
 5859SOL     OW20468   0.392   7.452   5.848 -0.1901 -0.0648  0.5591
 5859SOL    HW120469   0.420   7.368   5.884  0.8306  0.8269  1.8911
 5859SOL    HW220470   0.325   7.483   5.909  2.2610  1.9296  2.4072
 5860SOL     OW20471   7.208   1.295   5.899 -0.1143 -0.6426  0.1315
 5860SOL    HW120472   7.224   1.358   5.829  0.0436 -1.3660 -0.5025
 5860SOL    HW220473   7.221   1.345   5.980 -0.3717  0.2241 -0.3467
 5861SOL     OW20474   9.304   0.468   4.621 -0.8113 -0.2652  0.1231
 5861SOL    HW120475   9.356   0.403   4.669 -2.3922 -0.6079  1.4427
 5861SOL    HW220476   9.264   0.418   4.549  0.6349  0.0063 -0.9198
 5862SOL     OW20477   5.028   6.003   4.515 -0.0987  0.6911  0.2893
 5862SOL    HW120478   5.073   5.927   4.552  0.7070  1.7597  1.6169
 5862SOL    HW220479   4.936   5.989   4.537 -0.0581 -0.2412 -0.1117
 5863SOL     OW20480   7.882   6.995   3.699 -0.1588 -0.6141  0.1579
 5863SOL    HW120481   7.951   6.992   3.766 -0.7800 -2.2206  0.7661
 5863SOL    HW220482   7.877   7.088   3.675  1.5577 -0.3254  0.7736
 5864SOL     OW20483   0.134   0.126   0.132 -0.4843  0.0662  0.1267
 5864SOL    HW120484   0.153   0.049   0.079  1.1943  1.1507 -0.9560
 5864SOL    HW220485   0.165   0.199   0.079 -1.9527  1.4943  1.1467
 5865SOL     OW20486   4.228   3.298   4.860 -0.1525  0.2466 -0.5794
 5865SOL    HW120487   4.137   3.327   4.869  0.0549  0.8389 -0.3728
 5865SOL    HW220488   4.221   3.203   4.847 -0.7695  0.1783  0.1375
 5866SOL     OW20489   3.708   4.368   5.761 -0.0197  0.2557  0.4009
 5866SOL    HW120490   3.706   4.351   5.667  0.5452 -2.2242  0.7575
 5866SOL    HW220491   3.777   4.311   5.794 -0.0232  1.2699  2.3088
 5867SOL     OW20492   2.247   2.761   1.986  0.5996 -0.3002  0.4560
 5867SOL    HW120493   2.268   2.727   1.899  2.9564 -0.4866  1.0375
 5867SOL    HW220494   2.266   2.689   2.046 -1.0684 -0.2000  1.1795
 5868SOL     OW20495   1.969   7.230   2.341  0.1852 -0.1914 -0.1727
 5868SOL    HW120496   1.990   7.319   2.369 -0.2357 -0.5843  1.4700
 5868SOL    HW220497   2.029   7.174   2.390 -2.7275 -1.1421  2.6559
 5869SOL     OW20498   7.363   4.974   5.822  0.1837  0.3503  0.0383
 5869SOL    HW120499   7.425   4.908   5.792 -0.4227 -0.4535  0.5110
 5869SOL    HW220500   7.416   5.052   5.837  1.1780 -0.4722  0.9653
 5870SOL     OW20501   0.132   0.416   3.292 -0.0845  0.1336  0.0740
 5870SOL    HW120502   0.184   0.484   3.335 -0.2753 -0.2988  1.0374
 5870SOL    HW220503   0.166   0.412   3.203  0.2856  1.1166  0.1563
 5871SOL     OW20504   1.416   3.307   0.784  0.3375  0.7441 -0.2159
 5871SOL    HW120505   1.506   3.338   0.776  0.8557 -0.0628  1.7199
 5871SOL    HW220506   1.371   3.339   0.706  1.1301  5.0758  0.8554
 5872SOL     OW20507   8.223   1.304   4.388  0.5046  0.1224  0.1057
 5872SOL    HW120508   8.313   1.284   4.414 -0.1002 -1.9889  0.8637
 5872SOL    HW220509   8.218   1.399   4.388  2.8125  0.3028 -0.2987
 5873SOL     OW20510   4.779   2.685   0.735 -0.0247  0.0715 -0.1247
 5873SOL    HW120511   4.807   2.628   0.806 -1.1020  1.9472  1.9283
 5873SOL    HW220512   4.691   2.655   0.713 -0.2378  0.3717  0.3180
 5874SOL     OW20513   1.250   5.958   9.049 -0.1627 -0.4993  0.2917
 5874SOL    HW120514   1.294   5.939   8.967  0.2189  0.5692  0.2272
 5874SOL    HW220515   1.277   6.048   9.070 -2.0242  0.0717  0.4226
 5875SOL     OW20516   8.777   4.186   7.540  0.0782 -0.6049  0.3132
 5875SOL    HW120517   8.689   4.148   7.541  0.4057 -1.3875 -0.1675
 5875SOL    HW220518   8.818   4.151   7.461  0.4990  0.5177  0.0128
 5876SOL     OW20519   3.224   4.763   2.383  0.0837 -0.1813  0.5387
 5876SOL    HW120520   3.162   4.807   2.325 -1.8861  0.5002  2.9512
 5876SOL    HW220521   3.283   4.833   2.411 -0.1629 -0.0670  0.7887
 5877SOL     OW20522   6.508   6.117   2.295 -0.1539 -0.1991 -0.2563
 5877SOL    HW120523   6.527   6.057   2.223  0.0177 -3.1520  2.0232
 5877SOL    HW220524   6.414   6.108   2.309 -0.3076  0.8939 -0.5135
 5878SOL     OW20525   0.048   8.596   1.513  0.1286  0.0658  0.4983
 5878SOL    HW120526  -0.036   8.606   1.469  0.3693 -2.1662 -0.6140
 5878SOL    HW220527   0.063   8.501   1.515  0.7789  0.0979  4.2664
 5879SOL     OW20528   0.791   7.077   2.195 -0.0514  0.3263 -0.2608
 5879SOL    HW120529   0.783   7.037   2.282 -0.2652 -0.1389 -0.4965
 5879SOL    HW220530   0.879   7.114   2.194  0.2040 -0.2647 -0.0970
 5880SOL     OW20531   6.582   4.542   4.488  0.1256  0.2212  0.4744
 5880SOL    HW120532   6.521   4.597   4.537 -0.9886 -0.5140 -0.0263
 5880SOL    HW220533   6.663   4.592   4.484 -1.1028  2.2359 -0.7159
 5881SOL     OW20534   7.800   4.374   5.663 -0.2460 -0.2611  0.5726
 5881SOL    HW120535   7.728   4.311   5.655 -1.1614  0.6895  0.9741
 5881SOL    HW220536   7.800   4.421   5.580 -1.8651  1.5086  1.4845
 5882SOL     OW20537   7.407   5.921   6.249 -0.0762 -0.0832 -0.5175
 5882SOL    HW120538   7.431   5.923   6.157 -3.8744 -0.2522 -1.6788
 5882SOL    HW220539   7.367   5.836   6.262  0.7304 -0.2295  1.4763
 5883SOL     OW20540   7.553   7.209   7.245  0.0458 -0.4270 -0.1401
 5883SOL    HW120541   7.568   7.150   7.319  0.7607  0.2278  0.2514
 5883SOL    HW220542   7.520   7.289   7.285  0.3394 -0.1009 -0.5479
 5884SOL     OW20543   6.693   0.600   8.475 -0.1137  0.0996 -0.0681
 5884SOL    HW120544   6.607   0.562   8.491  0.8151 -1.7707  0.6839
 5884SOL    HW220545   6.680   0.656   8.398 -2.0367  0.0437  0.1668
 5885SOL     OW20546   0.532   9.425   7.322 -0.2787 -0.0900  0.1205
 5885SOL    HW120547   0.551   9.447   7.231 -0.5071 -0.9234 -0.1341
 5885SOL    HW220548   0.573   9.495   7.372 -0.6968  0.7271 -0.6510
 5886SOL     OW20549   3.342   8.139   6.532 -0.2892 -0.3661  0.1758
 5886SOL    HW120550   3.262   8.187   6.552  0.4416  0.8861  0.2268
 5886SOL    HW220551   3.367   8.168   6.444  0.7955  0.2556  0.6735
 5887SOL     OW20552   7.706   5.383   0.075  0.1722  0.0840  0.1018
 5887SOL    HW120553   7.736   5.367  -0.014  1.2053  1.6339  0.1482
 5887SOL    HW220554   7.777   5.431   0.117 -1.5245  2.1409  0.8075
 5888SOL     OW20555   2.952   5.997   1.784 -0.3692 -0.1223  0.0469
 5888SOL    HW120556   2.967   5.904   1.766 -1.4607  0.0723 -2.2867
 5888SOL    HW220557   3.040   6.034   1.794  0.0670 -1.4390  1.3531
 5889SOL     OW20558   4.439   4.004   0.880 -0.0636  0.3924 -0.1417
 5889SOL    HW120559   4.508   4.017   0.945  0.6392 -3.3327  0.0524
 5889SOL    HW220560   4.475   4.040   0.799  1.3494  0.1754  0.3627
 5890SOL     OW20561   7.098   7.185   6.565 -0.1263  0.4019 -0.3372
 5890SOL    HW120562   7.122   7.252   6.500  2.6417 -0.7515 -0.6863
 5890SOL    HW220563   7.033   7.131   6.520 -1.3611  1.9958 -0.5601
 5891SOL     OW20564   6.268   7.481   0.731  0.4578  0.1055 -0.2775
 5891SOL    HW120565   6.323   7.448   0.801  1.2518  0.7397 -0.5805
 5891SOL    HW220566   6.238   7.403   0.684  2.9193 -0.1972 -1.4647
 5892SOL     OW20567   4.249   5.943   0.204 -0.3454  0.1689 -0.3241
 5892SOL    HW120568   4.252   5.925   0.298  2.4302  1.5991 -0.0499
 5892SOL    HW220569   4.187   6.016   0.196  0.0473  0.6129  0.5264
 5893SOL     OW20570   4.500   2.111   5.659  0.4041  0.0977 -0.0498
 5893SOL    HW120571   4.461   2.063   5.732  1.4734 -1.1739 -0.2668
 5893SOL    HW220572   4.426   2.142   5.608 -0.3646 -1.5198 -0.0002
 5894SOL     OW20573   7.080   3.656   0.896  0.3312  0.0648  0.3466
 5894SOL    HW120574   7.000   3.625   0.938  0.3220 -2.4707 -1.3420
 5894SOL    HW220575   7.069   3.751   0.892 -1.6644 -0.0134  1.9179
 5895SOL     OW20576   9.627   6.794   3.139 -0.4012 -0.4414  0.6697
 5895SOL    HW120577   9.655   6.703   3.143 -0.7797 -0.5942 -0.0470
 5895SOL    HW220578   9.707   6.844   3.124 -0.4194 -0.8294 -0.8701
 5896SOL     OW20579   2.017   8.496   8.237  0.2088  0.2723 -0.0725
 5896SOL    HW120580   1.944   8.485   8.299  0.1741  0.2184 -0.1221
 5896SOL    HW220581   1.989   8.568   8.180 -0.1148 -0.2025 -0.5273
 5897SOL     OW20582   2.949   9.341   5.249  0.3571 -0.1375  0.2302
 5897SOL    HW120583   2.931   9.248   5.230 -1.3092 -0.5306  3.1476
 5897SOL    HW220584   3.036   9.341   5.289  0.5284 -0.3742 -0.1366
 5898SOL     OW20585   8.876   5.441   9.570  0.0394  0.5612  0.0622
 5898SOL    HW120586   8.837   5.393   9.643  0.1023 -0.0680 -0.3096
 5898SOL    HW220587   8.893   5.529   9.605 -0.2861  0.3820  0.6838
 5899SOL     OW20588   5.999   5.973   8.209 -0.3814  0.0535 -0.0862
 5899SOL    HW120589   6.075   5.961   8.266 -0.7551 -1.4040  0.1642
 5899SOL    HW220590   5.950   6.044   8.250  0.5946  0.6979  0.0062
 5900SOL     OW20591   7.663   1.310   3.992  0.1575 -0.4486 -0.1243
 5900SOL    HW120592   7.710   1.230   4.016 -0.0667 -0.0834  1.6280
 5900SOL    HW220593   7.574   1.280   3.973  0.1007 -0.6222  0.4194
 5901SOL     OW20594   8.189   0.164   7.508  0.2107 -0.0465  0.0500
 5901SOL    HW120595   8.161   0.108   7.581  0.0021 -0.0553 -0.0346
 5901SOL    HW220596   8.284   0.154   7.505  0.1222 -0.8729 -0.3467
 5902SOL     OW20597   9.221   5.154   5.628 -0.4786  0.0573 -0.3127
 5902SOL    HW120598   9.183   5.241   5.640  0.5982  0.7365 -1.5957
 5902SOL    HW220599   9.164   5.111   5.564 -1.1957 -0.3339  0.5572
 5903SOL     OW20600   0.453   6.820   6.317 -0.3981 -0.5523 -0.0017
 5903SOL    HW120601   0.487   6.763   6.249 -0.2791 -2.4768  1.5700
 5903SOL    HW220602   0.360   6.800   6.322  0.0158 -2.3319  2.0095
 5904SOL     OW20603   9.409   5.537   5.216  0.4599  0.1877 -0.4943
 5904SOL    HW120604   9.485   5.581   5.177  2.0348 -2.7323 -0.9772
 5904SOL    HW220605   9.418   5.553   5.310  0.9325  0.9288 -0.6552
 5905SOL     OW20606   3.841   0.149   8.648  0.0218  0.0024 -0.4233
 5905SOL    HW120607   3.900   0.075   8.632  0.8869  0.6661 -0.3805
 5905SOL    HW220608   3.829   0.151   8.743 -1.2381 -0.9937 -0.5283
 5906SOL     OW20609   3.025   8.617   8.777  0.0993  0.1661  0.1929
 5906SOL    HW120610   3.054   8.644   8.689  0.5730  0.7908  0.5321
 5906SOL    HW220611   2.936   8.651   8.783 -0.1798 -0.4570 -0.2913
 5907SOL     OW20612   8.303   8.728   8.308  0.7340 -0.1469 -0.2496
 5907SOL    HW120613   8.311   8.754   8.216  0.7520 -0.9451 -0.4768
 5907SOL    HW220614   8.262   8.642   8.305  0.1456  0.1027  0.5247
 5908SOL     OW20615   7.618   5.400   3.254 -0.4022 -0.5219 -0.5930
 5908SOL    HW120616   7.532   5.368   3.281 -0.1099 -0.1081  0.9617
 5908SOL    HW220617   7.669   5.321   3.238 -0.8706 -0.7727 -0.8789
 5909SOL     OW20618   5.813   2.251   2.352  0.3743 -0.1612  0.4075
 5909SOL    HW120619   5.727   2.212   2.336  0.1142  0.9305 -1.0708
 5909SOL    HW220620   5.834   2.297   2.270  0.8114  2.4828  1.8963
 5910SOL     OW20621   5.750   1.429   3.209 -0.5352 -0.2628 -0.1682
 5910SOL    HW120622   5.672   1.385   3.175 -0.5160 -0.5129  0.1128
 5910SOL    HW220623   5.807   1.439   3.133 -0.3839 -1.0513 -0.1657
 5911SOL     OW20624   4.531   0.033   6.316  0.5996 -0.2850  0.4366
 5911SOL    HW120625   4.624   0.052   6.300  1.3242 -3.2929  0.6010
 5911SOL    HW220626   4.531  -0.027   6.390 -1.6110  0.4288  1.0938
 5912SOL     OW20627   0.457   7.802   2.169  0.6167 -0.3224 -0.3306
 5912SOL    HW120628   0.429   7.833   2.255  1.6906 -1.9901  0.6680
 5912SOL    HW220629   0.412   7.718   2.158 -0.2499  0.3029 -1.8500
 5913SOL     OW20630   0.805   8.796   6.454  0.0067  0.0118  0.0332
 5913SOL    HW120631   0.721   8.801   6.408 -0.4089 -0.3561  0.7316
 5913SOL    HW220632   0.786   8.743   6.532  1.3059 -1.6843 -0.7477
 5914SOL     OW20633   9.205   5.941   7.167 -0.0582  0.1305  0.0415
 5914SOL    HW120634   9.255   5.860   7.157  0.5016  0.4272  0.3498
 5914SOL    HW220635   9.115   5.917   7.145 -0.2022 -0.9603  1.5890
 5915SOL     OW20636   3.472   3.896   0.240  0.3805  0.8633 -0.5682
 5915SOL    HW120637   3.418   3.838   0.293  1.0712  0.4226 -0.3438
 5915SOL    HW220638   3.513   3.955   0.303 -1.3356  2.4980 -0.8879
 5916SOL     OW20639   3.145   7.952   1.137 -0.2503  0.3250  0.0113
 5916SOL    HW120640   3.174   7.883   1.197  0.8877 -0.5114 -1.4508
 5916SOL    HW220641   3.166   8.033   1.183 -0.0471 -0.2754  1.0306
 5917SOL     OW20642   6.646   7.247   0.328  0.0849  0.3089 -0.4516
 5917SOL    HW120643   6.599   7.326   0.300 -0.9769  0.1721  0.8459
 5917SOL    HW220644   6.582   7.176   0.319  0.7673 -0.2785 -0.8052
 5918SOL     OW20645   4.118   2.955   1.909  0.3900  0.2011 -0.4909
 5918SOL    HW120646   4.148   3.034   1.954 -0.7155  0.6100 -0.4419
 5918SOL    HW220647   4.151   2.883   1.963 -0.5580  0.6747  0.7795
 5919SOL     OW20648   7.947   0.161   7.356  0.7450 -0.4651  0.3987
 5919SOL    HW120649   7.885   0.091   7.375 -1.4164  1.4446  0.8785
 5919SOL    HW220650   8.013   0.155   7.425 -0.2611 -1.1071  1.3308
 5920SOL     OW20651   4.567   6.166   2.714 -0.4983 -1.0111  0.5135
 5920SOL    HW120652   4.552   6.260   2.708  0.2705 -0.9132 -0.0513
 5920SOL    HW220653   4.558   6.134   2.624 -0.0399 -1.3568  0.5850
 5921SOL     OW20654   1.618   0.716   7.487  0.3719 -1.2235 -0.5026
 5921SOL    HW120655   1.568   0.658   7.429  1.9009 -2.4425 -0.6698
 5921SOL    HW220656   1.706   0.717   7.449  0.9336 -0.5602  0.7630
 5922SOL     OW20657   6.283   3.676   5.528 -0.0796  0.0440  0.1294
 5922SOL    HW120658   6.323   3.664   5.614  0.1313 -0.1208  0.0081
 5922SOL    HW220659   6.274   3.771   5.519  2.9270  0.3338 -1.0272
 5923SOL     OW20660   0.775   8.148   7.357 -0.0508  0.3009 -0.3079
 5923SOL    HW120661   0.830   8.157   7.279 -0.1134 -0.0922 -0.3995
 5923SOL    HW220662   0.814   8.077   7.406 -1.2628 -0.9290 -1.0588
 5924SOL     OW20663   5.343   7.935   1.101 -0.5753 -0.3337 -0.4109
 5924SOL    HW120664   5.287   7.861   1.126  0.2607 -1.1004 -0.7326
 5924SOL    HW220665   5.343   7.992   1.178  0.0573 -1.4695  0.4659
 5925SOL     OW20666   4.610   3.043   6.100  0.0857  0.2738  0.2579
 5925SOL    HW120667   4.654   3.098   6.164 -0.9502 -0.2204  1.4354
 5925SOL    HW220668   4.582   3.103   6.031  0.0342  1.0425  0.9350
 5926SOL     OW20669   1.458   4.804   7.799 -0.3750 -0.3323  0.2671
 5926SOL    HW120670   1.384   4.783   7.856 -0.1207  1.0800  1.1618
 5926SOL    HW220671   1.419   4.855   7.728 -0.5739 -1.4472 -0.4464
 5927SOL     OW20672   9.503   6.756   7.835  0.0504  0.0316 -0.5376
 5927SOL    HW120673   9.522   6.680   7.890 -2.2833 -0.4661 -0.3063
 5927SOL    HW220674   9.473   6.824   7.896 -0.7506  0.1048 -0.9876
 5928SOL     OW20675   0.385   6.016   3.649 -0.2622  0.1146 -0.0617
 5928SOL    HW120676   0.349   6.033   3.737 -1.3167 -0.1864 -0.4236
 5928SOL    HW220677   0.317   6.045   3.589 -0.1740 -1.0646 -0.7670
 5929SOL     OW20678   3.188   0.795   5.109 -0.2546  0.6061 -0.2911
 5929SOL    HW120679   3.219   0.761   5.193 -0.9054 -0.1693 -0.3549
 5929SOL    HW220680   3.235   0.878   5.098  0.8162  0.0805  0.2176
 5930SOL     OW20681   5.893   1.106   1.890  0.0747 -0.0899  0.7058
 5930SOL    HW120682   5.865   1.149   1.971  0.2751 -0.6656  1.0835
 5930SOL    HW220683   5.960   1.043   1.917  0.2063 -0.2321  0.0820
 5931SOL     OW20684   6.271   1.171   4.396 -0.1110 -0.3658  1.1705
 5931SOL    HW120685   6.229   1.120   4.465 -2.6741  0.1418  0.1180
 5931SOL    HW220686   6.213   1.160   4.320  1.9617  0.0598 -0.5561
 5932SOL     OW20687   5.580   0.930   8.388 -0.0417 -0.6306 -0.1502
 5932SOL    HW120688   5.502   0.928   8.332 -0.1616 -1.2400  0.0277
 5932SOL    HW220689   5.591   1.023   8.410 -0.2812 -0.4516 -0.7777
 5933SOL     OW20690   4.416   1.405   1.555  0.6343 -0.3702 -0.2232
 5933SOL    HW120691   4.437   1.380   1.645 -0.7073 -0.0530  0.2046
 5933SOL    HW220692   4.450   1.333   1.502  2.1178 -0.2011  0.4543
 5934SOL     OW20693   9.019   8.839   7.124 -0.3426  0.1413 -0.1001
 5934SOL    HW120694   9.050   8.929   7.112 -0.1971  0.2202  0.8162
 5934SOL    HW220695   8.994   8.811   7.036 -1.7625  1.5763 -0.2097
 5935SOL     OW20696   7.703   4.534   7.359  0.1681 -0.4733 -0.3015
 5935SOL    HW120697   7.787   4.580   7.360  0.2960 -0.6218  2.3896
 5935SOL    HW220698   7.726   4.442   7.342  0.4088 -0.3382 -0.7265
 5936SOL     OW20699   2.026   2.604   4.645 -0.5195  0.0361 -0.0940
 5936SOL    HW120700   1.942   2.610   4.690 -0.5324  2.0632 -0.3109
 5936SOL    HW220701   2.009   2.548   4.569 -1.6129  0.2669 -0.0299
 5937SOL     OW20702   5.022   9.314   3.373  0.7001 -0.7867 -0.0867
 5937SOL    HW120703   5.060   9.231   3.345 -0.5605 -1.2340 -0.5231
 5937SOL    HW220704   4.972   9.293   3.452  0.4816 -0.4076 -0.1194
 5938SOL     OW20705   6.144   3.135   0.196 -0.4130 -0.7921 -0.5264
 5938SOL    HW120706   6.182   3.215   0.161 -1.0597 -0.4083 -0.3655
 5938SOL    HW220707   6.158   3.140   0.290  0.4121 -1.3389 -0.6068
 5939SOL     OW20708   5.468   8.010   3.537 -0.0888  0.4908 -0.1530
 5939SOL    HW120709   5.541   7.984   3.480  0.5146  0.6435  0.5290
 5939SOL    HW220710   5.394   8.022   3.477  0.7852  1.6423 -1.0554
 5940SOL     OW20711   0.883   8.689   7.083  0.2778 -0.0087 -0.5507
 5940SOL    HW120712   0.820   8.630   7.126  2.4248 -2.2867 -0.2943
 5940SOL    HW220713   0.832   8.768   7.064 -1.5698  0.0444  3.5014
 5941SOL     OW20714   4.995   3.729   4.208 -0.4211 -0.1258  0.0870
 5941SOL    HW120715   4.948   3.771   4.280  0.2767 -1.3962  1.3336
 5941SOL    HW220716   5.084   3.766   4.213 -0.6432  0.5579 -0.8062
 5942SOL     OW20717   2.795   8.704   1.332  0.3042 -0.4871 -0.4705
 5942SOL    HW120718   2.757   8.688   1.246 -0.6701 -0.4583 -0.0591
 5942SOL    HW220719   2.866   8.640   1.339  0.6370 -0.2301 -1.4417
 5943SOL     OW20720   8.675   7.553   4.688 -0.1831  0.7015  0.0686
 5943SOL    HW120721   8.719   7.605   4.755 -0.3479 -0.9566  1.5305
 5943SOL    HW220722   8.738   7.484   4.666 -1.5700 -1.0908  1.4373
 5944SOL     OW20723   1.951   7.223   0.495  0.4284  0.4396 -0.8518
 5944SOL    HW120724   1.960   7.316   0.475  0.6540  0.6921  0.3702
 5944SOL    HW220725   1.899   7.188   0.423  0.1142  1.5594 -1.1840
 5945SOL     OW20726   7.083   0.251   5.442 -0.2011  0.2705 -0.0310
 5945SOL    HW120727   6.992   0.258   5.472  0.2000 -0.7164  1.4854
 5945SOL    HW220728   7.084   0.174   5.386 -0.2374  0.0886  0.2169
 5946SOL     OW20729   6.246   4.716   5.557  0.1577 -0.5553 -0.3257
 5946SOL    HW120730   6.248   4.803   5.518 -2.2081 -0.8645 -1.2763
 5946SOL    HW220731   6.226   4.658   5.484 -0.6389 -1.6052  0.6905
 5947SOL     OW20732   2.189   4.929   1.992  0.3059  0.8672 -0.0940
 5947SOL    HW120733   2.094   4.917   1.998  0.3646  0.6265  0.4134
 5947SOL    HW220734   2.218   4.858   1.935  0.0543  1.6102 -1.1783
 5948SOL     OW20735   7.299   5.844   5.674  0.4868  0.0682 -0.1725
 5948SOL    HW120736   7.309   5.789   5.751 -2.2998 -0.7349 -0.3043
 5948SOL    HW220737   7.351   5.801   5.607 -2.2767 -3.0565 -0.5289
 5949SOL     OW20738   3.559   3.727   5.425 -0.0112  0.9269 -0.1482
 5949SOL    HW120739   3.504   3.650   5.440  0.9951 -0.0305 -1.0958
 5949SOL    HW220740   3.570   3.767   5.511 -0.8446  0.2104  0.3063
 5950SOL     OW20741   8.232   1.953   4.280 -0.2282 -0.5466  0.1350
 5950SOL    HW120742   8.298   1.910   4.335 -0.4108  0.9313  1.5905
 5950SOL    HW220743   8.192   1.882   4.230 -0.2938 -2.0466  2.1863
 5951SOL     OW20744   4.498   6.184   4.881  0.0266 -0.4928 -0.2283
 5951SOL    HW120745   4.507   6.262   4.936 -1.4893 -1.4114  1.4096
 5951SOL    HW220746   4.497   6.218   4.792  0.4421  1.2586  0.3948
 5952SOL     OW20747   3.559   2.536   5.261 -0.2678 -0.3756 -0.6594
 5952SOL    HW120748   3.471   2.539   5.300 -0.6374 -0.5877 -1.4712
 5952SOL    HW220749   3.568   2.446   5.230  0.7350 -0.7152  0.5236
 5953SOL     OW20750   4.701   4.816   4.649 -0.0164  0.2456 -0.1692
 5953SOL    HW120751   4.636   4.877   4.615 -0.0696  1.7314  2.3823
 5953SOL    HW220752   4.743   4.780   4.571 -1.6583  1.6847 -1.8080
 5954SOL     OW20753   6.639   7.031   6.681 -0.4813 -0.2116 -0.2757
 5954SOL    HW120754   6.557   7.076   6.662 -1.2650 -1.3515  0.3256
 5954SOL    HW220755   6.635   7.013   6.775  0.6110 -0.0027 -0.1727
 5955SOL     OW20756   7.144   9.124   9.370 -0.3463  0.6398 -0.5559
 5955SOL    HW120757   7.079   9.191   9.394 -0.6062  0.4771 -0.7896
 5955SOL    HW220758   7.227   9.158   9.402 -0.5155  0.9597 -0.4535
 5956SOL     OW20759   4.287   1.043   8.710 -0.0357 -0.2093 -0.3145
 5956SOL    HW120760   4.244   0.972   8.661 -0.9667  0.4544 -0.4887
 5956SOL    HW220761   4.289   1.116   8.649  2.9838 -0.7055 -0.9303
 5957SOL     OW20762   6.677   1.533   0.384 -0.3600 -0.3539  0.4866
 5957SOL    HW120763   6.661   1.456   0.440 -0.1248 -0.7039  0.0786
 5957SOL    HW220764   6.743   1.503   0.321 -0.4432  0.1132  0.1767
 5958SOL     OW20765   3.565   5.787   4.328  0.1323  0.2763  0.1131
 5958SOL    HW120766   3.483   5.798   4.375  1.9397  1.8019  3.2513
 5958SOL    HW220767   3.625   5.748   4.392  2.3578  0.9337 -1.4326
 5959SOL     OW20768   5.352   9.118   8.691  0.2297 -0.5640 -0.3951
 5959SOL    HW120769   5.409   9.042   8.680  1.1911 -0.3213  2.1172
 5959SOL    HW220770   5.301   9.123   8.610  2.0688 -2.2377 -1.7416
 5960SOL     OW20771   2.100   4.743   7.731 -0.2617 -0.5492 -0.5292
 5960SOL    HW120772   2.111   4.763   7.639 -1.4020 -1.1624 -0.8199
 5960SOL    HW220773   2.138   4.656   7.742 -0.0505 -0.4413 -0.4057
 5961SOL     OW20774   8.035   3.662   3.747  0.5037 -0.2191  0.2736
 5961SOL    HW120775   7.974   3.735   3.757 -1.4835 -1.8668  0.9804
 5961SOL    HW220776   8.038   3.647   3.652  0.0609  0.0794  0.2076
 5962SOL     OW20777   3.761   9.469   7.219  0.4887 -0.4140 -0.0786
 5962SOL    HW120778   3.731   9.496   7.132 -1.1947 -1.2964  0.1809
 5962SOL    HW220779   3.755   9.548   7.272 -2.9415 -0.7946  0.3149
 5963SOL     OW20780   3.936   7.506   7.506 -0.3683  0.1603 -0.1365
 5963SOL    HW120781   3.843   7.515   7.523 -0.7099 -1.1463 -1.1272
 5963SOL    HW220782   3.954   7.413   7.522  0.3073 -0.0683 -1.9647
 5964SOL     OW20783   1.803   9.465   7.586  0.1345  0.4306 -0.2021
 5964SOL    HW120784   1.817   9.434   7.676  1.2713  0.6928 -0.2747
 5964SOL    HW220785   1.822   9.389   7.531 -0.4665  0.2975 -0.2313
 5965SOL     OW20786   0.713   4.007   7.481  0.3860 -0.2220 -0.3793
 5965SOL    HW120787   0.689   4.085   7.432  2.1481  0.5117 -0.1454
 5965SOL    HW220788   0.800   3.984   7.450  1.3913  0.0080  2.0084
 5966SOL     OW20789   0.163   5.652   6.494  0.3858 -0.2383 -0.0892
 5966SOL    HW120790   0.167   5.628   6.587  2.0435  1.1714  0.2750
 5966SOL    HW220791   0.076   5.690   6.483  0.9036  1.5813  1.4834
 5967SOL     OW20792   5.049   4.314   6.276  0.5024  0.1526  0.6372
 5967SOL    HW120793   5.091   4.237   6.238  0.5230  0.4732  0.0075
 5967SOL    HW220794   5.046   4.378   6.205 -1.0110  0.1524  0.6844
 5968SOL     OW20795   6.945   1.060   8.832 -0.3753  0.3162 -0.5372
 5968SOL    HW120796   6.943   1.031   8.741 -2.0866  1.0278 -0.7600
 5968SOL    HW220797   6.873   1.122   8.839  0.4612  1.1758  1.0221
 5969SOL     OW20798   5.299   4.472   5.348  0.6648  0.0298  0.2668
 5969SOL    HW120799   5.375   4.485   5.292 -0.6036  1.1847 -1.2946
 5969SOL    HW220800   5.248   4.403   5.304 -0.5420  1.2268 -0.3106
 5970SOL     OW20801   1.278   8.854   3.703 -0.5659  0.0057 -0.0472
 5970SOL    HW120802   1.198   8.809   3.730 -0.3656 -0.5644 -0.3957
 5970SOL    HW220803   1.320   8.881   3.786 -2.0095  1.9306  0.1263
 5971SOL     OW20804   9.062   5.503   9.293  0.5398 -0.1836  0.7722
 5971SOL    HW120805   8.987   5.557   9.267  0.3832 -0.1018  1.3842
 5971SOL    HW220806   9.059   5.429   9.233  0.0413 -0.1128  0.7045
 5972SOL     OW20807   8.051   8.460   3.450  0.4577  0.0884  0.0066
 5972SOL    HW120808   8.029   8.375   3.410  0.7717  0.5333 -1.1475
 5972SOL    HW220809   8.059   8.441   3.544  1.6440 -1.4000 -0.3607
 5973SOL     OW20810   7.560   4.629   0.618  0.2226 -0.5483 -0.9190
 5973SOL    HW120811   7.573   4.694   0.550 -0.8755 -1.5860 -2.1833
 5973SOL    HW220812   7.532   4.679   0.695 -1.4648  0.4274 -2.1043
 5974SOL     OW20813   6.354   5.804   9.212 -0.1222  0.2512  0.0552
 5974SOL    HW120814   6.291   5.790   9.283  0.7570  1.9157  1.2264
 5974SOL    HW220815   6.369   5.899   9.212  2.4602 -0.0928 -0.0922
 5975SOL     OW20816   8.594   2.611   6.562  0.6320 -0.2346 -0.1450
 5975SOL    HW120817   8.638   2.526   6.561  1.4565  0.1704  0.4246
 5975SOL    HW220818   8.656   2.670   6.519 -0.4837 -0.1630 -1.7308
 5976SOL     OW20819   0.929   3.912   3.044  0.2632  0.0854  0.3891
 5976SOL    HW120820   0.927   3.898   3.139  2.0206 -1.3950  0.2592
 5976SOL    HW220821   0.912   3.826   3.006  0.7256  0.4202 -0.6163
 5977SOL     OW20822   7.175   1.786   5.703 -0.1115 -0.1107 -0.2410
 5977SOL    HW120823   7.088   1.747   5.698 -0.3312  0.1483  1.2133
 5977SOL    HW220824   7.162   1.877   5.677 -0.3639  0.0431  0.4122
 5978SOL     OW20825   1.592   0.919   2.602 -0.5502 -0.1793 -0.6606
 5978SOL    HW120826   1.639   0.924   2.686 -0.7164  1.0397 -0.6264
 5978SOL    HW220827   1.621   0.836   2.564  1.7168  0.5586 -0.6930
 5979SOL     OW20828   6.812   1.985   9.126  0.5596 -0.0961  0.1064
 5979SOL    HW120829   6.764   2.010   9.206 -0.4854  0.2207 -0.5947
 5979SOL    HW220830   6.771   1.903   9.099  1.6319 -0.7680  0.4694
 5980SOL     OW20831   4.835   3.035   1.320 -0.1109  0.1008 -0.2065
 5980SOL    HW120832   4.788   3.113   1.349 -2.0834 -0.5267 -1.5252
 5980SOL    HW220833   4.874   3.062   1.237 -0.4390 -0.1855 -0.4532
 5981SOL     OW20834   1.643   9.630   5.135  0.6159  0.3476  0.0271
 5981SOL    HW120835   1.587   9.684   5.080 -0.2777  0.1457  0.7130
 5981SOL    HW220836   1.732   9.651   5.107  0.1987 -0.1092 -1.8374
 5982SOL     OW20837   3.881   0.469   9.342  0.0513 -0.2132 -0.2497
 5982SOL    HW120838   3.929   0.397   9.382  0.6251  0.3694  0.1399
 5982SOL    HW220839   3.916   0.548   9.385 -0.9204  0.2619 -0.2974
 5983SOL     OW20840   3.867   8.246   8.690 -0.2660 -0.1871 -0.1668
 5983SOL    HW120841   3.936   8.299   8.729 -0.7153  0.0653  0.3124
 5983SOL    HW220842   3.912   8.175   8.646  0.2600 -0.6675  1.1053
 5984SOL     OW20843   6.983   1.196   4.567 -0.0151  0.3666  0.1534
 5984SOL    HW120844   6.978   1.110   4.526 -0.9647  0.9752 -1.0395
 5984SOL    HW220845   7.072   1.226   4.547  0.3070 -0.2948  0.5334
 5985SOL     OW20846   8.872   3.943   0.433 -0.1566  0.5514  0.2449
 5985SOL    HW120847   8.884   3.963   0.526 -0.0357 -0.6314  0.5048
 5985SOL    HW220848   8.961   3.946   0.396  0.1115 -1.1523  0.6589
 5986SOL     OW20849   1.235   7.341   5.308  0.3548  0.6874 -0.5141
 5986SOL    HW120850   1.181   7.294   5.372  3.3355  0.6287  2.1995
 5986SOL    HW220851   1.287   7.272   5.265  0.1635  0.9651 -1.2098
 5987SOL     OW20852   8.122   4.821   1.384  0.7057 -0.5505 -0.5448
 5987SOL    HW120853   8.155   4.874   1.456 -1.5899 -0.0596  0.2571
 5987SOL    HW220854   8.199   4.797   1.333  2.0225  2.2639 -0.0775
 5988SOL     OW20855   6.944   8.917   3.704  0.0188  0.1495 -0.1289
 5988SOL    HW120856   7.020   8.959   3.663 -0.4782 -0.9608 -2.4006
 5988SOL    HW220857   6.877   8.985   3.706  0.8341  0.9616  1.3279
 5989SOL     OW20858   6.527   5.310   5.248  0.4066 -0.5393  0.3122
 5989SOL    HW120859   6.575   5.346   5.322  0.3392 -0.8531  0.5076
 5989SOL    HW220860   6.480   5.385   5.211 -0.9530 -0.6967  1.6324
 5990SOL     OW20861   2.775   5.228   5.116  0.3454 -0.1608 -0.0140
 5990SOL    HW120862   2.753   5.295   5.182 -0.3451 -0.3570 -0.0316
 5990SOL    HW220863   2.794   5.150   5.168  0.9041 -0.0255 -0.0048
 5991SOL     OW20864   0.311   0.152   8.609  0.4189 -0.3067 -0.0854
 5991SOL    HW120865   0.395   0.140   8.564 -0.1486 -0.9144 -1.0400
 5991SOL    HW220866   0.270   0.065   8.606 -1.1798  0.4247 -1.6427
 5992SOL     OW20867   3.335   2.851   6.480 -0.3552  0.4739  0.9253
 5992SOL    HW120868   3.367   2.847   6.570 -0.5692 -0.2155  0.9769
 5992SOL    HW220869   3.370   2.934   6.446  1.0867 -0.0295  1.1237
 5993SOL     OW20870   5.906   8.291   0.224 -0.0468 -0.0580 -0.4246
 5993SOL    HW120871   5.888   8.199   0.205  0.5689 -0.5990  1.3190
 5993SOL    HW220872   5.823   8.326   0.255  0.1358 -0.6001  0.7688
 5994SOL     OW20873   0.328   5.497   7.886  0.0763 -0.0895 -0.4253
 5994SOL    HW120874   0.263   5.530   7.948  0.2799 -0.4133 -0.0401
 5994SOL    HW220875   0.276   5.463   7.813 -0.1588  0.4710 -0.5314
 5995SOL     OW20876   5.270   3.342   2.808  0.0126 -0.2796  0.2617
 5995SOL    HW120877   5.256   3.437   2.808 -0.3214 -0.3285  0.2745
 5995SOL    HW220878   5.365   3.332   2.803  0.0299  0.0516 -0.1467
 5996SOL     OW20879   4.948   4.266   8.507  0.3799  0.6792  0.0362
 5996SOL    HW120880   4.982   4.214   8.434 -0.4399 -2.2931  1.6379
 5996SOL    HW220881   5.023   4.276   8.566  0.2985  0.4773  0.1740
 5997SOL     OW20882   5.755   7.109   5.801 -0.1493  0.8001 -0.3751
 5997SOL    HW120883   5.734   7.016   5.805  0.7600  0.5986 -0.1822
 5997SOL    HW220884   5.802   7.120   5.719 -0.7099  1.1888 -0.6486
 5998SOL     OW20885   9.130   8.144   7.425  0.2299 -0.3895  0.0126
 5998SOL    HW120886   9.152   8.053   7.408  2.9466 -0.2498  2.1396
 5998SOL    HW220887   9.046   8.141   7.470  0.4174 -1.8691  0.2932
 5999SOL     OW20888   1.903   6.459   6.314 -0.2171 -0.8294  0.4216
 5999SOL    HW120889   1.933   6.430   6.400  0.2704  2.3813  1.4644
 5999SOL    HW220890   1.959   6.533   6.293 -1.0863 -0.8125 -2.1817
 6000SOL     OW20891   3.943   1.896   7.083 -0.4318  0.1104  0.2790
 6000SOL    HW120892   3.884   1.836   7.128 -0.4676 -0.2956 -0.2962
 6000SOL    HW220893   4.030   1.872   7.115 -0.4159 -0.4618 -0.1795
 6001SOL     OW20894   4.188   5.654   2.513 -0.0301  0.1745  0.1134
 6001SOL    HW120895   4.254   5.702   2.564 -0.1194 -1.3602  1.7963
 6001SOL    HW220896   4.107   5.666   2.561  0.0691 -2.1042  0.9747
 6002SOL     OW20897   6.748   6.997   0.939  0.3065 -0.3912 -0.4478
 6002SOL    HW120898   6.842   7.009   0.956  0.2032  1.5434 -0.9343
 6002SOL    HW220899   6.730   7.055   0.865 -2.0991  2.9816  2.4117
 6003SOL     OW20900   3.586   8.536   3.083  0.6753 -0.0741 -0.5818
 6003SOL    HW120901   3.600   8.449   3.046  0.6269 -0.0040 -0.7672
 6003SOL    HW220902   3.513   8.572   3.032  0.1581 -0.2402  0.0383
 6004SOL     OW20903   6.634   1.169   5.140  0.8311  0.2016  0.1542
 6004SOL    HW120904   6.641   1.255   5.182 -0.4859  0.0343  0.7672
 6004SOL    HW220905   6.586   1.115   5.203 -0.2632 -0.3694 -1.1126
 6005SOL     OW20906   7.002   2.201   0.158  0.2635 -0.2443 -0.2191
 6005SOL    HW120907   6.998   2.191   0.254  0.8168 -0.5489 -0.2235
 6005SOL    HW220908   6.970   2.117   0.124  0.5853 -0.3377 -0.2948
 6006SOL     OW20909   5.576   7.773   1.870 -0.5263 -0.0658  0.2152
 6006SOL    HW120910   5.612   7.735   1.790 -1.6033  1.4114 -1.0480
 6006SOL    HW220911   5.649   7.775   1.931  0.0927 -2.0619 -0.3878
 6007SOL     OW20912   5.925   5.799   3.600 -0.2450  0.1882 -0.0821
 6007SOL    HW120913   5.985   5.862   3.640 -0.2078  0.3525 -0.3940
 6007SOL    HW220914   5.849   5.852   3.574 -0.6020 -0.0423  0.4527
 6008SOL     OW20915   4.593   3.391   6.036 -0.0043  0.0072 -0.1151
 6008SOL    HW120916   4.579   3.477   5.996 -0.1554 -0.5901 -1.3787
 6008SOL    HW220917   4.573   3.405   6.129 -1.1061  1.0707 -0.4903
 6009SOL     OW20918   9.379   5.766   8.576  0.4085 -0.0642  0.3790
 6009SOL    HW120919   9.450   5.766   8.511  1.5161 -1.1123  1.5302
 6009SOL    HW220920   9.375   5.676   8.607 -2.0211 -0.2354 -0.2234
 6010SOL     OW20921   6.412   7.633   2.069  0.0849  0.0071 -0.2205
 6010SOL    HW120922   6.373   7.611   2.153  0.6707 -0.2078 -0.0023
 6010SOL    HW220923   6.505   7.648   2.088 -0.0873  1.6748 -0.5219
 6011SOL     OW20924   7.883   6.641   1.257 -0.5556  0.6331  0.0349
 6011SOL    HW120925   7.959   6.625   1.313 -0.1299  2.1292 -0.0762
 6011SOL    HW220926   7.886   6.571   1.192  0.5881  0.5310  0.1763
 6012SOL     OW20927   3.521   0.876   9.370  0.1921 -0.1354 -1.1832
 6012SOL    HW120928   3.527   0.792   9.324  1.1021  0.1308 -1.5684
 6012SOL    HW220929   3.446   0.920   9.329 -0.9479 -1.1561 -0.2841
 6013SOL     OW20930   4.462   2.250   5.962 -0.1043 -0.1929 -0.0919
 6013SOL    HW120931   4.451   2.155   5.960  0.3400 -0.2407 -1.1117
 6013SOL    HW220932   4.394   2.283   5.904 -0.5323  0.1497  0.5992
 6014SOL     OW20933   1.427   9.221   9.542  0.0060  0.1354  0.3354
 6014SOL    HW120934   1.474   9.166   9.479 -1.8804  0.8450 -1.7861
 6014SOL    HW220935   1.381   9.285   9.489  0.3288  2.4005  2.6211
 6015SOL     OW20936   3.061   2.585   7.229 -0.0908  0.5660  0.9995
 6015SOL    HW120937   3.085   2.497   7.260  1.2956  0.8855  0.8910
 6015SOL    HW220938   3.102   2.644   7.292 -0.3123  1.1576  0.5956
 6016SOL     OW20939   5.601   0.087   3.564 -0.1161 -0.1891  0.4980
 6016SOL    HW120940   5.588   0.115   3.654 -0.0472 -0.6275  0.6484
 6016SOL    HW220941   5.678   0.135   3.534  1.5719 -2.0586  1.5810
 6017SOL     OW20942   7.160   2.899   5.550  0.0639  0.5305 -0.1938
 6017SOL    HW120943   7.125   2.863   5.632  1.0706 -0.1527 -0.0404
 6017SOL    HW220944   7.183   2.822   5.498 -0.2100  0.9638 -0.9680
 6018SOL     OW20945   2.159   6.013   0.801  0.2485 -0.4730  0.0379
 6018SOL    HW120946   2.099   5.954   0.845 -0.7552  0.5263  0.0634
 6018SOL    HW220947   2.220   6.041   0.870 -1.0886  0.7998  0.7839
 6019SOL     OW20948   0.758   3.915   7.189 -0.3504  0.1490  0.0958
 6019SOL    HW120949   0.718   3.836   7.153  0.6449  0.0281 -0.7941
 6019SOL    HW220950   0.806   3.884   7.266  1.2916 -0.4347 -1.0927
 6020SOL     OW20951   6.295   1.637   7.151 -0.4671  0.5044  0.2151
 6020SOL    HW120952   6.222   1.644   7.090  0.1172  0.5292 -0.4967
 6020SOL    HW220953   6.371   1.618   7.095 -0.4759 -3.1481  1.1664
 6021SOL     OW20954   1.313   0.515   4.006  0.1905  0.4109 -0.2624
 6021SOL    HW120955   1.269   0.431   4.020  0.8748  0.1111  0.1359
 6021SOL    HW220956   1.317   0.555   4.093  0.5967  0.4840 -0.3112
 6022SOL     OW20957   2.245   2.383   8.063 -0.5636  0.3106 -0.0078
 6022SOL    HW120958   2.283   2.416   7.982  1.3447 -0.4080  0.5313
 6022SOL    HW220959   2.305   2.412   8.132 -0.2549 -1.8761  0.7547
 6023SOL     OW20960   4.124   0.406   2.262  0.3597 -0.3488 -0.4843
 6023SOL    HW120961   4.058   0.447   2.319  2.1742  0.9824  0.7886
 6023SOL    HW220962   4.171   0.480   2.223  0.9857 -1.2593 -1.5217
 6024SOL     OW20963   0.428   1.098   9.237  0.2394 -0.0253  0.1170
 6024SOL    HW120964   0.401   1.163   9.173 -0.2329 -0.9077 -0.6108
 6024SOL    HW220965   0.509   1.061   9.202 -0.6469 -1.3594 -0.6420
 6025SOL     OW20966   6.401   5.269   9.414 -0.0704 -0.4095 -0.2457
 6025SOL    HW120967   6.381   5.361   9.430 -0.5021 -0.3480 -1.0724
 6025SOL    HW220968   6.485   5.254   9.457 -1.1705 -0.3033  2.1403
 6026SOL     OW20969   6.726   1.361   5.861  0.3307 -0.4451 -0.5967
 6026SOL    HW120970   6.669   1.434   5.835  1.5604  0.3826 -1.0431
 6026SOL    HW220971   6.712   1.295   5.794  0.3035 -0.0187 -1.0201
 6027SOL     OW20972   2.927   1.168   7.409 -0.2487 -0.2080 -0.5392
 6027SOL    HW120973   2.988   1.100   7.382  1.6887  0.4714  1.7729
 6027SOL    HW220974   2.852   1.120   7.446  0.1136 -1.0780 -0.9130
 6028SOL     OW20975   4.045   0.435   8.114  0.2662  0.3257  0.7764
 6028SOL    HW120976   4.076   0.345   8.127  1.1102  0.3234 -0.9658
 6028SOL    HW220977   3.951   0.430   8.132  0.5034 -0.6359  1.8471
 6029SOL     OW20978   8.936   9.390   8.445 -0.2095  0.1359 -0.0529
 6029SOL    HW120979   9.018   9.433   8.420 -0.1622  1.4718  2.1267
 6029SOL    HW220980   8.878   9.462   8.470 -1.0354 -0.9208  1.1982
 6030SOL     OW20981   4.705   2.348   2.025  0.1177 -0.0676  0.4252
 6030SOL    HW120982   4.680   2.416   1.962 -2.2008 -1.2174 -0.0059
 6030SOL    HW220983   4.664   2.374   2.107  1.4126  0.3598  0.9630
 6031SOL     OW20984   1.289   6.866   3.914 -0.1159 -0.2964 -0.0951
 6031SOL    HW120985   1.208   6.895   3.872 -0.0070 -1.0269 -0.8344
 6031SOL    HW220986   1.263   6.843   4.004 -1.0778 -2.0588 -0.7755
 6032SOL     OW20987   7.617   8.074   3.866 -0.2269  0.2606  0.0045
 6032SOL    HW120988   7.683   8.068   3.797  0.7091  1.2428  0.7721
 6032SOL    HW220989   7.613   8.167   3.888  1.5162 -0.2592  3.1055
 6033SOL     OW20990   8.342   0.307   8.358  0.6973 -0.3523  0.0076
 6033SOL    HW120991   8.270   0.282   8.416  0.1810 -0.8389 -0.8253
 6033SOL    HW220992   8.321   0.266   8.275  1.6351  0.0085 -0.4203
 6034SOL     OW20993   2.247   2.784   6.754  0.3976  0.0273 -0.0784
 6034SOL    HW120994   2.283   2.730   6.824  2.6388  1.9052  0.3262
 6034SOL    HW220995   2.267   2.736   6.674  0.6632 -0.6276  0.3697
 6035SOL     OW20996   3.733   7.666   8.844  0.1317 -0.3693 -0.2211
 6035SOL    HW120997   3.722   7.620   8.760  2.2613  0.7203 -1.1826
 6035SOL    HW220998   3.754   7.756   8.819  0.6530  0.0184  1.4921
 6036SOL     OW20999   4.143   5.182   5.960  0.1825  0.6690  0.1326
 6036SOL    HW121000   4.210   5.238   5.999  0.8566  0.4625 -0.6903
 6036SOL    HW221001   4.192   5.107   5.926 -0.5231  0.3079 -0.1068
 6037SOL     OW21002   4.762   1.366   3.602  0.2838  0.1188 -0.3282
 6037SOL    HW121003   4.810   1.286   3.579 -0.2120 -0.0914 -0.6627
 6037SOL    HW221004   4.728   1.350   3.690  1.5357  0.6132  0.2705
 6038SOL     OW21005   2.083   8.714   3.471  0.0332 -0.6603  0.1939
 6038SOL    HW121006   2.081   8.810   3.461 -1.9222 -0.8719 -2.4686
 6038SOL    HW221007   2.016   8.682   3.411  2.0506 -3.8572 -0.5996
 6039SOL     OW21008   6.875   7.129   0.172 -1.1483 -0.2135  0.3474
 6039SOL    HW121009   6.965   7.153   0.195  0.3177 -3.4640 -1.2449
 6039SOL    HW221010   6.821   7.198   0.210  2.0685  2.5716  0.3775
 6040SOL     OW21011   8.068   2.392   2.183  0.0045  0.0825  0.0081
 6040SOL    HW121012   8.084   2.480   2.217  0.1218 -0.8436  2.5983
 6040SOL    HW221013   7.974   2.389   2.167  0.1680  1.0133 -1.2178
 6041SOL     OW21014   5.329   7.237   7.169 -0.2493 -0.6752 -0.5425
 6041SOL    HW121015   5.295   7.177   7.103 -2.1272 -1.1788  0.7991
 6041SOL    HW221016   5.422   7.245   7.149 -0.2359 -2.8791 -1.6374
 6042SOL     OW21017   1.309   6.696   1.120 -0.0390 -0.4960  0.0392
 6042SOL    HW121018   1.379   6.711   1.184  0.9200 -0.4032 -1.0122
 6042SOL    HW221019   1.229   6.714   1.169  0.6775 -0.3080  1.1886
 6043SOL     OW21020   8.037   7.593   9.407 -0.2272 -0.0434  0.1822
 6043SOL    HW121021   8.035   7.675   9.358  0.7530 -1.3779 -2.2299
 6043SOL    HW221022   8.130   7.578   9.425 -0.0839 -1.8617 -1.7370
 6044SOL     OW21023   2.243   3.288   0.446  0.7918  0.1500 -0.6203
 6044SOL    HW121024   2.214   3.225   0.512 -0.3693  0.7203 -0.5504
 6044SOL    HW221025   2.315   3.244   0.400  0.4880 -0.9293 -0.0931
 6045SOL     OW21026   4.613   8.872   0.519 -0.3943 -0.3599 -0.4819
 6045SOL    HW121027   4.561   8.804   0.562 -0.4456  0.8492  1.4713
 6045SOL    HW221028   4.563   8.952   0.530  1.5982  0.7582  1.0638
 6046SOL     OW21029   7.222   7.729   9.197 -0.6952 -0.2060 -0.1961
 6046SOL    HW121030   7.223   7.747   9.291  0.4061  1.1919 -0.4464
 6046SOL    HW221031   7.293   7.666   9.184  0.0576  0.6227 -0.2441
 6047SOL     OW21032   1.618   4.603   5.321  0.0587 -0.1054  0.2279
 6047SOL    HW121033   1.668   4.535   5.276 -0.2487 -0.7308  0.8031
 6047SOL    HW221034   1.527   4.588   5.293 -0.1966 -0.7657  1.3441
 6048SOL     OW21035   5.318   5.840   6.563  0.6572 -0.0555 -0.7146
 6048SOL    HW121036   5.300   5.852   6.656  0.8777  0.1749 -0.7022
 6048SOL    HW221037   5.344   5.926   6.531 -0.3797  0.0912 -1.2095
 6049SOL     OW21038   6.259   6.779   6.259  0.0692  0.4373 -0.0030
 6049SOL    HW121039   6.313   6.732   6.195  1.2628  1.4740  0.2081
 6049SOL    HW221040   6.208   6.841   6.207  0.3542  0.6391 -0.0446
 6050SOL     OW21041   0.328   4.765   8.501  0.1300 -0.2134 -0.1380
 6050SOL    HW121042   0.279   4.697   8.547 -0.7217  0.1290 -0.5155
 6050SOL    HW221043   0.371   4.719   8.428  1.9975 -0.8754  1.3053
 6051SOL     OW21044   4.833   1.717   5.306  0.4039 -0.5508 -0.0563
 6051SOL    HW121045   4.868   1.672   5.383  2.1698  2.8667  1.3263
 6051SOL    HW221046   4.738   1.704   5.311  0.4379 -0.1475  2.9112
 6052SOL     OW21047   2.929   8.537   2.590 -0.0522  0.5894  0.2937
 6052SOL    HW121048   2.959   8.474   2.524  0.3610 -0.8313  1.7512
 6052SOL    HW221049   2.981   8.516   2.668 -1.4308  1.3309  1.4597
 6053SOL     OW21050   7.092   5.139   8.586 -0.6023  0.0098 -0.0478
 6053SOL    HW121051   7.142   5.077   8.640 -1.6837 -0.8711 -0.0377
 6053SOL    HW221052   7.134   5.223   8.603  0.2102 -0.5381  0.7852
 6054SOL     OW21053   2.294   3.350   1.449  0.1053  0.1069 -0.3578
 6054SOL    HW121054   2.385   3.325   1.467  0.3330  0.0880 -1.4388
 6054SOL    HW221055   2.245   3.268   1.454  0.1941  0.0701 -0.0625
 6055SOL     OW21056   1.957   1.365   7.448 -0.3417 -0.0914  0.3337
 6055SOL    HW121057   1.932   1.310   7.523  3.6489  0.1181  2.1011
 6055SOL    HW221058   1.964   1.453   7.484  3.3803 -0.2576  0.4234
 6056SOL     OW21059   8.277   6.246   7.721 -0.1095 -0.6124 -0.0144
 6056SOL    HW121060   8.195   6.210   7.687  0.2550 -0.3060 -1.2464
 6056SOL    HW221061   8.277   6.337   7.692 -0.1962 -0.0724  1.5808
 6057SOL     OW21062   8.946   3.629   3.069  0.4296  0.2556 -0.3563
 6057SOL    HW121063   8.953   3.709   3.121 -1.6007  0.9899 -1.1211
 6057SOL    HW221064   8.876   3.579   3.112  0.9577 -0.6292 -0.5072
 6058SOL     OW21065   9.504   4.523   5.838 -0.1060  0.3382  0.0278
 6058SOL    HW121066   9.582   4.523   5.783 -0.0983 -0.8978  0.0037
 6058SOL    HW221067   9.522   4.587   5.906  0.8108  0.2829 -0.1509
 6059SOL     OW21068   8.851   4.616   3.866 -0.3639  0.0749  0.1152
 6059SOL    HW121069   8.859   4.711   3.868  2.0093 -0.0816  0.3883
 6059SOL    HW221070   8.923   4.587   3.811 -0.4418 -1.6373  0.8561
 6060SOL     OW21071   1.720   0.874   9.271  0.4792 -0.0883  0.4304
 6060SOL    HW121072   1.630   0.890   9.243  0.1405  0.2680  1.7078
 6060SOL    HW221073   1.771   0.885   9.191 -0.7618 -1.9738 -0.7182
 6061SOL     OW21074   4.559   3.697   7.895  0.0337 -0.3490 -0.0437
 6061SOL    HW121075   4.619   3.682   7.822  0.5952 -2.2139  0.7403
 6061SOL    HW221076   4.607   3.666   7.972 -0.3943  1.9237  1.2177
 6062SOL     OW21077   1.411   4.893   6.499 -0.2029 -0.0764 -0.8379
 6062SOL    HW121078   1.434   4.821   6.440 -1.1660 -0.0514 -1.2701
 6062SOL    HW221079   1.459   4.968   6.465 -0.9190 -0.0125 -1.7464
 6063SOL     OW21080   6.043   7.163   1.040 -0.1991  0.0174 -0.1269
 6063SOL    HW121081   5.960   7.139   0.998  0.0440 -1.2964  0.1043
 6063SOL    HW221082   6.017   7.206   1.121 -0.6612  0.2164 -0.3737
 6064SOL     OW21083   3.282   9.168   5.103  0.0496  0.3733 -0.4976
 6064SOL    HW121084   3.359   9.225   5.110  1.3042 -1.3607  0.8633
 6064SOL    HW221085   3.284   9.137   5.013  0.3051  1.1683 -0.7817
 6065SOL     OW21086   5.305   4.749   9.111  0.2027  0.2830 -0.2181
 6065SOL    HW121087   5.215   4.773   9.089  0.2783  1.0781  0.2726
 6065SOL    HW221088   5.358   4.786   9.041  0.1331 -0.3313 -0.5949
 6066SOL     OW21089   3.973   5.150   5.405 -0.4868 -0.4398  0.3094
 6066SOL    HW121090   3.938   5.199   5.330 -0.4319 -0.7370  0.0883
 6066SOL    HW221091   3.972   5.214   5.477  2.2331  0.7783 -0.6157
 6067SOL     OW21092   8.654   1.265   2.232  0.0810 -0.3659 -0.3376
 6067SOL    HW121093   8.558   1.264   2.232 -0.0200  2.0725 -1.1550
 6067SOL    HW221094   8.678   1.329   2.299  1.1261 -0.5894 -0.4791
 6068SOL     OW21095   3.728   5.051   4.764  0.7992 -0.0849 -0.3442
 6068SOL    HW121096   3.748   4.972   4.814  0.8150 -0.1673 -0.4787
 6068SOL    HW221097   3.731   5.122   4.828  1.1754 -0.1420 -0.2950
 6069SOL     OW21098   8.685   3.766   1.246 -0.0192 -0.0064 -0.3289
 6069SOL    HW121099   8.636   3.848   1.236 -0.0016 -0.1373 -1.7676
 6069SOL    HW221100   8.630   3.713   1.303 -0.6913  0.5065 -0.4800
 6070SOL     OW21101   4.849   2.476   4.265 -0.2809 -0.3758 -1.0989
 6070SOL    HW121102   4.919   2.412   4.278  0.3107  0.1779 -1.5326
 6070SOL    HW221103   4.769   2.428   4.285  0.3179 -0.5210  1.3631
 6071SOL     OW21104   1.858   8.893   0.404  0.0731  0.8564  0.5200
 6071SOL    HW121105   1.947   8.927   0.403  0.3370  0.1749 -0.4360
 6071SOL    HW221106   1.864   8.806   0.364 -0.9293  0.5655  0.9553
 6072SOL     OW21107   9.126   3.173   2.855  0.1849  0.3185 -0.4010
 6072SOL    HW121108   9.037   3.182   2.820  0.1525  0.7622 -0.2119
 6072SOL    HW221109   9.127   3.230   2.932 -0.1029 -1.5506  1.0559
 6073SOL     OW21110   1.542   3.448   3.116  0.2639 -0.5173 -0.0824
 6073SOL    HW121111   1.449   3.456   3.138  0.7676 -0.1490  2.2388
 6073SOL    HW221112   1.578   3.535   3.135  1.4503 -1.2707  1.3153
 6074SOL     OW21113   9.067   8.361   9.033  0.2432  0.2005 -0.1095
 6074SOL    HW121114   9.062   8.385   9.125  0.4176  1.6586 -0.4632
 6074SOL    HW221115   8.990   8.401   8.992  0.4304 -0.0136 -0.6963
 6075SOL     OW21116   1.474   3.668   6.850  0.2820  0.7923  0.0834
 6075SOL    HW121117   1.477   3.762   6.831  1.6443  0.2808 -2.7851
 6075SOL    HW221118   1.490   3.626   6.765 -4.5353 -2.1699  0.2867
 6076SOL     OW21119   3.929   7.718   6.002 -0.4594 -0.2615 -0.6946
 6076SOL    HW121120   4.023   7.711   6.021 -0.5282  1.0980  0.3520
 6076SOL    HW221121   3.889   7.648   6.054 -0.1547  0.2030  0.2020
 6077SOL     OW21122   5.622   0.028   4.371  0.1129 -0.1175 -0.3815
 6077SOL    HW121123   5.613  -0.023   4.291  0.7892  0.0974 -0.6032
 6077SOL    HW221124   5.706   0.001   4.408  1.3795  2.0383 -1.4243
 6078SOL     OW21125   2.010   5.323   2.862 -0.1986 -0.6004 -0.0189
 6078SOL    HW121126   2.074   5.374   2.812 -1.2091 -0.0622 -0.7940
 6078SOL    HW221127   2.022   5.233   2.831  3.2617 -1.4394  3.0527
 6079SOL     OW21128   9.523   4.103   2.199 -0.1269  0.2840  0.1941
 6079SOL    HW121129   9.445   4.140   2.239 -1.5283  0.0359 -2.1310
 6079SOL    HW221130   9.575   4.070   2.273 -1.2249  2.2182  1.9494
 6080SOL     OW21131   8.887   0.041   5.491  0.0530 -0.5704 -0.1439
 6080SOL    HW121132   8.810   0.074   5.537  0.9160  0.9200  0.2898
 6080SOL    HW221133   8.852  -0.002   5.413 -1.1108  2.4156 -1.3970
 6081SOL     OW21134   0.034   3.583   0.277 -0.3705  0.1283  0.2649
 6081SOL    HW121135   0.097   3.607   0.345  1.1012  0.1092 -1.0659
 6081SOL    HW221136   0.063   3.497   0.247 -0.2736  0.6693 -1.2387
 6082SOL     OW21137   3.471   1.290   7.048 -0.3998 -0.4012 -0.6367
 6082SOL    HW121138   3.509   1.282   7.135  0.2481  1.5602 -0.7056
 6082SOL    HW221139   3.400   1.225   7.047  0.2035 -1.1284  0.9907
 6083SOL     OW21140   3.140   3.976   4.242 -0.7220  0.2264 -0.2770
 6083SOL    HW121141   3.188   4.003   4.164 -0.2405 -0.6751 -0.3007
 6083SOL    HW221142   3.147   3.881   4.243 -0.5218  0.2397  0.9877
 6084SOL     OW21143   4.266   3.769   1.234 -0.2978  0.4722 -0.1024
 6084SOL    HW121144   4.338   3.710   1.257  0.4987  0.9198 -1.3714
 6084SOL    HW221145   4.241   3.809   1.318  0.3465 -0.3278  0.4893
 6085SOL     OW21146   4.978   6.772   5.568 -0.2355  0.1905  0.1349
 6085SOL    HW121147   4.996   6.737   5.655  0.5171 -2.6293 -1.0409
 6085SOL    HW221148   4.934   6.856   5.584  2.1458  1.0506  3.1853
 6086SOL     OW21149   9.360   1.105   0.344  0.2670 -0.4424  0.0860
 6086SOL    HW121150   9.384   1.182   0.397  2.4468 -1.2562  0.3884
 6086SOL    HW221151   9.346   1.035   0.408  2.4652 -1.3164 -0.2902
 6087SOL     OW21152   2.075   9.075   7.765  0.1738  1.1760  0.0452
 6087SOL    HW121153   2.091   9.115   7.851  1.6835  1.6782 -0.4311
 6087SOL    HW221154   2.153   9.022   7.749 -0.3992  0.5488 -0.7337
 6088SOL     OW21155   7.902   5.983   4.775  0.2078 -0.0186  0.4441
 6088SOL    HW121156   7.991   5.977   4.739 -1.0560 -2.6452 -2.8071
 6088SOL    HW221157   7.854   6.037   4.713 -0.9104 -0.2639  1.0603
 6089SOL     OW21158   6.605   0.504   6.922  0.1463 -0.1391 -0.5318
 6089SOL    HW121159   6.584   0.575   6.983  0.2225  0.3978 -1.1318
 6089SOL    HW221160   6.520   0.472   6.892  0.1235  0.3689 -1.0292
 6090SOL     OW21161   3.047   5.470   2.066  0.2076  0.1187 -0.3444
 6090SOL    HW121162   3.100   5.418   2.126  0.3382  0.7664  0.1159
 6090SOL    HW221163   3.083   5.451   1.979 -0.3588 -1.2734 -0.2937
 6091SOL     OW21164   4.429   1.898   2.458 -0.3794 -0.1436 -0.6410
 6091SOL    HW121165   4.391   1.813   2.482  3.2561 -1.8086 -0.0141
 6091SOL    HW221166   4.384   1.962   2.512 -2.5710 -1.7780 -0.4096
 6092SOL     OW21167   1.999   0.230   6.658  0.1660  0.0342 -0.5343
 6092SOL    HW121168   1.914   0.225   6.701  0.2879  2.1852  0.0523
 6092SOL    HW221169   2.011   0.323   6.639  2.3027 -0.2445 -0.7741
 6093SOL     OW21170   1.818   1.809   2.683 -0.0187  0.3705  0.6233
 6093SOL    HW121171   1.905   1.770   2.687 -0.6506 -1.2622 -0.4283
 6093SOL    HW221172   1.795   1.806   2.590 -1.0113  1.2550  0.8119
 6094SOL     OW21173   8.824   6.447   2.678  0.6150  0.0895 -0.0049
 6094SOL    HW121174   8.881   6.477   2.607 -0.7447 -1.0359 -1.6603
 6094SOL    HW221175   8.743   6.420   2.634  0.3607 -2.3341  1.7302
 6095SOL     OW21176   4.810   4.488   6.653  0.0101 -0.3038 -0.0766
 6095SOL    HW121177   4.798   4.429   6.579  0.0748 -0.7540  0.2727
 6095SOL    HW221178   4.900   4.518   6.645  1.1322 -2.9424  1.6904
 6096SOL     OW21179   3.588   7.538   6.972  0.2718  0.3510 -0.2426
 6096SOL    HW121180   3.563   7.510   6.883  1.4206  1.3607 -0.9046
 6096SOL    HW221181   3.649   7.470   7.001  1.7401  1.2080 -1.1856
 6097SOL     OW21182   4.365   6.765   2.319  0.0373 -0.6425 -0.4158
 6097SOL    HW121183   4.372   6.670   2.333  0.0651 -0.7006 -0.8029
 6097SOL    HW221184   4.376   6.775   2.224 -2.2495 -0.4566 -0.7085
 6098SOL     OW21185   0.804   7.389   2.127  0.1294  0.2404 -0.2295
 6098SOL    HW121186   0.746   7.349   2.064 -0.4573 -0.6199  0.8264
 6098SOL    HW221187   0.772   7.479   2.136  0.1250  0.3196 -1.0237
 6099SOL     OW21188   9.417   8.758   3.563 -0.3161 -0.0790  0.0577
 6099SOL    HW121189   9.428   8.682   3.621 -0.4125  0.9115  1.4106
 6099SOL    HW221190   9.343   8.805   3.600 -1.5235 -0.3146 -1.9125
 6100SOL     OW21191   3.583   4.969   5.556 -0.8264 -0.3233 -0.1454
 6100SOL    HW121192   3.671   5.001   5.533  0.0749 -3.5917 -1.9851
 6100SOL    HW221193   3.597   4.916   5.635 -1.0747 -1.0714 -0.5960
 6101SOL     OW21194   6.853   1.729   8.422  0.3608 -0.5701  0.1518
 6101SOL    HW121195   6.878   1.730   8.514  0.8698  0.3296  0.0134
 6101SOL    HW221196   6.789   1.799   8.414 -1.7193 -2.3343  0.3370
 6102SOL     OW21197   5.032   2.344   6.087 -0.1871 -0.3286 -0.3177
 6102SOL    HW121198   5.019   2.318   6.178  2.5496 -0.5273  0.0782
 6102SOL    HW221199   4.961   2.407   6.071 -2.1825 -2.0241  1.1390
 6103SOL     OW21200   5.572   7.267   7.674  0.5912 -0.6834  0.4240
 6103SOL    HW121201   5.600   7.325   7.745  0.0847  0.6697 -0.4422
 6103SOL    HW221202   5.516   7.202   7.716  0.0639  0.2706  1.2438
 6104SOL     OW21203   2.737   5.860   1.134  0.2052 -0.0756  0.2189
 6104SOL    HW121204   2.734   5.941   1.185  0.1795 -0.5742  1.0252
 6104SOL    HW221205   2.823   5.824   1.152  1.4880  1.2927 -2.5823
 6105SOL     OW21206   6.793   2.136   3.176  0.3144  0.3009  0.0926
 6105SOL    HW121207   6.744   2.211   3.141  1.7082  1.3832  0.3851
 6105SOL    HW221208   6.794   2.073   3.104  1.1277  1.5365 -1.0295
 6106SOL     OW21209   2.135   0.488   1.813  0.2555  0.5982 -0.3899
 6106SOL    HW121210   2.056   0.436   1.800  1.4291 -0.9194 -1.9062
 6106SOL    HW221211   2.114   0.574   1.776 -1.5995  1.2069  1.8631
 6107SOL     OW21212   1.832   6.514   2.135  0.3904 -0.3357 -0.7845
 6107SOL    HW121213   1.802   6.429   2.103 -2.4870 -0.4148  1.7586
 6107SOL    HW221214   1.864   6.497   2.223  2.5621  0.8227 -1.2724
 6108SOL     OW21215   4.374   7.234   7.691 -0.3819 -0.2043 -0.2459
 6108SOL    HW121216   4.466   7.241   7.717  0.0164 -1.0070 -1.3753
 6108SOL    HW221217   4.373   7.166   7.624 -1.5888  0.7358 -1.2268
 6109SOL     OW21218   2.927   1.452   7.895 -0.0355 -0.8295  1.1637
 6109SOL    HW121219   2.836   1.424   7.908 -0.2573 -0.6999 -0.0082
 6109SOL    HW221220   2.964   1.387   7.836 -0.5810  1.2864 -1.6833
 6110SOL     OW21221   6.966   6.877   8.916  0.3937  0.3998  0.1535
 6110SOL    HW121222   7.011   6.879   9.000  0.7142 -2.2391  0.1277
 6110SOL    HW221223   7.034   6.897   8.852  1.3541 -2.2599  0.2252
 6111SOL     OW21224   3.236   1.229   3.817  0.3901 -0.2599  0.1117
 6111SOL    HW121225   3.211   1.159   3.757 -1.5218  1.7537 -1.5963
 6111SOL    HW221226   3.180   1.215   3.894  0.8074 -1.1812  0.2721
 6112SOL     OW21227   5.390   2.671   8.104  0.0360  1.0548  0.1948
 6112SOL    HW121228   5.355   2.746   8.055 -1.3483  0.5787  0.3955
 6112SOL    HW221229   5.440   2.622   8.039 -0.5921  1.1886 -0.4046
 6113SOL     OW21230   4.777   6.660   7.090 -0.1218  0.2297 -0.6234
 6113SOL    HW121231   4.736   6.735   7.133 -0.8749  0.9065 -2.4640
 6113SOL    HW221232   4.847   6.698   7.037  0.4733 -0.5431 -0.4115
 6114SOL     OW21233   8.169   2.293   3.715  0.0265  0.2741  1.0145
 6114SOL    HW121234   8.134   2.382   3.720 -0.1691  0.3569 -1.0210
 6114SOL    HW221235   8.137   2.250   3.795 -3.4292  0.8055  0.0755
 6115SOL     OW21236   3.567   0.392   6.916  0.1737  0.4988  0.4920
 6115SOL    HW121237   3.616   0.472   6.934  1.9653 -0.6414  0.9558
 6115SOL    HW221238   3.539   0.361   7.002  0.1569  0.2389  0.3956
 6116SOL     OW21239   8.575   0.937   4.367  0.8354  0.2575 -0.0274
 6116SOL    HW121240   8.651   0.988   4.394  1.1042 -0.4037  0.4824
 6116SOL    HW221241   8.608   0.848   4.355 -0.1846 -0.4394  1.9744
 6117SOL     OW21242   6.581   2.704   3.850  0.1542  0.3344 -0.3702
 6117SOL    HW121243   6.604   2.631   3.907 -1.1676 -0.2553 -0.5611
 6117SOL    HW221244   6.537   2.766   3.908 -1.3256 -0.3318 -0.7385
 6118SOL     OW21245   5.277   1.590   4.762 -0.0795 -0.5512  0.4039
 6118SOL    HW121246   5.323   1.527   4.818 -0.9679 -1.4251  0.1754
 6118SOL    HW221247   5.188   1.593   4.797 -0.4435 -0.5506 -0.4964
 6119SOL     OW21248   8.827   4.862   9.028 -0.1373  0.3878 -0.1434
 6119SOL    HW121249   8.809   4.823   9.113  0.7327  0.8953  0.2889
 6119SOL    HW221250   8.753   4.836   8.973  0.2095 -1.4819  0.2307
 6120SOL     OW21251   2.267   4.605   1.404 -0.3507 -0.2944 -0.2389
 6120SOL    HW121252   2.210   4.542   1.448 -1.2933  0.7841  0.1593
 6120SOL    HW221253   2.337   4.622   1.467 -1.0939  0.4061  0.4337
 6121SOL     OW21254   7.460   8.985   4.254 -0.0559  0.3003  0.0179
 6121SOL    HW121255   7.428   8.916   4.196 -1.5155  0.2836  0.7850
 6121SOL    HW221256   7.414   8.970   4.337 -0.0372  1.8853  0.3563
 6122SOL     OW21257   6.100   0.641   8.265  0.2554 -0.4246 -0.1010
 6122SOL    HW121258   6.166   0.581   8.300  1.0332  1.1563  1.3258
 6122SOL    HW221259   6.127   0.727   8.298 -0.6705  0.7609 -2.2651
 6123SOL     OW21260   0.675   0.585   5.215 -0.3747 -0.4259  0.0047
 6123SOL    HW121261   0.768   0.595   5.234 -0.5213 -0.6725  0.8919
 6123SOL    HW221262   0.651   0.666   5.171  0.5472 -0.9231 -1.4610
 6124SOL     OW21263   1.492   0.800   1.402 -0.6066 -0.1366 -0.6220
 6124SOL    HW121264   1.586   0.787   1.388 -0.1044  0.6966  1.5123
 6124SOL    HW221265   1.482   0.895   1.410 -1.5393 -0.2558 -0.3183
 6125SOL     OW21266   4.772   2.705   6.275  0.7471  0.3487  0.1596
 6125SOL    HW121267   4.705   2.763   6.311  2.2914  1.2983  1.7098
 6125SOL    HW221268   4.739   2.617   6.292 -1.6964  0.6522 -2.3371
 6126SOL     OW21269   5.016   9.128   2.332 -0.0819  0.4643  0.7572
 6126SOL    HW121270   4.921   9.121   2.318 -0.3793 -1.3354  3.0558
 6126SOL    HW221271   5.028   9.214   2.372 -0.8631  0.3606  1.2347
 6127SOL     OW21272   4.331   3.165   5.142 -0.0280  0.5447  0.1707
 6127SOL    HW121273   4.366   3.248   5.174 -0.1917 -0.4205  3.0751
 6127SOL    HW221274   4.406   3.118   5.107  0.5338  0.8880  0.9017
 6128SOL     OW21275   5.731   3.262   6.865 -0.1954  0.7883 -0.9395
 6128SOL    HW121276   5.650   3.211   6.857 -1.0732  1.6924  1.2567
 6128SOL    HW221277   5.761   3.245   6.954  1.2146  1.6753 -1.2145
 6129SOL     OW21278   6.066   2.232   4.684 -0.8040  0.0112 -0.6873
 6129SOL    HW121279   5.985   2.250   4.636  0.0336  2.3394 -1.3651
 6129SOL    HW221280   6.126   2.197   4.618  0.0924  2.4775 -1.3155
 6130SOL     OW21281   5.411   8.713   4.256 -0.1679  0.0871 -0.7212
 6130SOL    HW121282   5.401   8.625   4.219  0.8727 -0.0263 -0.7783
 6130SOL    HW221283   5.498   8.741   4.226 -0.2120  0.8608 -0.1434
 6131SOL     OW21284   4.511   7.366   1.655 -0.0513 -0.3163 -0.3085
 6131SOL    HW121285   4.449   7.335   1.722 -1.5640  1.2695 -0.8845
 6131SOL    HW221286   4.535   7.454   1.685  0.4020 -0.1638 -1.1141
 6132SOL     OW21287   7.017   7.032   0.954  0.2309 -0.0096  0.0865
 6132SOL    HW121288   7.089   6.980   0.919  0.9585  1.0655 -0.0523
 6132SOL    HW221289   7.025   7.117   0.911  0.6560  1.0945  2.2182
 6133SOL     OW21290   6.403   1.485   1.122 -0.2338 -0.0496 -0.5207
 6133SOL    HW121291   6.322   1.491   1.072  0.0989 -1.4583 -1.2931
 6133SOL    HW221292   6.471   1.510   1.060  0.1058 -0.9941 -0.5492
 6134SOL     OW21293   4.113   4.380   8.430 -0.2341 -0.3967 -0.8784
 6134SOL    HW121294   4.149   4.461   8.466  0.0027 -0.0417 -1.8771
 6134SOL    HW221295   4.018   4.395   8.430 -0.2680 -0.5546 -0.0689
 6135SOL     OW21296   7.329   0.627   5.060 -0.2021 -0.3256  0.2529
 6135SOL    HW121297   7.371   0.551   5.021 -1.1963 -1.0218  0.4863
 6135SOL    HW221298   7.271   0.590   5.128 -0.9801  0.5929  0.1124
 6136SOL     OW21299   8.938   0.621   9.030 -0.3804 -0.7667  0.2278
 6136SOL    HW121300   8.902   0.533   9.020  1.1600 -1.3357 -0.4826
 6136SOL    HW221301   8.942   0.656   8.941 -0.8115 -0.0348  0.4867
 6137SOL     OW21302   5.036   7.505   0.764 -0.1549  0.0837 -0.6594
 6137SOL    HW121303   5.028   7.581   0.822  2.1568  0.1948 -0.3961
 6137SOL    HW221304   5.020   7.541   0.676  2.1316  1.2091 -0.6820
 6138SOL     OW21305   4.367   8.291   1.128  0.1552  0.2370 -0.1907
 6138SOL    HW121306   4.429   8.271   1.058  0.4686 -1.9382  0.6221
 6138SOL    HW221307   4.311   8.213   1.134 -0.6878  0.8992  1.1317
 6139SOL     OW21308   3.098   4.894   1.806 -0.1744 -0.5403 -0.5464
 6139SOL    HW121309   3.085   4.910   1.712 -0.8683  1.8841 -0.1011
 6139SOL    HW221310   3.026   4.836   1.830  0.2087 -1.4697 -1.5680
 6140SOL     OW21311   0.490   3.752   8.744  0.0404 -0.1274  0.1886
 6140SOL    HW121312   0.508   3.839   8.707  1.7664 -0.9789 -1.1038
 6140SOL    HW221313   0.515   3.759   8.836  1.1937  0.4548 -0.1599
 6141SOL     OW21314   4.711   2.473   6.396 -0.2434  0.2478  0.3463
 6141SOL    HW121315   4.623   2.494   6.427 -0.9045 -0.7385 -0.8105
 6141SOL    HW221316   4.720   2.379   6.409  0.1553  0.1274 -0.6905
 6142SOL     OW21317   4.002   5.184   1.751  0.1995  0.7080  0.6323
 6142SOL    HW121318   3.953   5.260   1.722 -0.2808  0.9409  1.9727
 6142SOL    HW221319   3.946   5.109   1.731 -0.0620  0.8539  0.8137
 6143SOL     OW21320   4.757   7.518   6.792 -0.1694 -0.3002  0.0855
 6143SOL    HW121321   4.728   7.439   6.748  1.4576 -0.2525 -1.1791
 6143SOL    HW221322   4.705   7.588   6.752 -1.8065 -0.6987  1.4000
 6144SOL     OW21323   4.033   7.104   2.399 -0.5429  0.8485  0.4842
 6144SOL    HW121324   3.974   7.102   2.475  1.0628  3.8681  1.9805
 6144SOL    HW221325   4.107   7.050   2.425 -0.2276  1.4618  0.8750
 6145SOL     OW21326   1.124   1.208   5.097  0.6352 -0.5890  0.1066
 6145SOL    HW121327   1.165   1.144   5.156  0.6202 -2.9439 -2.2207
 6145SOL    HW221328   1.062   1.156   5.046 -0.1757  1.5469 -1.2016
 6146SOL     OW21329   1.192   7.839   1.040  0.2701 -0.5600  0.0485
 6146SOL    HW121330   1.244   7.891   1.101 -0.2508 -0.1979  0.1810
 6146SOL    HW221331   1.256   7.810   0.974  0.5747  0.2186 -0.0138
 6147SOL     OW21332   9.099   1.035   1.858 -0.2483 -0.2495 -0.2702
 6147SOL    HW121333   9.004   1.050   1.856 -0.0619  0.9969 -0.8666
 6147SOL    HW221334   9.114   0.984   1.937 -1.7097 -2.7351 -1.4637
 6148SOL     OW21335   8.114   8.083   2.238 -0.1041  0.1695 -0.0922
 6148SOL    HW121336   8.072   7.997   2.233  1.2805 -0.4807 -1.1170
 6148SOL    HW221337   8.065   8.129   2.307 -1.2585 -1.2064  0.0613
 6149SOL     OW21338   7.824   4.372   8.947  0.8073  0.3165 -0.1599
 6149SOL    HW121339   7.788   4.308   8.885 -2.7731  0.3971  1.5763
 6149SOL    HW221340   7.804   4.457   8.908  1.1445  0.3837 -0.1914
 6150SOL     OW21341   3.424   3.815   4.094 -0.2819  0.8455  0.4970
 6150SOL    HW121342   3.404   3.792   4.184 -1.6012  0.3670  0.1153
 6150SOL    HW221343   3.423   3.731   4.047 -1.2447  1.2400 -0.2327
 6151SOL     OW21344   4.105   8.336   3.452  0.2199  0.3164  0.2919
 6151SOL    HW121345   4.194   8.354   3.424  0.2019 -0.6933 -0.4410
 6151SOL    HW221346   4.108   8.246   3.486 -0.6485  0.0363 -0.3465
 6152SOL     OW21347   7.343   2.362   5.073  0.6846 -0.9603  0.3333
 6152SOL    HW121348   7.345   2.287   5.014  0.6629  0.3462 -1.4159
 6152SOL    HW221349   7.326   2.324   5.159 -1.1957 -2.8075 -0.7432
 6153SOL     OW21350   6.335   0.506   5.075 -0.5784 -0.0792  0.0609
 6153SOL    HW121351   6.244   0.506   5.047 -0.8399  1.5821  0.8243
 6153SOL    HW221352   6.361   0.598   5.073  0.6898 -0.3884  1.1001
 6154SOL     OW21353   4.450   3.250   8.745  0.1508 -0.0702  0.1599
 6154SOL    HW121354   4.474   3.265   8.836 -0.3034  0.0414  0.2676
 6154SOL    HW221355   4.470   3.158   8.730 -1.2666 -0.5350  0.8755
 6155SOL     OW21356   7.467   8.799   3.432  0.5642  0.2738  0.0649
 6155SOL    HW121357   7.424   8.777   3.349  1.8872 -0.2805 -0.5173
 6155SOL    HW221358   7.439   8.888   3.451 -1.3178 -0.2736  0.0643
 6156SOL     OW21359   4.289   0.686   1.534 -0.5823 -0.0406  0.1899
 6156SOL    HW121360   4.269   0.699   1.627  0.3921 -0.6601  0.5028
 6156SOL    HW221361   4.216   0.634   1.501 -1.0618  0.3933  0.5408
 6157SOL     OW21362   7.141   5.860   3.337 -0.1733  0.4483  0.5753
 6157SOL    HW121363   7.223   5.879   3.293 -0.4769  0.6901  0.1079
 6157SOL    HW221364   7.153   5.894   3.426  0.3117  0.2679  0.5801
 6158SOL     OW21365   8.735   9.587   6.593 -0.0959 -0.2067  0.3408
 6158SOL    HW121366   8.782   9.649   6.538  3.1198 -0.6021  2.4114
 6158SOL    HW221367   8.706   9.639   6.668 -2.3814 -0.1600 -0.4907
 6159SOL     OW21368   0.933   9.147   2.844 -0.8105 -0.0994 -0.2408
 6159SOL    HW121369   0.856   9.197   2.870 -0.2481  0.2785  0.7421
 6159SOL    HW221370   0.901   9.059   2.828 -1.4750  0.0992 -0.0214
 6160SOL     OW21371   6.507   5.151   8.643 -0.1100  0.6332  0.1894
 6160SOL    HW121372   6.567   5.076   8.652  2.8711  2.8156 -0.0264
 6160SOL    HW221373   6.473   5.142   8.554  3.1847  1.3931 -1.3144
 6161SOL     OW21374   6.027   6.166   9.350 -0.2342 -0.3746  0.2854
 6161SOL    HW121375   5.937   6.185   9.325 -0.1028  0.8062  0.6531
 6161SOL    HW221376   6.042   6.077   9.318 -1.5282 -0.6025  0.2384
 6162SOL     OW21377   1.287   1.215   4.868 -0.0256 -0.3004  0.0676
 6162SOL    HW121378   1.220   1.241   4.931  2.0516  1.6003  1.6688
 6162SOL    HW221379   1.331   1.296   4.844  1.5306 -1.4164 -1.1203
 6163SOL     OW21380   3.301   4.591   7.019  0.3232  0.5088 -0.7184
 6163SOL    HW121381   3.365   4.532   6.978  0.8401  0.5258  0.0463
 6163SOL    HW221382   3.354   4.650   7.072 -0.4116 -0.3235  1.0000
 6164SOL     OW21383   7.757   4.040   0.659  0.0552  0.6046  0.2360
 6164SOL    HW121384   7.833   4.047   0.716  1.7104 -2.6777 -1.2441
 6164SOL    HW221385   7.689   4.000   0.713  0.5278  0.4578  0.7243
 6165SOL     OW21386   4.532   1.791   0.837  0.6186 -0.4893  0.6748
 6165SOL    HW121387   4.595   1.720   0.836  1.2779  0.0896 -0.4043
 6165SOL    HW221388   4.484   1.782   0.754  1.1446  0.6861  0.2210
 6166SOL     OW21389   6.735   8.527   5.344 -0.0915  0.4122  0.6660
 6166SOL    HW121390   6.652   8.489   5.317  0.2775 -0.1496  0.3128
 6166SOL    HW221391   6.753   8.488   5.429 -0.6172  1.2127  1.1675
 6167SOL     OW21392   3.480   9.610   9.337  0.2628 -0.2626  0.3797
 6167SOL    HW121393   3.409   9.664   9.301  1.3695  0.9236 -0.0763
 6167SOL    HW221394   3.525   9.575   9.260 -0.4497 -1.9104  0.6662
 6168SOL     OW21395   8.226   6.359   1.720  0.1534 -0.6789  0.0269
 6168SOL    HW121396   8.299   6.379   1.779 -0.7151  0.3666  0.8032
 6168SOL    HW221397   8.171   6.298   1.769  0.2016 -1.0204 -0.3326
 6169SOL     OW21398   8.496   0.164   0.782 -0.5079 -0.2768 -0.4407
 6169SOL    HW121399   8.538   0.242   0.746 -1.2402  0.2866 -0.1221
 6169SOL    HW221400   8.545   0.144   0.861 -1.2614  0.8219  0.3363
 6170SOL     OW21401   5.662   8.362   4.201  0.2653 -0.2719  0.4200
 6170SOL    HW121402   5.754   8.375   4.225  1.0023 -1.5196 -1.4809
 6170SOL    HW221403   5.665   8.331   4.111 -2.1366  0.9812 -0.1673
 6171SOL     OW21404   3.376   5.742   6.591  0.4008 -0.3290 -0.6134
 6171SOL    HW121405   3.377   5.829   6.631  0.7822 -1.0225  0.9491
 6171SOL    HW221406   3.295   5.702   6.623 -0.3131 -0.1950 -2.1735
 6172SOL     OW21407   6.636   2.025   4.219 -0.5763  0.5155 -0.2001
 6172SOL    HW121408   6.678   1.979   4.292 -1.1360  0.6379  0.2078
 6172SOL    HW221409   6.542   2.011   4.233 -0.7310  1.3150 -0.3839
 6173SOL     OW21410   2.116   3.560   6.936 -0.2224 -0.3982  0.4613
 6173SOL    HW121411   2.099   3.625   7.004 -2.9871 -0.0612 -0.4569
 6173SOL    HW221412   2.103   3.606   6.854 -1.2450 -1.8485 -0.2265
 6174SOL     OW21413   0.999   3.510   9.452  0.3484  0.1121  0.1716
 6174SOL    HW121414   1.047   3.474   9.526  1.0173  0.2672 -0.1825
 6174SOL    HW221415   1.060   3.571   9.411  0.0009 -0.0070 -0.5359
 6175SOL     OW21416   7.240   5.217   2.390 -0.2498 -0.3896 -0.1745
 6175SOL    HW121417   7.184   5.253   2.458 -1.3350  2.7138 -2.4679
 6175SOL    HW221418   7.324   5.200   2.433 -0.5423  2.4474  1.7509
 6176SOL     OW21419   7.524   7.349   3.818  0.3035  0.1558  0.0706
 6176SOL    HW121420   7.608   7.372   3.856  0.3037 -0.1877  0.2807
 6176SOL    HW221421   7.460   7.374   3.884  0.4024 -2.0374  1.0805
 6177SOL     OW21422   2.464   1.470   2.535 -0.0218  0.5300 -0.0539
 6177SOL    HW121423   2.535   1.406   2.523 -0.4075  0.1266 -0.1949
 6177SOL    HW221424   2.417   1.440   2.612 -0.5305  0.3327 -0.4349
 6178SOL     OW21425   8.793   9.000   8.102  0.5832 -0.4000 -0.1580
 6178SOL    HW121426   8.731   8.947   8.053  0.4563  0.0547 -0.4901
 6178SOL    HW221427   8.878   8.982   8.061  0.7110 -1.1823  0.4309
 6179SOL     OW21428   3.952   1.278   7.065 -0.3009 -0.1524 -0.6345
 6179SOL    HW121429   3.875   1.260   7.011  0.0495  0.0199 -1.2046
 6179SOL    HW221430   3.947   1.214   7.136 -0.0412 -1.3124 -1.6201
 6180SOL     OW21431   7.737   2.087   6.440 -0.4877  0.5912  0.0166
 6180SOL    HW121432   7.717   2.157   6.502  1.8557  1.4547 -0.1015
 6180SOL    HW221433   7.761   2.012   6.494 -1.0012  0.5077  0.1353
 6181SOL     OW21434   6.745   5.422   6.358  0.0608 -0.2874  0.3787
 6181SOL    HW121435   6.752   5.376   6.441  0.4267 -0.7452  0.1019
 6181SOL    HW221436   6.746   5.353   6.292 -2.3669 -0.1067  0.0538
 6182SOL     OW21437   9.492   0.952   3.120  0.4920  0.1927  0.0029
 6182SOL    HW121438   9.485   0.869   3.074  1.6011 -0.5391  1.0994
 6182SOL    HW221439   9.585   0.973   3.119  0.5187  0.2927  1.5988
 6183SOL     OW21440   5.151   8.392   8.936  0.3056 -0.1987  0.2244
 6183SOL    HW121441   5.198   8.473   8.915 -1.9260  0.4909 -2.7984
 6183SOL    HW221442   5.073   8.422   8.982  0.2042 -0.7879  0.4375
 6184SOL     OW21443   8.807   7.861   8.675  0.1594 -0.3666  0.1720
 6184SOL    HW121444   8.721   7.884   8.642 -0.1442  0.4352  1.4441
 6184SOL    HW221445   8.792   7.781   8.726  0.2559 -0.4598  0.0569
 6185SOL     OW21446   7.359   0.993   0.811 -0.0160 -0.0803 -0.0964
 6185SOL    HW121447   7.378   1.071   0.864 -0.1493  1.0845 -1.6693
 6185SOL    HW221448   7.432   0.934   0.828 -0.4481 -0.1180  1.9558
 6186SOL     OW21449   5.652   1.607   1.483 -0.5057  0.2386  0.4172
 6186SOL    HW121450   5.732   1.574   1.524 -1.2407  0.4229  2.0648
 6186SOL    HW221451   5.679   1.629   1.394  0.8602 -1.3957  0.3632
 6187SOL     OW21452   6.450   9.502   2.378 -0.3115 -0.1328 -0.0040
 6187SOL    HW121453   6.388   9.445   2.333 -1.0966  0.1265  0.7289
 6187SOL    HW221454   6.515   9.443   2.415 -0.5727 -0.4753 -0.0920
 6188SOL     OW21455   3.777   5.673   7.500  0.1980  0.6230  0.6216
 6188SOL    HW121456   3.854   5.728   7.487  0.0246  1.0519  1.3543
 6188SOL    HW221457   3.771   5.662   7.595 -0.6852  0.6451  0.5751
 6189SOL     OW21458   2.836   4.581   5.746 -0.2584 -0.0719 -0.4899
 6189SOL    HW121459   2.886   4.637   5.805 -1.2516 -0.8886  1.2094
 6189SOL    HW221460   2.758   4.632   5.724 -1.0107 -0.6163  0.8071
 6190SOL     OW21461   2.416   7.241   4.900 -0.5457 -0.6038 -0.2026
 6190SOL    HW121462   2.356   7.300   4.855 -2.1043 -1.5254  0.5576
 6190SOL    HW221463   2.419   7.163   4.844 -2.4092 -1.7132  1.1334
 6191SOL     OW21464   0.985   9.017   2.208 -0.2390  0.4495 -0.1607
 6191SOL    HW121465   1.053   8.952   2.225 -1.6286 -1.2390 -0.7760
 6191SOL    HW221466   1.004   9.088   2.269 -0.0624 -1.6163  2.3597
 6192SOL     OW21467   0.964   0.975   5.300 -0.0979 -0.2899 -0.2073
 6192SOL    HW121468   0.993   0.915   5.369  2.7628 -0.1751 -1.1503
 6192SOL    HW221469   0.959   1.060   5.343 -3.5299 -0.9634  0.9830
 6193SOL     OW21470   6.030   5.957   2.849 -0.7420 -0.1442 -0.1071
 6193SOL    HW121471   6.063   6.047   2.844 -1.4379  0.2199  1.2170
 6193SOL    HW221472   6.077   5.919   2.924 -0.3712 -0.9251 -0.7267
 6194SOL     OW21473   1.589   2.020   2.631 -0.3149  1.1973 -0.1608
 6194SOL    HW121474   1.545   1.971   2.700  1.0168  1.5081  0.9540
 6194SOL    HW221475   1.587   1.963   2.555  0.4588 -0.2758  0.8739
 6195SOL     OW21476   6.021   3.495   3.911 -0.1765  0.3703 -0.2096
 6195SOL    HW121477   6.036   3.428   3.844  2.2957 -0.0200  0.6174
 6195SOL    HW221478   5.957   3.456   3.971 -1.7699  0.3861 -1.8149
 6196SOL     OW21479   7.960   1.185   6.694 -0.3207 -0.4926  0.2561
 6196SOL    HW121480   8.052   1.191   6.718 -0.3013  0.2993  0.0172
 6196SOL    HW221481   7.959   1.130   6.615  0.0212  0.0435 -0.1269
 6197SOL     OW21482   6.419   9.519   8.190  0.2363  0.2636  0.1870
 6197SOL    HW121483   6.415   9.471   8.107 -0.4935 -0.6546  0.7395
 6197SOL    HW221484   6.483   9.470   8.243 -2.9604 -2.2928  2.0389
 6198SOL     OW21485   1.992   3.102   7.414 -0.1514 -0.0054 -0.3239
 6198SOL    HW121486   1.974   3.170   7.349  0.4654  1.0284  0.5458
 6198SOL    HW221487   1.966   3.021   7.371 -0.5743  0.7314 -1.5335
 6199SOL     OW21488   2.466   1.017   9.161  0.5648 -0.8896 -0.2020
 6199SOL    HW121489   2.379   1.055   9.174  1.5062  0.9149  1.3821
 6199SOL    HW221490   2.470   0.943   9.221  0.3436 -0.5808  0.1927
 6200SOL     OW21491   4.231   6.741   0.328 -0.7450  0.1858  0.2511
 6200SOL    HW121492   4.192   6.770   0.246  0.0960 -1.4147 -0.7653
 6200SOL    HW221493   4.173   6.673   0.360 -0.2720 -0.2625  0.1737
 6201SOL     OW21494   8.900   8.085   9.397 -0.4449  0.4816 -0.1658
 6201SOL    HW121495   8.847   8.108   9.320 -0.0053  1.0681 -0.2993
 6201SOL    HW221496   8.980   8.045   9.360 -0.3033  0.6184 -0.0056
 6202SOL     OW21497   7.875   0.908   6.280 -0.2971 -0.2251 -0.8567
 6202SOL    HW121498   7.799   0.854   6.303 -0.4822  0.3181 -0.1352
 6202SOL    HW221499   7.850   0.950   6.198 -1.1518  0.5864 -0.2215
 6203SOL     OW21500   3.090   1.091   7.893 -0.3155  0.5333  0.1853
 6203SOL    HW121501   3.150   1.060   7.961  0.0684 -1.6982 -1.0805
 6203SOL    HW221502   3.128   1.060   7.811 -3.6623 -2.0461 -0.6240
 6204SOL     OW21503   5.488   2.972   7.654 -0.1489  0.2045 -0.1884
 6204SOL    HW121504   5.555   3.024   7.610  0.0208 -1.1518 -1.6145
 6204SOL    HW221505   5.405   3.011   7.626 -0.0516 -0.7985 -2.0138
 6205SOL     OW21506   0.367   9.302   1.534 -0.3800 -0.0437  0.2383
 6205SOL    HW121507   0.385   9.210   1.512  1.2980 -0.6877  3.5196
 6205SOL    HW221508   0.338   9.341   1.452  2.8908 -2.4906 -2.4154
 6206SOL     OW21509   7.032   6.634   6.337 -0.0080 -0.4114  0.4555
 6206SOL    HW121510   7.073   6.572   6.397  0.6369  0.6725  1.1764
 6206SOL    HW221511   7.093   6.708   6.333 -0.9450  0.3640 -0.0396
 6207SOL     OW21512   6.763   6.886   7.990  0.1796 -0.3381 -0.5371
 6207SOL    HW121513   6.715   6.962   8.024 -0.9963 -1.2505 -0.0520
 6207SOL    HW221514   6.700   6.814   7.996  1.8660 -1.7993  0.9122
 6208SOL     OW21515   5.021   7.369   5.736 -0.4928  0.0200 -0.4878
 6208SOL    HW121516   5.111   7.374   5.704 -0.6895 -0.7417 -1.1916
 6208SOL    HW221517   4.974   7.436   5.685 -0.7129 -0.8925 -1.5352
 6209SOL     OW21518   7.289   2.796   8.225  0.7538 -0.1788  0.3032
 6209SOL    HW121519   7.272   2.705   8.204  1.0689  0.2332 -2.0367
 6209SOL    HW221520   7.244   2.811   8.308 -1.5640 -1.7568 -0.5738
 6210SOL     OW21521   1.901   5.713   3.357 -0.3067  0.0064 -0.2777
 6210SOL    HW121522   1.848   5.791   3.338 -2.9948 -1.4256  0.9387
 6210SOL    HW221523   1.939   5.730   3.443 -0.6102  0.1146 -0.1644
 6211SOL     OW21524   5.686   8.555   4.720  0.1797 -0.0987  0.7093
 6211SOL    HW121525   5.726   8.526   4.638  0.1727  1.5041  0.1094
 6211SOL    HW221526   5.732   8.635   4.743 -0.6455  0.1343  1.6243
 6212SOL     OW21527   0.373   5.573   9.643  0.8696  0.0202 -0.2730
 6212SOL    HW121528   0.321   5.653   9.644 -0.7491 -0.9860  0.4944
 6212SOL    HW221529   0.462   5.601   9.663  0.2332  1.5632  0.4838
 6213SOL     OW21530   0.330   1.684   5.619  0.0710 -0.3199  0.3165
 6213SOL    HW121531   0.327   1.622   5.546  1.8690 -0.2101  0.0929
 6213SOL    HW221532   0.329   1.628   5.697 -0.1011 -0.5345  0.1623
 6214SOL     OW21533   2.346   0.585   6.291  0.5272  0.1345  1.0175
 6214SOL    HW121534   2.348   0.574   6.196 -1.2391  1.3383  0.7880
 6214SOL    HW221535   2.435   0.611   6.314  0.6774  1.1033 -0.5014
 6215SOL     OW21536   4.661   4.902   1.647 -0.1704  0.4891 -0.4500
 6215SOL    HW121537   4.619   4.818   1.668 -0.6009  0.7171 -0.4089
 6215SOL    HW221538   4.730   4.878   1.585  0.7117 -0.1096  0.7188
 6216SOL     OW21539   3.344   3.927   7.827 -0.4893 -0.4574  0.1753
 6216SOL    HW121540   3.327   3.925   7.733 -0.2593  0.8876  0.0760
 6216SOL    HW221541   3.439   3.924   7.834 -0.4990 -0.3541  0.3538
 6217SOL     OW21542   4.100   0.989   9.189  0.3444  0.5343 -0.3343
 6217SOL    HW121543   4.188   0.962   9.162  0.0393 -2.4741  1.2222
 6217SOL    HW221544   4.115   1.062   9.250  1.8803 -0.4034  0.4891
 6218SOL     OW21545   7.860   7.248   0.750  0.0951 -0.0826 -0.4794
 6218SOL    HW121546   7.826   7.336   0.765  1.1858  0.4265 -0.8829
 6218SOL    HW221547   7.788   7.201   0.709  0.0753  1.1534 -1.9460
 6219SOL     OW21548   9.237   5.498   3.977  0.2388  0.5342 -0.1062
 6219SOL    HW121549   9.297   5.428   3.954  0.2639  0.6240 -0.3124
 6219SOL    HW221550   9.274   5.537   4.056  2.0352  2.4427 -1.7688
 6220SOL     OW21551   3.508   0.640   9.228 -0.3535  0.5465  0.3873
 6220SOL    HW121552   3.496   0.625   9.135  4.3745  1.4149 -0.5959
 6220SOL    HW221553   3.504   0.553   9.268 -3.0961  0.2302 -0.3754
 6221SOL     OW21554   3.343   6.078   3.987  0.2480  0.6452  0.1342
 6221SOL    HW121555   3.280   6.142   3.953  0.8909  1.9930  1.3732
 6221SOL    HW221556   3.421   6.089   3.932 -0.1421 -0.1529 -0.6048
 6222SOL     OW21557   1.800   0.945   8.367  0.3836  0.0911 -0.0846
 6222SOL    HW121558   1.727   1.003   8.346  1.2943  0.9785 -0.8708
 6222SOL    HW221559   1.770   0.858   8.341 -0.6306  0.3482  0.1995
 6223SOL     OW21560   1.203   8.572   1.763 -0.5485 -0.3883  0.6066
 6223SOL    HW121561   1.240   8.656   1.789 -1.0461  0.0627 -0.0982
 6223SOL    HW221562   1.255   8.507   1.809 -0.0905  0.3034  1.0790
 6224SOL     OW21563   0.405   5.539   3.063 -0.2248 -0.2559  0.7428
 6224SOL    HW121564   0.315   5.521   3.090 -1.0229  1.2622 -0.7183
 6224SOL    HW221565   0.410   5.503   2.974 -1.1301  4.0331 -1.3250
 6225SOL     OW21566   3.419   5.716   0.120 -0.0465  0.1797  0.2500
 6225SOL    HW121567   3.421   5.810   0.098 -1.4019  0.6359  1.8480
 6225SOL    HW221568   3.506   5.684   0.098  0.2697  1.6830 -0.8601
 6226SOL     OW21569   0.078   4.156   8.358  0.3028  0.5626  0.5626
 6226SOL    HW121570   0.079   4.251   8.368 -0.4860  0.5604  0.7130
 6226SOL    HW221571   0.170   4.131   8.359  0.4936  1.1364  2.4433
 6227SOL     OW21572   2.874   6.590   6.789 -0.5875  0.2495 -0.2426
 6227SOL    HW121573   2.883   6.668   6.735  1.1781  1.0264  1.0840
 6227SOL    HW221574   2.928   6.523   6.745  0.1955  0.6426  0.0986
 6228SOL     OW21575   5.124   4.272   5.265  0.1697  0.0627  0.1383
 6228SOL    HW121576   5.047   4.283   5.321 -0.0411  0.5906 -0.2413
 6228SOL    HW221577   5.097   4.207   5.200 -0.8000  1.9102 -1.4066
 6229SOL     OW21578   4.642   2.085   2.061  0.1278  0.1642  0.0227
 6229SOL    HW121579   4.558   2.085   2.107  0.6448  0.6527  0.9991
 6229SOL    HW221580   4.650   2.174   2.026 -0.4380 -0.3096 -1.3820
 6230SOL     OW21581   4.657   5.801   7.331 -0.4661  0.3375 -0.3636
 6230SOL    HW121582   4.596   5.728   7.336  0.0681 -0.0624  0.5137
 6230SOL    HW221583   4.602   5.879   7.339 -1.0641  0.0602 -1.5272
 6231SOL     OW21584   5.745   1.634   4.882  0.9040 -0.2521 -0.4214
 6231SOL    HW121585   5.705   1.704   4.831 -0.7162 -0.8426 -0.0229
 6231SOL    HW221586   5.822   1.607   4.830  1.6980  1.9183 -0.4517
 6232SOL     OW21587   8.482   5.383   9.370  0.4672  0.3764  0.2173
 6232SOL    HW121588   8.389   5.369   9.350  0.5940 -1.2256  0.5771
 6232SOL    HW221589   8.506   5.307   9.423  2.1776  0.3636 -0.5281
 6233SOL     OW21590   2.001   6.815   1.002  0.4942 -1.2082 -0.1253
 6233SOL    HW121591   2.047   6.805   1.086  0.3076  0.0059  0.1362
 6233SOL    HW221592   1.909   6.806   1.023  0.5148 -2.2634 -0.4325
 6234SOL     OW21593   1.590   9.422   8.953 -0.1488 -0.2024 -0.4518
 6234SOL    HW121594   1.515   9.450   9.006  1.2880 -1.7461  2.6931
 6234SOL    HW221595   1.634   9.503   8.928 -1.4833  0.6333 -0.2021
 6235SOL     OW21596   3.567   3.038   1.521  0.5115 -0.0306  0.1334
 6235SOL    HW121597   3.493   3.071   1.469  1.2337  0.0191 -0.8835
 6235SOL    HW221598   3.625   3.113   1.530  1.0585 -0.4108 -0.1943
 6236SOL     OW21599   6.418   7.909   6.009 -0.2541 -0.2925 -0.3032
 6236SOL    HW121600   6.352   7.951   5.954  0.1233  0.8329  0.0643
 6236SOL    HW221601   6.405   7.949   6.096  1.8074  1.0673 -0.5486
 6237SOL     OW21602   9.249   9.541   7.944 -0.0911  0.5982  0.5109
 6237SOL    HW121603   9.154   9.552   7.953 -0.1711 -0.2886  0.9044
 6237SOL    HW221604   9.259   9.480   7.872  0.2066  1.0546  0.1628
 6238SOL     OW21605   7.560   2.649   2.215 -0.6954 -0.5466  0.2786
 6238SOL    HW121606   7.602   2.665   2.299 -0.1355 -0.8666  0.0645
 6238SOL    HW221607   7.607   2.704   2.153 -1.6618  0.3476  0.3070
 6239SOL     OW21608   4.485   1.724   8.906 -0.2382  0.2894  0.5649
 6239SOL    HW121609   4.566   1.762   8.874 -1.5802  2.0067 -1.0580
 6239SOL    HW221610   4.506   1.689   8.992  2.3306  0.1168 -0.0643
 6240SOL     OW21611   6.311   3.226   4.696  0.0909 -0.3228 -0.2160
 6240SOL    HW121612   6.381   3.251   4.757  0.1845 -1.2591  0.0855
 6240SOL    HW221613   6.265   3.155   4.742 -0.5113 -0.3062 -0.7877
 6241SOL     OW21614   5.908   8.355   7.996  0.0431 -0.2084  0.1234
 6241SOL    HW121615   5.942   8.351   7.907 -0.7018  0.4473 -0.2101
 6241SOL    HW221616   5.925   8.444   8.025 -0.5498 -0.1382  0.2837
 6242SOL     OW21617   9.546   6.346   4.544  0.8768  0.1813  0.1806
 6242SOL    HW121618   9.521   6.409   4.612  0.9634  1.2110 -0.7133
 6242SOL    HW221619   9.473   6.346   4.483 -0.0026 -2.0760  1.1348
 6243SOL     OW21620   9.553   0.277   3.409  0.3125 -0.0863  0.6826
 6243SOL    HW121621   9.641   0.314   3.402 -0.2556  1.2717  0.4164
 6243SOL    HW221622   9.547   0.214   3.338  0.6887  0.6420  0.0010
 6244SOL     OW21623   8.487   8.963   2.870  0.3135  0.2724  0.2236
 6244SOL    HW121624   8.524   8.964   2.958  0.8411  0.4804  0.0089
 6244SOL    HW221625   8.394   8.945   2.882  0.1787  1.3387  0.8940
 6245SOL     OW21626   3.578   8.850   6.329  0.2249  0.5482 -0.1024
 6245SOL    HW121627   3.499   8.804   6.357 -0.1496  1.3066  0.1141
 6245SOL    HW221628   3.650   8.796   6.362 -0.1730 -0.6361 -1.0889
 6246SOL     OW21629   7.671   9.239   4.301  0.3014  0.0790 -0.5300
 6246SOL    HW121630   7.751   9.224   4.352  0.0022 -0.6796 -0.2636
 6246SOL    HW221631   7.637   9.151   4.284 -1.6189  0.4157  1.2128
 6247SOL     OW21632   5.402   1.351   7.053  0.0692 -0.4115 -0.6088
 6247SOL    HW121633   5.354   1.420   7.100  1.3252  0.9121 -1.1997
 6247SOL    HW221634   5.369   1.358   6.963  0.2571 -0.5373 -0.6856
 6248SOL     OW21635   3.711   7.253   2.614 -0.1062  0.3486 -0.4854
 6248SOL    HW121636   3.758   7.333   2.636 -0.2879 -0.1738  2.1213
 6248SOL    HW221637   3.780   7.188   2.601 -0.0137  0.2980  0.2266
 6249SOL     OW21638   7.746   3.153   7.917  0.4900  0.1338 -0.1925
 6249SOL    HW121639   7.757   3.068   7.960 -2.1860  0.5149  1.5409
 6249SOL    HW221640   7.820   3.206   7.947  0.5183 -0.6762  1.2512
 6250SOL     OW21641   4.973   9.460   3.012 -0.6664 -0.6839  0.7450
 6250SOL    HW121642   4.913   9.478   2.940 -1.2125 -1.9459  0.8614
 6250SOL    HW221643   4.917   9.447   3.088 -0.1706 -0.6467  1.1250
 6251SOL     OW21644   4.064   5.637   6.118 -0.7746 -0.2510 -0.5453
 6251SOL    HW121645   3.976   5.673   6.118 -0.3459  0.8439 -0.3166
 6251SOL    HW221646   4.115   5.698   6.171  0.4225 -0.0789 -1.8193
 6252SOL     OW21647   4.239   0.607   5.310 -0.1442 -0.4377 -1.0006
 6252SOL    HW121648   4.146   0.621   5.296 -0.2000 -0.7614 -0.9533
 6252SOL    HW221649   4.269   0.687   5.353 -0.6232 -0.7974  0.0349
 6253SOL     OW21650   1.072   7.778   9.552  0.6330  0.4295  0.5786
 6253SOL    HW121651   1.078   7.831   9.473 -0.1336 -0.6898 -0.2702
 6253SOL    HW221652   1.031   7.696   9.523  1.2909 -0.4232  1.9318
 6254SOL     OW21653   8.548   0.248   9.090  0.1210 -0.0818 -0.2896
 6254SOL    HW121654   8.622   0.196   9.119  1.8330  1.2784 -1.9220
 6254SOL    HW221655   8.492   0.187   9.042  1.3345 -0.7190 -0.9314
 6255SOL     OW21656   2.009   3.176   6.232 -0.2585 -0.0182 -0.4005
 6255SOL    HW121657   1.951   3.192   6.307  0.1384  1.5330 -0.3840
 6255SOL    HW221658   2.066   3.253   6.229  2.3035 -1.7580  0.0013
 6256SOL     OW21659   3.887   6.765   7.927 -0.0836  0.1934 -0.0283
 6256SOL    HW121660   3.965   6.715   7.906  0.5458  0.7936  0.8477
 6256SOL    HW221661   3.896   6.846   7.878 -0.9065 -0.3395 -1.1203
 6257SOL     OW21662   6.741   0.104   2.424 -0.4341 -0.2323 -0.4542
 6257SOL    HW121663   6.791   0.023   2.427 -0.7545 -0.4626 -1.0697
 6257SOL    HW221664   6.726   0.127   2.516  1.6805  0.4053 -0.2268
 6258SOL     OW21665   5.464   6.815   7.997 -0.0835 -0.6479 -0.6293
 6258SOL    HW121666   5.527   6.878   8.033  0.8141 -1.6438 -0.3970
 6258SOL    HW221667   5.388   6.868   7.972  1.9457  1.0822 -3.7372
 6259SOL     OW21668   8.978   9.406   3.443 -0.0216 -0.3837  0.3078
 6259SOL    HW121669   9.064   9.398   3.485  0.5861 -2.1831 -1.1087
 6259SOL    HW221670   8.984   9.483   3.388  0.9643 -0.8733 -0.2957
 6260SOL     OW21671   6.848   3.902   7.721 -0.3061 -0.6819  0.7201
 6260SOL    HW121672   6.759   3.938   7.727 -0.3420 -0.6341  0.0287
 6260SOL    HW221673   6.835   3.808   7.710 -0.2503 -0.7536  1.2621
 6261SOL     OW21674   8.913   8.985   1.076  0.4404 -0.6083  0.0034
 6261SOL    HW121675   9.004   8.960   1.063 -0.1283 -3.4890  1.0040
 6261SOL    HW221676   8.862   8.918   1.030 -1.2002 -0.9712  2.2058
 6262SOL     OW21677   6.393   1.105   3.694  0.2849 -0.0601 -0.0924
 6262SOL    HW121678   6.356   1.185   3.658 -1.6474  0.1364  2.0815
 6262SOL    HW221679   6.417   1.053   3.617 -0.8019  1.5167 -1.5764
 6263SOL     OW21680   0.915   7.456   6.538  0.5600  0.2888 -0.6439
 6263SOL    HW121681   0.984   7.521   6.542  0.6460  0.2324 -1.1884
 6263SOL    HW221682   0.960   7.372   6.537  0.4419  0.1926  0.4025
 6264SOL     OW21683   2.623   3.011   4.271 -0.4039  0.1199  0.0789
 6264SOL    HW121684   2.608   3.094   4.225 -0.5309 -0.4863 -0.9996
 6264SOL    HW221685   2.645   3.037   4.360 -2.2400  1.2639  0.2556
 6265SOL     OW21686   4.387   8.010   5.384 -0.1715  0.4248  0.4221
 6265SOL    HW121687   4.393   7.960   5.466 -2.3384 -1.0776 -0.2269
 6265SOL    HW221688   4.431   7.956   5.319 -0.6772  0.3541  0.1280
 6266SOL     OW21689   7.061   0.878   3.474 -0.1565 -0.1178 -0.6783
 6266SOL    HW121690   7.110   0.959   3.487  0.6854 -0.7202  0.0462
 6266SOL    HW221691   7.129   0.811   3.463 -0.8328 -0.8332 -0.5887
 6267SOL     OW21692   9.410   6.675   5.627  0.1515  0.4384 -0.4206
 6267SOL    HW121693   9.421   6.718   5.542  1.6656 -0.6062 -0.7972
 6267SOL    HW221694   9.497   6.678   5.667 -0.4355  0.5046  0.9133
 6268SOL     OW21695   6.033   1.342   0.493 -0.5958 -0.4973  0.4226
 6268SOL    HW121696   6.078   1.421   0.465  1.2043 -1.4459  0.5238
 6268SOL    HW221697   5.941   1.369   0.504  0.2050  1.9080  1.8715
 6269SOL     OW21698   1.460   4.942   0.444  0.3690 -0.5832  0.2376
 6269SOL    HW121699   1.445   5.011   0.508 -0.4171 -1.1641  0.7051
 6269SOL    HW221700   1.534   4.972   0.392  0.7515  0.0952  1.1558
 6270SOL     OW21701   2.994   0.254   3.483 -0.5727 -0.4471  0.7699
 6270SOL    HW121702   2.932   0.287   3.419  1.3716 -0.4857 -1.2786
 6270SOL    HW221703   2.996   0.320   3.552 -2.5508 -0.2716  0.6997
 6271SOL     OW21704   9.607   4.060   1.335 -0.2571 -0.1466  0.1139
 6271SOL    HW121705   9.625   3.966   1.338 -1.7418 -0.6033 -2.4147
 6271SOL    HW221706   9.688   4.099   1.305 -0.8533 -1.2300 -3.2631
 6272SOL     OW21707   9.460   0.149   9.053  0.1216 -0.2818 -0.0316
 6272SOL    HW121708   9.383   0.150   9.109 -1.0989  0.3075 -1.6664
 6272SOL    HW221709   9.460   0.235   9.011  0.4747 -1.0369 -1.6248
 6273SOL     OW21710   3.569   6.009   2.928  0.5343 -0.8335  0.3321
 6273SOL    HW121711   3.484   5.972   2.951 -0.0525  0.0224 -0.3972
 6273SOL    HW221712   3.549   6.075   2.862  1.7450 -0.4555  0.3269
 6274SOL     OW21713   7.445   4.322   7.484  0.0431  0.3965 -0.4937
 6274SOL    HW121714   7.357   4.292   7.462 -0.0638 -0.3846  0.8439
 6274SOL    HW221715   7.498   4.299   7.408 -0.6234 -0.5445 -0.6957
 6275SOL     OW21716   1.936   7.613   9.007 -0.3893 -0.3530  1.0503
 6275SOL    HW121717   1.893   7.622   9.092  2.6255  1.4901  2.5426
 6275SOL    HW221718   1.947   7.702   8.976  2.6327 -0.6290  1.0300
 6276SOL     OW21719   3.444   4.501   1.496  0.1010 -0.0370 -0.4236
 6276SOL    HW121720   3.501   4.570   1.529 -0.2885 -0.0073  0.2118
 6276SOL    HW221721   3.493   4.420   1.511  0.2948  0.0484 -0.5910
 6277SOL     OW21722   4.555   2.051   3.703  0.7792  0.5849 -0.4854
 6277SOL    HW121723   4.578   1.989   3.772 -1.6581  0.4527  0.2884
 6277SOL    HW221724   4.639   2.088   3.676  2.0463 -1.1486  0.8219
 6278SOL     OW21725   8.281   9.310   0.130 -0.9803  0.1466  0.3290
 6278SOL    HW121726   8.311   9.220   0.117 -1.0597  0.2485 -0.5821
 6278SOL    HW221727   8.185   9.303   0.129 -0.9847  0.2811  0.0187
 6279SOL     OW21728   2.676   5.710   4.649 -0.7994 -0.5023  0.4873
 6279SOL    HW121729   2.658   5.791   4.601 -0.2634 -1.5778 -1.6462
 6279SOL    HW221730   2.741   5.735   4.715  0.2408  0.5895 -0.9034
 6280SOL     OW21731   1.361   8.953   6.892 -0.2119  0.1354 -0.1420
 6280SOL    HW121732   1.270   8.943   6.863 -0.9889  1.6452  1.5973
 6280SOL    HW221733   1.366   8.904   6.974  0.3989  0.4992  0.0444
 6281SOL     OW21734   7.858   8.439   7.889  0.1198  0.3881 -0.1978
 6281SOL    HW121735   7.783   8.496   7.906 -0.4023 -0.5546  0.8383
 6281SOL    HW221736   7.929   8.498   7.866 -0.8236  1.3337 -0.7658
 6282SOL     OW21737   2.136   4.854   0.513  0.0686 -0.1438  0.3397
 6282SOL    HW121738   2.131   4.759   0.513  1.7056 -0.2988  1.9769
 6282SOL    HW221739   2.162   4.877   0.424  1.0791 -1.3592  0.2955
 6283SOL     OW21740   4.783   3.911   4.148 -0.0249 -0.2486 -0.0485
 6283SOL    HW121741   4.781   3.863   4.231 -1.1788 -2.0909 -1.0696
 6283SOL    HW221742   4.875   3.905   4.120  1.2098  3.2480  2.5403
 6284SOL     OW21743   1.604   0.675   8.007  0.3182  0.0569 -0.0615
 6284SOL    HW121744   1.594   0.645   7.917 -0.4687 -0.0719  0.0547
 6284SOL    HW221745   1.627   0.767   7.999 -1.7428  0.5969 -0.4140
 6285SOL     OW21746   5.721   1.440   1.972  0.4365  0.0414 -0.0990
 6285SOL    HW121747   5.727   1.374   1.903 -1.0958 -0.6705  0.4223
 6285SOL    HW221748   5.761   1.398   2.049  0.1578  0.0126  0.0301
 6286SOL     OW21749   5.877   0.179   0.554  0.1443 -0.5070  0.1134
 6286SOL    HW121750   5.855   0.140   0.639 -0.3146  0.3358  0.3961
 6286SOL    HW221751   5.969   0.203   0.562 -0.4420  1.6087  1.2302
 6287SOL     OW21752   4.782   0.318   2.282  0.1563 -0.1060  0.3665
 6287SOL    HW121753   4.717   0.353   2.343 -0.3942  0.1756 -0.3782
 6287SOL    HW221754   4.856   0.379   2.289 -0.0355  0.1145  0.5072
 6288SOL     OW21755   4.128   3.675   8.287  0.3913  1.0180 -0.3475
 6288SOL    HW121756   4.079   3.751   8.317  1.4794  1.2874  0.8992
 6288SOL    HW221757   4.063   3.615   8.251 -0.6031  2.0922 -0.3584
 6289SOL     OW21758   1.667   0.210   2.268  0.0035  0.3881 -0.0921
 6289SOL    HW121759   1.748   0.161   2.279 -1.2779 -1.7936  0.0841
 6289SOL    HW221760   1.612   0.156   2.211 -1.8893  1.0772  0.9655
 6290SOL     OW21761   8.419   8.166   4.773  0.4289  0.3279 -0.8696
 6290SOL    HW121762   8.476   8.092   4.749 -0.5661 -0.8033  0.1651
 6290SOL    HW221763   8.354   8.128   4.831 -1.0666  1.7141 -1.5804
 6291SOL     OW21764   1.438   3.804   8.701 -0.6480 -0.5428  0.0239
 6291SOL    HW121765   1.437   3.740   8.773  1.0317  0.1899  0.7585
 6291SOL    HW221766   1.398   3.757   8.628  2.2992 -3.2947 -0.0895
 6292SOL     OW21767   9.392   3.297   7.362 -0.3919  0.1205 -0.0720
 6292SOL    HW121768   9.405   3.203   7.378  2.2312  0.2401 -1.0282
 6292SOL    HW221769   9.328   3.301   7.291  0.0110 -0.9877 -0.5171
 6293SOL     OW21770   0.486   5.205   9.055  0.8170  0.3481  0.3679
 6293SOL    HW121771   0.459   5.294   9.030  0.9663  0.1475 -0.5715
 6293SOL    HW221772   0.581   5.208   9.057  1.0035 -0.4259 -2.4401
 6294SOL     OW21773   1.243   6.234   1.051  0.6711  0.0520  0.8359
 6294SOL    HW121774   1.245   6.184   1.132 -1.2656 -2.1515 -0.3330
 6294SOL    HW221775   1.302   6.186   0.992  0.1762  0.1789  0.2251
 6295SOL     OW21776   4.422   0.979   1.733 -0.6179 -0.6960  0.3312
 6295SOL    HW121777   4.335   0.997   1.770 -1.9031 -0.8141 -2.4060
 6295SOL    HW221778   4.420   1.020   1.647  2.1781 -0.5061  0.2806
 6296SOL     OW21779   9.439   8.157   5.499  0.1690 -0.2745  0.6132
 6296SOL    HW121780   9.377   8.114   5.441  1.1693 -0.3690 -0.3979
 6296SOL    HW221781   9.472   8.087   5.555 -0.1471 -0.3369  0.7277
 6297SOL     OW21782   4.663   4.900   0.244 -0.2971  0.2122 -0.2091
 6297SOL    HW121783   4.734   4.934   0.297 -0.9441  0.5187  0.4742
 6297SOL    HW221784   4.678   4.805   0.241  0.5666  0.3579 -0.7257
 6298SOL     OW21785   5.431   7.740   2.201 -0.1826 -0.3546  0.5840
 6298SOL    HW121786   5.442   7.834   2.189 -0.2147 -0.5789 -1.5605
 6298SOL    HW221787   5.511   7.711   2.243  0.6068  0.3817 -0.3708
 6299SOL     OW21788   1.669   9.551   7.288  0.1889  0.8708 -0.9605
 6299SOL    HW121789   1.658   9.455   7.290 -1.0859  1.0009  1.2614
 6299SOL    HW221790   1.751   9.567   7.334 -0.3972  0.9024  0.0981
 6300SOL     OW21791   6.414   6.760   9.214 -0.3412  0.0041 -0.1152
 6300SOL    HW121792   6.464   6.689   9.171 -0.9502  0.0431 -0.9130
 6300SOL    HW221793   6.479   6.805   9.267 -0.0726 -1.5821  0.9788
 6301SOL     OW21794   8.323   7.198   6.724 -0.0946 -0.1069 -0.6157
 6301SOL    HW121795   8.362   7.248   6.796 -1.4691  1.1142 -0.6880
 6301SOL    HW221796   8.395   7.144   6.691  0.6919 -0.3351  1.3356
 6302SOL     OW21797   9.032   3.929   5.806 -0.5615  0.0739  0.3922
 6302SOL    HW121798   8.950   3.976   5.826 -1.4186 -0.4783 -1.5936
 6302SOL    HW221799   9.036   3.927   5.711  1.0154 -1.2472  0.4444
 6303SOL     OW21800   2.995   3.553   7.677  0.2538 -0.3684 -0.0988
 6303SOL    HW121801   2.984   3.481   7.615 -0.2769 -1.6933  1.4685
 6303SOL    HW221802   3.003   3.510   7.762  2.5632  1.2926  0.6270
 6304SOL     OW21803   8.283   6.700   4.548 -0.0613  0.2588 -0.1713
 6304SOL    HW121804   8.234   6.619   4.549  0.2554  0.0351 -1.2397
 6304SOL    HW221805   8.286   6.725   4.456 -0.9771  1.9954  0.2281
 6305SOL     OW21806   8.607   5.755   6.659  0.4879  0.2581 -0.4110
 6305SOL    HW121807   8.600   5.840   6.616 -0.6402  0.7146  0.5982
 6305SOL    HW221808   8.612   5.691   6.588 -1.2668  0.9908 -1.2377
 6306SOL     OW21809   0.181   6.330   7.073 -0.0943  0.2188  0.4873
 6306SOL    HW121810   0.216   6.378   6.997  0.1259  0.1642  0.5528
 6306SOL    HW221811   0.159   6.398   7.136 -1.5746  0.3609 -0.1496
 6307SOL     OW21812   2.793   4.896   3.900  0.2013  0.2208 -0.1376
 6307SOL    HW121813   2.788   4.985   3.934 -0.3478  0.5407 -1.0101
 6307SOL    HW221814   2.873   4.860   3.938 -0.3907  0.5302  1.4913
 6308SOL     OW21815   9.541   1.736   1.232 -0.1615  0.6650  0.4634
 6308SOL    HW121816   9.636   1.738   1.235 -0.1657  3.1618  1.6748
 6308SOL    HW221817   9.515   1.711   1.321 -0.7749 -3.2134 -0.5905
 6309SOL     OW21818   0.140   3.697   7.305  0.5564  0.2661 -0.3716
 6309SOL    HW121819   0.053   3.671   7.275  1.3350 -2.5266 -0.5275
 6309SOL    HW221820   0.146   3.662   7.394  0.8685  2.1920  0.4233
 6310SOL     OW21821   3.582   0.152   1.851 -0.5548  0.2062  0.1547
 6310SOL    HW121822   3.642   0.198   1.911  0.0384 -0.7189  0.3058
 6310SOL    HW221823   3.531   0.221   1.810 -0.2917  0.9350  1.0102
 6311SOL     OW21824   3.716   5.330   1.406 -0.1607 -0.1887  0.7308
 6311SOL    HW121825   3.731   5.329   1.501  1.6028  1.3706  0.5368
 6311SOL    HW221826   3.627   5.364   1.396 -0.2281  0.0036  1.8238
 6312SOL     OW21827   6.956   9.490   1.690  0.1358 -0.2162  0.1455
 6312SOL    HW121828   7.002   9.409   1.714 -0.0957 -0.6454 -0.7888
 6312SOL    HW221829   7.026   9.551   1.665  0.3430  0.0602  1.3517
 6313SOL     OW21830   4.003   2.275   0.962  0.0647 -0.2938  0.2059
 6313SOL    HW121831   4.038   2.336   1.026  0.7756 -1.2141  0.7225
 6313SOL    HW221832   3.908   2.282   0.971  0.1109  1.0447 -0.0692
 6314SOL     OW21833   3.898   7.869   5.584 -0.0842 -0.1347 -0.3280
 6314SOL    HW121834   3.858   7.865   5.497 -1.4329  0.9431  0.2098
 6314SOL    HW221835   3.991   7.884   5.566 -0.0381 -1.6348 -1.5894
 6315SOL     OW21836   7.567   8.963   3.048 -0.3091 -0.1272  0.0668
 6315SOL    HW121837   7.623   8.903   3.098 -0.9577 -0.2935  0.6088
 6315SOL    HW221838   7.601   8.957   2.959  0.4831 -0.2888  0.3645
 6316SOL     OW21839   7.875   9.035   4.907  0.0004  0.4269 -0.2177
 6316SOL    HW121840   7.808   9.049   4.973  0.8819 -2.0026  1.3477
 6316SOL    HW221841   7.831   8.984   4.839  0.1715 -1.1918  0.8218
 6317SOL     OW21842   2.155   5.605   0.397  0.5790  0.2498  0.2485
 6317SOL    HW121843   2.105   5.669   0.347  0.8129  0.6669  0.5395
 6317SOL    HW221844   2.097   5.579   0.468  0.6579  0.4937  0.4019
 6318SOL     OW21845   2.386   7.896   4.911  0.0003 -0.2352  0.2634
 6318SOL    HW121846   2.302   7.850   4.908  0.5075 -1.1387 -0.7746
 6318SOL    HW221847   2.432   7.858   4.986 -0.5492  0.3455  0.9056
 6319SOL     OW21848   2.810   1.996   6.907 -0.3115  0.2111 -0.0788
 6319SOL    HW121849   2.820   1.959   6.995 -1.0126 -0.1651 -0.1544
 6319SOL    HW221850   2.720   2.027   6.904  0.0924  1.4357 -0.2169
 6320SOL     OW21851   3.718   7.978   2.433  0.2563  0.9770 -0.2864
 6320SOL    HW121852   3.705   7.978   2.338  0.7444  1.1247 -0.3568
 6320SOL    HW221853   3.654   8.041   2.466 -0.4170  0.3807 -0.4426
 6321SOL     OW21854   0.159   0.930   9.036  0.2555 -0.4965  0.5111
 6321SOL    HW121855   0.140   0.863   8.970  1.0078 -1.8160  1.5727
 6321SOL    HW221856   0.252   0.918   9.055  0.7198  1.6965 -0.1329
 6322SOL     OW21857   3.665   1.881   7.981  0.2922 -0.2023 -0.0318
 6322SOL    HW121858   3.729   1.920   8.040  0.2315  0.2546 -0.2682
 6322SOL    HW221859   3.678   1.786   7.992 -0.8924 -0.2041  2.0241
 6323SOL     OW21860   2.189   8.239   6.928  0.2399 -0.2623 -0.0720
 6323SOL    HW121861   2.150   8.240   7.015 -1.1317  0.1198 -0.6603
 6323SOL    HW221862   2.276   8.201   6.941 -0.3425 -1.2141  1.2889
 6324SOL     OW21863   7.646   6.246   1.152  0.0411 -0.1993 -0.2825
 6324SOL    HW121864   7.552   6.267   1.148  0.0246 -0.0101  0.7116
 6324SOL    HW221865   7.651   6.155   1.122 -0.6313 -0.6147  0.7848
 6325SOL     OW21866   9.077   1.230   7.268  0.1007 -0.3420 -0.1520
 6325SOL    HW121867   9.094   1.313   7.313 -2.0473  0.2774 -0.3516
 6325SOL    HW221868   9.023   1.255   7.193 -0.4978 -1.8920 -0.2695
 6326SOL     OW21869   9.209   9.364   7.139  0.2901 -0.4190 -0.2542
 6326SOL    HW121870   9.163   9.434   7.186 -0.8855  0.4235 -2.4761
 6326SOL    HW221871   9.300   9.373   7.165 -0.1121  0.8357  0.8275
 6327SOL     OW21872   3.524   2.463   4.874 -0.3167 -0.3240 -0.0487
 6327SOL    HW121873   3.459   2.414   4.824  0.0518 -2.2673  1.2540
 6327SOL    HW221874   3.582   2.396   4.910  1.7464  1.2670 -0.2370
 6328SOL     OW21875   2.469   7.150   5.996 -0.5182  0.8425 -0.5214
 6328SOL    HW121876   2.402   7.162   6.063 -1.1332 -0.0817 -0.9605
 6328SOL    HW221877   2.445   7.213   5.927 -1.0750  0.3551 -0.7787
 6329SOL     OW21878   6.210   0.327   5.259  0.0096  0.1508  0.0328
 6329SOL    HW121879   6.294   0.373   5.258 -1.0701  2.2309 -0.2870
 6329SOL    HW221880   6.218   0.263   5.188  0.6571  1.6562 -1.3330
 6330SOL     OW21881   0.383   3.422   8.684  0.0486 -0.1524 -0.1026
 6330SOL    HW121882   0.418   3.367   8.614 -1.8032 -1.1476 -0.2991
 6330SOL    HW221883   0.424   3.388   8.764  0.6822 -0.2877 -0.4792
 6331SOL     OW21884   3.585   8.968   8.725  0.0347 -0.1185  0.4164
 6331SOL    HW121885   3.627   9.012   8.799 -1.8641  1.5732  0.5824
 6331SOL    HW221886   3.598   9.028   8.651  1.7515 -1.7011 -0.6625
 6332SOL     OW21887   9.424   8.641   6.954  1.1768  0.5305  0.1734
 6332SOL    HW121888   9.437   8.678   6.867  2.1488  1.1089  0.5474
 6332SOL    HW221889   9.403   8.716   7.009 -0.7562  0.0115  0.2169
 6333SOL     OW21890   9.013   1.005   6.762 -0.5405  0.8169 -0.4374
 6333SOL    HW121891   9.094   1.055   6.771 -0.8485  1.3236 -0.4299
 6333SOL    HW221892   9.039   0.915   6.780  1.1780 -0.0308 -5.5469
 6334SOL     OW21893   9.501   0.211   1.071 -0.8998  0.4201  0.2541
 6334SOL    HW121894   9.558   0.261   1.128  1.5867 -2.1405  0.2736
 6334SOL    HW221895   9.559   0.145   1.032 -3.2570 -0.3284 -2.2827
 6335SOL     OW21896   1.349   4.051   3.908 -0.6641 -0.1321  0.1150
 6335SOL    HW121897   1.353   4.076   3.816  1.4994  2.8147  0.8529
 6335SOL    HW221898   1.424   3.993   3.921  0.0753  0.8538  0.3356
 6336SOL     OW21899   0.438   3.108   5.995  0.5617  0.0329 -0.2120
 6336SOL    HW121900   0.389   3.032   6.026 -0.5733 -0.0801 -2.0913
 6336SOL    HW221901   0.516   3.110   6.049 -0.7400 -0.7604  1.8091
 6337SOL     OW21902   6.948   4.797   6.381  0.0536  0.5365  0.2343
 6337SOL    HW121903   7.006   4.865   6.416  0.1830  0.2980  0.4886
 6337SOL    HW221904   6.927   4.743   6.457  1.2433 -0.6590 -0.2409
 6338SOL     OW21905   5.782   0.764   1.477  0.1932  0.1601  0.3188
 6338SOL    HW121906   5.776   0.858   1.493  0.9809 -0.0844  2.3553
 6338SOL    HW221907   5.875   0.748   1.462  0.2371 -0.4342  1.1515
 6339SOL     OW21908   6.302   9.359   7.028  0.2963 -0.5727  0.4256
 6339SOL    HW121909   6.394   9.332   7.021 -0.1983 -2.4307  0.3783
 6339SOL    HW221910   6.263   9.329   6.945 -0.6600 -1.2194  1.0962
 6340SOL     OW21911   1.374   1.107   1.971  0.0121  0.0113 -0.1947
 6340SOL    HW121912   1.386   1.194   2.009 -0.8203  0.8178 -1.7183
 6340SOL    HW221913   1.453   1.092   1.919 -0.2731  0.2610 -0.6987
 6341SOL     OW21914   7.827   6.550   0.263  0.2863  1.2720 -0.8461
 6341SOL    HW121915   7.784   6.622   0.216 -0.1903  2.2586  1.0339
 6341SOL    HW221916   7.861   6.589   0.343 -0.9282 -0.7670  0.7800
 6342SOL     OW21917   1.037   1.076   7.246 -0.3799  0.2774  0.2657
 6342SOL    HW121918   1.109   1.026   7.206  0.3953  0.3986  1.4664
 6342SOL    HW221919   0.986   1.011   7.294 -1.0838  0.1961 -0.5637
 6343SOL     OW21920   8.866   3.378   3.880 -0.2522  0.2891  0.0286
 6343SOL    HW121921   8.901   3.428   3.955 -1.7301 -0.0691  0.9975
 6343SOL    HW221922   8.942   3.366   3.823  0.8878  0.7577  1.3608
 6344SOL     OW21923   6.100   3.291   1.198 -0.0012 -0.2594 -0.0157
 6344SOL    HW121924   6.175   3.290   1.139  0.0612  2.6662 -0.1328
 6344SOL    HW221925   6.110   3.372   1.249 -1.9674 -0.8509  1.4498
 6345SOL     OW21926   2.578   4.788   6.842 -0.5500  0.2393 -0.1222
 6345SOL    HW121927   2.572   4.703   6.885  1.5312  0.0150 -0.1331
 6345SOL    HW221928   2.618   4.845   6.907 -1.0495  0.9594 -0.4358
 6346SOL     OW21929   2.372   8.257   9.630  0.1537 -0.0761  0.2386
 6346SOL    HW121930   2.429   8.232   9.557  1.3349  0.9219  0.7917
 6346SOL    HW221931   2.316   8.326   9.595  2.2886  2.0785  0.8289
 6347SOL     OW21932   0.205   4.207   6.199 -0.4755  0.1649 -0.1493
 6347SOL    HW121933   0.237   4.165   6.119 -1.8966  1.2585 -1.3415
 6347SOL    HW221934   0.278   4.261   6.228 -0.2705  0.5423 -1.3039
 6348SOL     OW21935   3.909   5.874   5.309 -0.0702  0.0295  0.0005
 6348SOL    HW121936   3.993   5.853   5.348  0.2055 -1.4133 -1.2613
 6348SOL    HW221937   3.925   5.953   5.257  0.4106 -0.0206  0.0742
 6349SOL     OW21938   7.204   8.523   6.240 -0.5099 -0.1662 -0.2639
 6349SOL    HW121939   7.213   8.465   6.316 -0.5270  0.6829  0.3956
 6349SOL    HW221940   7.284   8.576   6.241 -0.3322 -0.3945 -1.0687
 6350SOL     OW21941   6.428   7.364   0.946 -0.2635  0.1849 -0.3448
 6350SOL    HW121942   6.394   7.404   1.026 -0.2902  2.7753 -1.5576
 6350SOL    HW221943   6.416   7.270   0.960 -2.5404  0.6588  1.6850
 6351SOL     OW21944   8.937   1.786   8.122 -0.6347 -0.4390 -0.7771
 6351SOL    HW121945   9.024   1.818   8.144 -1.2191  1.4882 -1.0753
 6351SOL    HW221946   8.906   1.742   8.201 -0.5459  1.5197  0.3936
 6352SOL     OW21947   4.153   3.250   0.719 -0.0770 -0.0899  0.0939
 6352SOL    HW121948   4.075   3.205   0.754  0.9701 -2.3515 -0.3069
 6352SOL    HW221949   4.187   3.300   0.793  1.0722 -3.3515  1.9601
 6353SOL     OW21950   0.362   3.353   2.235  0.4718  0.1372 -0.0428
 6353SOL    HW121951   0.341   3.413   2.164 -0.4795 -0.7907 -0.5738
 6353SOL    HW221952   0.454   3.332   2.223  0.0682 -0.8621 -1.6925
 6354SOL     OW21953   0.881   5.598   7.913  0.0039 -0.0356  0.0711
 6354SOL    HW121954   0.915   5.580   7.826 -0.2344  1.5301 -0.3830
 6354SOL    HW221955   0.800   5.548   7.919 -0.0684 -0.0198 -0.6808
 6355SOL     OW21956   5.459   8.667   8.329  0.5353  0.1970 -0.3440
 6355SOL    HW121957   5.512   8.739   8.293 -0.2324  0.0924 -1.7773
 6355SOL    HW221958   5.368   8.698   8.319  0.2653 -0.0168  1.2007
 6356SOL     OW21959   2.240   1.460   3.354  0.0543  0.4517  0.1025
 6356SOL    HW121960   2.255   1.497   3.441  1.5852  1.0745 -0.4007
 6356SOL    HW221961   2.318   1.407   3.336 -0.1509  0.4909 -0.9845
 6357SOL     OW21962   0.705   5.284   3.357 -0.4900 -0.5940 -0.3362
 6357SOL    HW121963   0.761   5.295   3.435  1.2837  0.2729 -1.6490
 6357SOL    HW221964   0.688   5.374   3.328 -0.2602 -0.9077 -1.5038
 6358SOL     OW21965   8.171   4.097   2.034  0.0417 -0.0487  0.3751
 6358SOL    HW121966   8.111   4.038   2.080  2.0745 -1.2639  1.6395
 6358SOL    HW221967   8.218   4.040   1.973  1.9381  0.2212  1.5022
 6359SOL     OW21968   5.594   2.811   4.645  0.2126 -0.2731  0.2697
 6359SOL    HW121969   5.528   2.758   4.691 -0.3223 -0.8981 -1.1542
 6359SOL    HW221970   5.578   2.901   4.676  0.2636 -0.7318  1.7159
 6360SOL     OW21971   2.796   5.127   8.641  0.1243 -0.1289  0.4309
 6360SOL    HW121972   2.790   5.148   8.734  0.7166 -0.3661  0.5254
 6360SOL    HW221973   2.889   5.133   8.620 -0.1947  2.2289 -0.7059
 6361SOL     OW21974   8.627   7.594   5.795 -0.5438  0.9770  0.1990
 6361SOL    HW121975   8.691   7.588   5.866  0.8155 -0.9642 -1.0552
 6361SOL    HW221976   8.647   7.518   5.739 -3.5593  0.6499 -0.6121
 6362SOL     OW21977   7.944   3.659   3.447  0.0015 -0.2052  0.2388
 6362SOL    HW121978   7.896   3.735   3.413 -2.2884 -1.5929  0.1214
 6362SOL    HW221979   8.036   3.678   3.428 -0.5707  2.1143 -0.5810
 6363SOL     OW21980   1.872   4.624   6.415  0.3772  0.4241  0.5715
 6363SOL    HW121981   1.906   4.535   6.416 -0.5378  0.0634  2.4077
 6363SOL    HW221982   1.827   4.632   6.331 -2.2241 -1.9316  1.6219
 6364SOL     OW21983   3.174   8.601   0.324 -0.0564  0.1523 -0.2815
 6364SOL    HW121984   3.267   8.621   0.335  0.1540 -1.1484  0.4136
 6364SOL    HW221985   3.132   8.640   0.401  0.7627 -4.4685  2.9037
 6365SOL     OW21986   1.157   9.290   1.621  0.3573 -0.2685  0.4411
 6365SOL    HW121987   1.183   9.259   1.535 -0.5724 -0.7112  0.3153
 6365SOL    HW221988   1.108   9.218   1.659 -1.9962  1.0493  0.0757
 6366SOL     OW21989   4.218   6.431   3.795 -0.2152  0.8874  0.1385
 6366SOL    HW121990   4.297   6.382   3.771 -1.0233 -0.9054  0.9577
 6366SOL    HW221991   4.233   6.519   3.761  1.8049  0.3863 -0.3845
 6367SOL     OW21992   5.163   7.313   1.698  0.2133  0.5502 -0.0624
 6367SOL    HW121993   5.083   7.353   1.732 -0.2829 -2.2676  2.5577
 6367SOL    HW221994   5.138   7.280   1.611 -1.2299  0.4815  0.3508
 6368SOL     OW21995   8.198   5.786   2.506  0.3065 -0.1304  0.7020
 6368SOL    HW121996   8.270   5.848   2.493 -0.5473  1.0060  1.2401
 6368SOL    HW221997   8.140   5.829   2.569 -0.4086 -1.4038  0.9450
 6369SOL     OW21998   4.637   8.768   9.241  0.0012 -0.1335  0.7517
 6369SOL    HW121999   4.591   8.814   9.170 -1.2413 -0.0974  1.5412
 6369SOL    HW222000   4.606   8.678   9.235  1.6287 -0.6723 -0.1317
 6370SOL     OW22001   7.844   2.705   6.918 -0.0735  0.4313 -0.9188
 6370SOL    HW122002   7.782   2.710   6.990 -0.5699  0.8710 -1.3730
 6370SOL    HW222003   7.811   2.635   6.862  0.6556 -0.3497 -0.4220
 6371SOL     OW22004   0.930   7.348   5.269  0.1523  0.5794  0.4802
 6371SOL    HW122005   0.905   7.270   5.318  0.8667  1.0958  1.7033
 6371SOL    HW222006   0.914   7.325   5.177  0.8536 -1.1937  0.7616
 6372SOL     OW22007   5.654   0.446   5.776  0.1296 -0.6144  0.1756
 6372SOL    HW122008   5.646   0.440   5.681  0.0083  1.3401  0.0225
 6372SOL    HW222009   5.593   0.515   5.801 -1.4681 -2.5767  1.9703
 6373SOL     OW22010   6.830   4.819   8.635 -0.2930  0.1807  0.6208
 6373SOL    HW122011   6.830   4.911   8.607 -1.8418  1.8153  5.0316
 6373SOL    HW222012   6.739   4.801   8.658  0.4485 -1.3615  2.6528
 6374SOL     OW22013   1.711   8.569   5.159 -0.3023 -0.3857 -0.1966
 6374SOL    HW122014   1.617   8.550   5.151 -0.3675 -0.5291  0.7858
 6374SOL    HW222015   1.728   8.567   5.253  1.1524 -2.6089 -0.4413
 6375SOL     OW22016   7.393   3.450   7.022  0.1940 -0.2572  0.2180
 6375SOL    HW122017   7.312   3.433   7.068 -0.4987 -0.4044 -1.0007
 6375SOL    HW222018   7.415   3.366   6.981  1.0841 -0.2746  0.7101
 6376SOL     OW22019   7.367   5.922   1.949 -0.2815 -0.1281 -0.4186
 6376SOL    HW122020   7.419   5.847   1.923  0.6673 -0.5492  2.3866
 6376SOL    HW222021   7.276   5.891   1.946  0.0381 -1.0967 -0.1630
 6377SOL     OW22022   7.155   6.771   3.877  0.5349 -0.6559 -0.2237
 6377SOL    HW122023   7.092   6.820   3.824  0.7797 -0.5131 -0.3801
 6377SOL    HW222024   7.181   6.698   3.821  1.1317 -0.2569 -0.4701
 6378SOL     OW22025   2.425   9.468   1.612  0.6313  0.3698 -0.7597
 6378SOL    HW122026   2.433   9.464   1.517  2.6038  1.2272 -0.6720
 6378SOL    HW222027   2.353   9.529   1.628  1.3968  1.5367 -1.7054
 6379SOL     OW22028   9.212   2.373   4.974  0.7729  0.3974 -0.3868
 6379SOL    HW122029   9.291   2.390   4.923  0.5712  1.0814 -0.4818
 6379SOL    HW222030   9.237   2.305   5.036  1.0824 -0.2685 -1.2371
 6380SOL     OW22031   3.658   3.646   2.289 -0.6027 -0.3845  0.0132
 6380SOL    HW122032   3.622   3.661   2.202 -1.7977 -1.8299  0.1955
 6380SOL    HW222033   3.593   3.685   2.349 -0.4130 -0.4738  0.2804
 6381SOL     OW22034   0.452   2.711   5.839  0.8728  0.3729 -0.9423
 6381SOL    HW122035   0.378   2.715   5.778  1.0652  1.2513 -1.1309
 6381SOL    HW222036   0.417   2.746   5.921  0.8424 -0.0302 -0.7829
 6382SOL     OW22037   7.008   1.272   4.057 -0.8701 -0.5583  0.1305
 6382SOL    HW122038   7.090   1.318   4.077 -1.3748  0.1803  0.5477
 6382SOL    HW222039   6.964   1.265   4.141 -1.7464  0.0680 -0.2658
 6383SOL     OW22040   1.212   8.760   8.824 -0.3125  0.0852 -0.1821
 6383SOL    HW122041   1.299   8.721   8.825 -0.1971  0.3405 -0.1342
 6383SOL    HW222042   1.226   8.850   8.855 -0.5545  0.2025 -0.4104
 6384SOL     OW22043   7.433   4.369   2.985 -0.2304  0.0481 -0.5332
 6384SOL    HW122044   7.526   4.387   2.998 -0.0585 -1.6816  1.1263
 6384SOL    HW222045   7.417   4.387   2.892  1.1333  2.7754 -0.3110
 6385SOL     OW22046   6.114   2.046   3.198 -0.1161  0.3923  0.3027
 6385SOL    HW122047   6.160   2.024   3.116  0.5809  1.4378  0.3861
 6385SOL    HW222048   6.027   2.074   3.169 -0.6132 -1.2691  0.1101
 6386SOL     OW22049   1.304   8.044   5.459  0.2148  0.8981 -0.2386
 6386SOL    HW122050   1.258   8.126   5.444 -0.6628  0.4392 -0.1360
 6386SOL    HW222051   1.373   8.042   5.392 -1.1377  0.7102 -1.6944
 6387SOL     OW22052   9.019   5.562   4.150 -0.3909 -0.0298  0.2877
 6387SOL    HW122053   9.074   5.538   4.225 -1.1447 -0.0504  0.8487
 6387SOL    HW222054   9.072   5.540   4.073  0.6313  0.5234  0.8100
 6388SOL     OW22055   9.127   5.583   1.727 -0.1372  0.1983  0.6240
 6388SOL    HW122056   9.119   5.579   1.823  0.0401  0.1935  0.6401
 6388SOL    HW222057   9.203   5.639   1.712  0.5357 -0.6991  0.5200
 6389SOL     OW22058   0.739   8.760   5.806  0.0589 -0.0632  0.1664
 6389SOL    HW122059   0.801   8.762   5.733  1.2299 -0.6520  1.1007
 6389SOL    HW222060   0.794   8.739   5.883 -0.9324  1.6487  1.4045
 6390SOL     OW22061   4.035   2.245   7.736  0.7174  0.0722 -0.2129
 6390SOL    HW122062   4.106   2.310   7.742 -0.6992  1.7237 -0.5264
 6390SOL    HW222063   4.029   2.208   7.824  2.7328 -1.0119 -0.4668
 6391SOL     OW22064   7.942   2.704   2.314 -0.0346  0.0892  0.3642
 6391SOL    HW122065   7.940   2.717   2.219 -0.3474 -0.0643  0.3497
 6391SOL    HW222066   8.035   2.697   2.335  0.0273 -0.1417  0.0300
 6392SOL     OW22067   4.896   0.378   6.720 -0.3253 -0.8500 -0.2100
 6392SOL    HW122068   4.972   0.323   6.700  0.3193 -0.2287  0.4654
 6392SOL    HW222069   4.833   0.318   6.759  0.1198 -1.2383 -0.0732
 6393SOL     OW22070   9.447   0.692   2.533 -0.2605 -0.8593  0.4668
 6393SOL    HW122071   9.481   0.772   2.573 -2.7474  1.1755 -1.1283
 6393SOL    HW222072   9.410   0.642   2.605  1.4423 -0.6756  1.5175
 6394SOL     OW22073   7.602   1.945   8.840  0.1796 -0.2109 -0.4983
 6394SOL    HW122074   7.583   1.953   8.746 -3.6742 -1.6602 -0.0539
 6394SOL    HW222075   7.628   1.854   8.851  1.0750  0.0777 -0.2066
 6395SOL     OW22076   5.173   8.232   1.754  0.1800 -0.6087  0.0869
 6395SOL    HW122077   5.110   8.260   1.821  0.1536  2.8964 -1.1857
 6395SOL    HW222078   5.256   8.270   1.782  0.7631 -1.3603 -0.5760
 6396SOL     OW22079   6.439   2.108   8.592  0.2678  0.1309 -0.5728
 6396SOL    HW122080   6.470   2.148   8.511  0.1604  0.2838 -0.5404
 6396SOL    HW222081   6.461   2.172   8.660  0.6816 -0.1547 -0.4309
 6397SOL     OW22082   2.065   6.703   6.411  0.2334  0.4269 -0.5144
 6397SOL    HW122083   2.117   6.760   6.354  0.0477  0.4751 -0.6360
 6397SOL    HW222084   1.993   6.759   6.440  0.6976  0.6159  0.3176
 6398SOL     OW22085   8.852   8.919   1.854  0.1280  0.2465 -0.2032
 6398SOL    HW122086   8.815   8.902   1.768  1.8649  1.5013 -1.2699
 6398SOL    HW222087   8.895   9.005   1.845  2.4476 -0.6709  1.1610
 6399SOL     OW22088   3.827   9.630   0.719 -0.3825  0.3664 -0.2386
 6399SOL    HW122089   3.848   9.705   0.774  0.4673 -0.1537  0.1617
 6399SOL    HW222090   3.912   9.591   0.698 -0.3331  2.1928 -4.3757
 6400SOL     OW22091   5.126   1.774   6.670 -0.0287 -0.6312  0.1637
 6400SOL    HW122092   5.038   1.767   6.708 -0.7935  1.3710 -1.0366
 6400SOL    HW222093   5.111   1.812   6.583  2.0050 -0.6760 -0.2574
 6401SOL     OW22094   2.493   4.015   2.358 -0.1393  0.3423 -0.6000
 6401SOL    HW122095   2.462   4.103   2.380  1.0438  0.1317  2.3348
 6401SOL    HW222096   2.571   4.031   2.304 -0.0620  1.0829 -0.2843
 6402SOL     OW22097   0.592   8.754   2.173  0.2118  0.1924  0.4262
 6402SOL    HW122098   0.601   8.724   2.263 -0.8003 -0.1543  0.4248
 6402SOL    HW222099   0.626   8.843   2.174  1.7271 -0.3686  0.7839
 6403SOL     OW22100   8.746   7.691   8.321 -0.1590  0.0679  0.3415
 6403SOL    HW122101   8.829   7.701   8.368  1.3033 -0.4059 -1.9562
 6403SOL    HW222102   8.717   7.781   8.304  0.8316  0.2812 -0.3297
 6404SOL     OW22103   1.695   2.030   2.138  0.2309  0.0431  0.2132
 6404SOL    HW122104   1.702   1.992   2.050  0.2860 -1.3271  0.7848
 6404SOL    HW222105   1.617   1.989   2.176  0.8121 -0.1955  1.1862
 6405SOL     OW22106   4.165   4.038   6.064  0.0623 -0.3179  0.3872
 6405SOL    HW122107   4.108   4.026   5.989  1.2635 -1.3090 -0.3998
 6405SOL    HW222108   4.132   4.117   6.107 -1.4041 -0.4411 -0.4644
 6406SOL     OW22109   3.343   5.629   5.996 -0.3485  0.3227 -0.8610
 6406SOL    HW122110   3.263   5.650   6.043  0.5035 -0.8634  1.2653
 6406SOL    HW222111   3.321   5.551   5.945 -0.4134 -0.3864  0.2170
 6407SOL     OW22112   3.479   6.094   3.573 -0.4509  0.4501  0.0071
 6407SOL    HW122113   3.527   6.169   3.537  0.0687  0.1830  0.1255
 6407SOL    HW222114   3.542   6.022   3.569 -1.6110 -0.5332 -2.1134
 6408SOL     OW22115   4.155   7.557   1.034  0.1113 -0.4465  0.6788
 6408SOL    HW122116   4.201   7.473   1.037  0.4464 -0.3743 -1.1693
 6408SOL    HW222117   4.073   7.541   1.082  0.2619 -1.7696  0.5401
 6409SOL     OW22118   5.856   0.263   8.629  0.0562  0.3460 -0.2214
 6409SOL    HW122119   5.849   0.260   8.534 -1.7269 -2.3139 -0.1309
 6409SOL    HW222120   5.895   0.179   8.653 -1.6363 -0.0440  1.4425
 6410SOL     OW22121   5.075   6.188   4.292  0.5441  0.2195  0.1235
 6410SOL    HW122122   5.108   6.129   4.225  0.0928 -0.5953  0.5933
 6410SOL    HW222123   4.985   6.158   4.308  0.4774  0.7161  0.7328
 6411SOL     OW22124   6.333   2.191   0.150  0.7924  0.0331 -0.2470
 6411SOL    HW122125   6.355   2.281   0.127  0.6835  0.0189 -0.4033
 6411SOL    HW222126   6.418   2.149   0.167  0.7827  0.5704  1.3437
 6412SOL     OW22127   4.363   1.296   6.872  0.0295  0.0673  0.1512
 6412SOL    HW122128   4.437   1.332   6.824 -1.3621 -1.0049 -3.0412
 6412SOL    HW222129   4.397   1.215   6.911  0.6003 -0.3567 -1.1840
 6413SOL     OW22130   8.825   4.457   9.572 -0.2910  0.5568 -0.0216
 6413SOL    HW122131   8.762   4.460   9.500  0.3489  1.2912 -0.5748
 6413SOL    HW222132   8.885   4.387   9.548 -0.1448  0.7249 -0.1526
 6414SOL     OW22133   1.903   3.647   3.124 -0.3592 -0.2354  0.4867
 6414SOL    HW122134   1.865   3.595   3.053 -1.9176  1.3703  0.0697
 6414SOL    HW222135   1.944   3.582   3.182 -1.2558 -1.8103 -0.5655
 6415SOL     OW22136   5.085   3.593   3.139 -0.0112 -1.0991 -0.4569
 6415SOL    HW122137   5.031   3.577   3.216  2.0018 -1.2780  0.9821
 6415SOL    HW222138   5.073   3.515   3.085 -0.2186 -1.7025  0.4360
 6416SOL     OW22139   7.330   9.124   8.580  0.5414  0.5745 -0.2710
 6416SOL    HW122140   7.372   9.067   8.645  1.3896  0.1747 -1.1499
 6416SOL    HW222141   7.240   9.132   8.610 -0.2297 -2.9537 -1.2245
 6417SOL     OW22142   6.959   8.922   5.334  0.3537  0.2485  0.7757
 6417SOL    HW122143   6.934   8.951   5.247 -1.3493 -2.5442  0.2163
 6417SOL    HW222144   6.946   9.000   5.389 -0.6602  1.4880 -1.0824
 6418SOL     OW22145   4.191   7.868   2.782  1.0659  0.2712  0.0858
 6418SOL    HW122146   4.125   7.807   2.815 -0.3348  0.7468 -1.6672
 6418SOL    HW222147   4.274   7.836   2.818 -0.1342 -0.0100  2.8421
 6419SOL     OW22148   9.398   2.181   4.702 -0.3635  0.6060  0.3591
 6419SOL    HW122149   9.402   2.136   4.787  0.4930 -0.4866 -0.2194
 6419SOL    HW222150   9.363   2.268   4.722 -1.3368 -0.0439  1.6460
 6420SOL     OW22151   5.687   8.671   4.264 -0.2010 -0.4002 -0.3740
 6420SOL    HW122152   5.768   8.720   4.253  0.3349 -1.2766 -0.5043
 6420SOL    HW222153   5.691   8.602   4.197  0.1710 -2.0149  1.2129
 6421SOL     OW22154   7.832   7.994   8.105 -0.5121  0.1532 -0.7889
 6421SOL    HW122155   7.809   8.002   8.198 -1.1500  0.2748 -0.9566
 6421SOL    HW222156   7.825   8.083   8.071 -1.4814 -0.0763 -1.2273
 6422SOL     OW22157   4.157   0.045   7.197 -0.5610  0.5163 -0.0530
 6422SOL    HW122158   4.127   0.076   7.283  1.7496 -1.4860  1.6141
 6422SOL    HW222159   4.230   0.102   7.175 -0.0271 -0.0472  0.2118
 6423SOL     OW22160   3.355   1.219   6.402  0.3457  0.1687 -0.3839
 6423SOL    HW122161   3.339   1.126   6.415 -1.3392  0.2937 -1.2687
 6423SOL    HW222162   3.273   1.262   6.430  0.9220  1.3441 -0.4263
 6424SOL     OW22163   7.091   7.781   0.096  0.2007  0.4180  0.1016
 6424SOL    HW122164   6.997   7.790   0.078 -0.0417  0.0169  1.1134
 6424SOL    HW222165   7.103   7.821   0.182  1.2448  1.8785 -0.6859
 6425SOL     OW22166   5.556   5.197   9.103 -0.4628  0.3865 -0.3792
 6425SOL    HW122167   5.468   5.188   9.066 -0.3112  1.2806 -0.9853
 6425SOL    HW222168   5.614   5.158   9.038 -0.5022 -1.6241  0.7030
 6426SOL     OW22169   4.826   3.554   5.829 -0.2411 -0.1282  0.0083
 6426SOL    HW122170   4.785   3.504   5.758 -1.2558  0.2747  0.2800
 6426SOL    HW222171   4.752   3.584   5.883  0.5104 -0.4563  1.2634
 6427SOL     OW22172   6.157   6.085   6.960 -0.1429  0.0666  0.5605
 6427SOL    HW122173   6.099   6.153   6.994  0.4002  0.6531  0.3436
 6427SOL    HW222174   6.099   6.013   6.937 -0.7328  0.4647  0.7784
 6428SOL     OW22175   1.779   4.060   7.073  0.2705  0.4056 -0.2297
 6428SOL    HW122176   1.849   4.038   7.133 -1.7851 -0.8669  1.8708
 6428SOL    HW222177   1.717   3.987   7.079 -2.5671  2.6474  0.2053
 6429SOL     OW22178   2.638   7.437   4.652 -0.2841 -0.7790  0.5117
 6429SOL    HW122179   2.590   7.434   4.569  1.3143  1.1174 -0.5570
 6429SOL    HW222180   2.623   7.525   4.685  0.8801 -0.7994  1.1333
 6430SOL     OW22181   7.998   2.317   6.647 -0.3180  0.1238 -0.6629
 6430SOL    HW122182   7.991   2.286   6.737  0.5492 -1.6646 -1.1477
 6430SOL    HW222183   7.911   2.304   6.610 -0.9195  1.6876  0.1146
 6431SOL     OW22184   8.278   9.402   1.123 -0.1067  0.0582 -0.3738
 6431SOL    HW122185   8.321   9.488   1.117 -0.1591  0.2665  1.5929
 6431SOL    HW222186   8.197   9.413   1.073 -0.2779  1.2765  0.1314
 6432SOL     OW22187   4.258   4.026   1.098  0.6711  0.5520  0.1730
 6432SOL    HW122188   4.229   3.937   1.116  0.3264  0.7320  0.5279
 6432SOL    HW222189   4.323   4.016   1.030 -0.3476  0.1465 -0.7762
 6433SOL     OW22190   0.524   9.137   3.924  0.1609 -0.0640  0.2049
 6433SOL    HW122191   0.575   9.106   3.999 -0.4370 -0.0507  0.6246
 6433SOL    HW222192   0.447   9.179   3.963  0.4630  1.0777 -0.3695
 6434SOL     OW22193   0.391   3.058   5.021 -0.0419 -0.6584 -0.6081
 6434SOL    HW122194   0.359   3.084   4.935 -0.1239 -0.2212 -0.4500
 6434SOL    HW222195   0.313   3.031   5.069  0.0046 -0.9095 -0.6742
 6435SOL     OW22196   8.248   1.160   9.440 -0.2181 -0.3759  0.3568
 6435SOL    HW122197   8.254   1.096   9.368  2.0963 -0.4588  0.5354
 6435SOL    HW222198   8.157   1.187   9.440 -0.7324 -1.8623 -1.3228
 6436SOL     OW22199   5.047   3.265   8.308 -0.0687 -0.3818 -0.6710
 6436SOL    HW122200   5.042   3.350   8.352 -0.5220  0.6667 -2.6024
 6436SOL    HW222201   5.140   3.242   8.311 -0.1623 -0.6531  1.2894
 6437SOL     OW22202   7.741   0.391   3.501 -0.5360 -0.5499 -0.1677
 6437SOL    HW122203   7.685   0.432   3.567  2.7534  0.6360  2.1608
 6437SOL    HW222204   7.707   0.422   3.417 -1.7563  2.2161  1.2384
 6438SOL     OW22205   5.303   4.055   1.654 -0.2054 -0.1836 -0.3287
 6438SOL    HW122206   5.250   4.080   1.730 -0.7872 -1.8531 -0.1556
 6438SOL    HW222207   5.358   4.132   1.638 -0.8684  0.6312  1.0672
 6439SOL     OW22208   0.569   7.258   3.523  0.1180 -0.1346  0.1302
 6439SOL    HW122209   0.486   7.238   3.567  0.5633 -1.2862  0.4779
 6439SOL    HW222210   0.561   7.218   3.437  0.0923  0.2601 -0.0540
 6440SOL     OW22211   4.215   8.705   7.405 -0.4952  0.0615  0.5917
 6440SOL    HW122212   4.236   8.751   7.323  1.9395 -1.2235  0.3874
 6440SOL    HW222213   4.226   8.772   7.472  2.0019  0.1620  0.2048
 6441SOL     OW22214   8.285   0.796   2.177 -0.4009 -0.2583 -0.2406
 6441SOL    HW122215   8.258   0.705   2.192  0.3441 -0.6366 -1.0870
 6441SOL    HW222216   8.265   0.812   2.085  0.7414 -0.0362 -0.4697
 6442SOL     OW22217   8.980   8.999   6.353  0.8238  0.3434  0.0558
 6442SOL    HW122218   8.985   9.015   6.259  0.0214  1.7940  0.2262
 6442SOL    HW222219   8.887   8.982   6.369  0.9136  0.3530  0.6179
 6443SOL     OW22220   6.606   1.509   0.899 -0.6680 -0.7360 -0.1119
 6443SOL    HW122221   6.640   1.430   0.856  1.2494 -0.0201 -0.0011
 6443SOL    HW222222   6.622   1.579   0.837  0.7381  0.0779  1.1146
 6444SOL     OW22223   1.968   8.691   5.568 -0.5549  0.8827 -0.3481
 6444SOL    HW122224   1.904   8.731   5.627 -0.1740 -0.3995  0.9971
 6444SOL    HW222225   2.047   8.681   5.621  0.3006  1.0365 -1.5362
 6445SOL     OW22226   4.583   2.055   9.327  0.1226 -0.4786  0.3028
 6445SOL    HW122227   4.649   2.032   9.261  0.1690  1.9406 -0.5987
 6445SOL    HW222228   4.633   2.066   9.408  0.6471  0.0178 -0.0779
 6446SOL     OW22229   6.249   3.518   5.949 -0.1839  0.0993  0.0599
 6446SOL    HW122230   6.219   3.462   5.877  0.1542  0.3023 -0.2440
 6446SOL    HW222231   6.186   3.589   5.954  0.5549  0.8582 -0.9752
 6447SOL     OW22232   4.447   0.465   5.151  0.1902 -0.1092  0.0631
 6447SOL    HW122233   4.484   0.382   5.183 -0.7149  0.1902  2.0879
 6447SOL    HW222234   4.389   0.493   5.222  0.6808  2.4054 -0.4551
 6448SOL     OW22235   6.736   9.353   1.582  0.0931 -0.0157  0.2918
 6448SOL    HW122236   6.814   9.375   1.633  0.6160  0.9551 -0.8884
 6448SOL    HW222237   6.680   9.306   1.644  1.7677 -1.1090  1.0723
 6449SOL     OW22238   2.919   3.990   0.856 -0.3512  0.3696  0.1408
 6449SOL    HW122239   2.880   3.919   0.805  0.7335  0.8589 -1.4199
 6449SOL    HW222240   3.013   3.974   0.853 -0.1766  1.1433  0.8937
 6450SOL     OW22241   4.468   0.309   5.695 -0.0333  0.2405 -0.4028
 6450SOL    HW122242   4.443   0.318   5.604  0.2446 -0.5375 -0.5617
 6450SOL    HW222243   4.390   0.277   5.739 -0.2803  0.9843 -0.2950
 6451SOL     OW22244   4.716   5.207   3.980  0.6033  0.0393 -0.2886
 6451SOL    HW122245   4.761   5.144   4.036  0.0384  1.0544  1.4188
 6451SOL    HW222246   4.682   5.272   4.042 -1.5327  0.3228 -1.6636
 6452SOL     OW22247   7.802   1.914   5.521 -0.0153  0.7521 -0.2098
 6452SOL    HW122248   7.833   1.875   5.603 -0.6564  0.1118 -0.2673
 6452SOL    HW222249   7.866   1.983   5.502  2.0988 -1.3025 -0.9769
 6453SOL     OW22250   3.670   5.707   3.911 -0.7929  0.2929  0.0594
 6453SOL    HW122251   3.704   5.790   3.876  1.0740 -0.4045  0.1564
 6453SOL    HW222252   3.722   5.640   3.868 -2.2603 -0.8741  0.0119
 6454SOL     OW22253   6.770   6.589   3.949  0.8481 -0.8236  0.4462
 6454SOL    HW122254   6.826   6.555   3.880 -1.1579 -1.8668 -0.7836
 6454SOL    HW222255   6.708   6.647   3.904  0.6150 -0.0994  1.6579
 6455SOL     OW22256   1.125   7.171   7.143 -0.0108  0.3044  0.3588
 6455SOL    HW122257   1.197   7.109   7.149  0.3255  0.5963 -0.4746
 6455SOL    HW222258   1.046   7.117   7.150  0.2718  0.0440  1.7994
 6456SOL     OW22259   8.842   1.527   0.582 -0.0324  0.0225  0.0061
 6456SOL    HW122260   8.802   1.519   0.495 -0.5938  0.4736  0.2196
 6456SOL    HW222261   8.910   1.459   0.583 -0.0065  0.0210 -0.7911
 6457SOL     OW22262   7.846   4.124   2.069  0.1428 -0.0202 -0.3614
 6457SOL    HW122263   7.859   4.038   2.107 -0.7055  0.5564  1.3577
 6457SOL    HW222264   7.797   4.108   1.988 -1.6102 -1.0686  0.8416
 6458SOL     OW22265   5.840   8.218   6.336 -0.3671 -0.0463 -0.1654
 6458SOL    HW122266   5.884   8.211   6.251 -2.1517  2.0920 -1.3986
 6458SOL    HW222267   5.882   8.292   6.379 -0.6145 -0.0138  0.0262
 6459SOL     OW22268   5.576   2.782   6.735 -0.1019  0.7789  0.0842
 6459SOL    HW122269   5.507   2.776   6.801 -0.9483  0.3502 -0.8224
 6459SOL    HW222270   5.537   2.833   6.664  0.5949  0.7271 -0.3445
 6460SOL     OW22271   7.805   8.651   8.513  0.1451 -0.2090 -0.1462
 6460SOL    HW122272   7.717   8.621   8.491  0.1757  0.2000 -0.8772
 6460SOL    HW222273   7.806   8.657   8.608 -0.9231  0.7021 -0.1779
 6461SOL     OW22274   8.928   4.824   9.508 -0.0586 -0.1729  0.1230
 6461SOL    HW122275   9.006   4.854   9.462  0.6112  0.3279  1.5477
 6461SOL    HW222276   8.961   4.771   9.580 -1.0839 -0.8272  0.1407
 6462SOL     OW22277   5.777   9.450   5.376 -0.2518 -0.0758  0.2557
 6462SOL    HW122278   5.776   9.448   5.472 -0.2433 -0.5051  0.2507
 6462SOL    HW222279   5.858   9.405   5.352 -0.8795 -1.1174  0.0339
 6463SOL     OW22280   3.381   8.051   1.944 -0.0588  0.4484 -0.0604
 6463SOL    HW122281   3.322   8.113   1.902 -0.0085  0.5743  0.0522
 6463SOL    HW222282   3.372   7.971   1.893 -2.6146 -0.5281  1.7289
 6464SOL     OW22283   7.077   8.101   2.743  0.2436 -0.1007  0.5229
 6464SOL    HW122284   7.127   8.178   2.716  0.6413 -0.4710  0.1921
 6464SOL    HW222285   6.986   8.133   2.749  0.5196  0.5817  1.1903
 6465SOL     OW22286   0.123   3.664   0.901  0.4988 -0.2622 -0.4164
 6465SOL    HW122287   0.146   3.748   0.862  1.2022  0.7333  1.9482
 6465SOL    HW222288   0.041   3.639   0.858  0.1630  1.7265 -1.0552
 6466SOL     OW22289   5.434   5.557   2.550 -0.2216 -0.0410 -0.5344
 6466SOL    HW122290   5.463   5.642   2.585  0.0045  0.0704 -0.9883
 6466SOL    HW222291   5.515   5.511   2.530 -0.3478 -0.3169 -0.4111
 6467SOL     OW22292   3.425   1.585   8.669 -0.0479  0.0097 -0.0562
 6467SOL    HW122293   3.482   1.643   8.719 -0.8489 -0.0465  0.9631
 6467SOL    HW222294   3.353   1.565   8.729  0.3551 -2.2991 -0.2501
 6468SOL     OW22295   7.621   5.205   9.226  0.1816 -0.3091 -0.6964
 6468SOL    HW122296   7.669   5.122   9.232  0.1850 -0.2384  0.4035
 6468SOL    HW222297   7.641   5.237   9.138 -1.2075 -2.3057 -1.8348
 6469SOL     OW22298   4.671   7.731   4.582  0.7539  0.1375 -0.7142
 6469SOL    HW122299   4.579   7.757   4.590  0.4485 -1.3236  1.2877
 6469SOL    HW222300   4.721   7.811   4.599 -0.1294  0.7628 -0.9802
 6470SOL     OW22301   3.578   5.000   5.929  0.0253  0.3549 -0.1700
 6470SOL    HW122302   3.673   5.011   5.922  0.1585 -0.0256  0.8920
 6470SOL    HW222303   3.567   4.915   5.972 -0.7955  0.4524 -0.1774
 6471SOL     OW22304   1.862   5.553   1.644 -0.1330  0.1371  0.1585
 6471SOL    HW122305   1.851   5.506   1.561  2.9564  0.7677 -0.7466
 6471SOL    HW222306   1.878   5.484   1.709 -1.1338 -0.2868 -0.0303
 6472SOL     OW22307   7.160   3.745   1.660  0.0306 -0.2504 -0.1279
 6472SOL    HW122308   7.234   3.685   1.649  1.7511  1.8716 -0.8821
 6472SOL    HW222309   7.132   3.733   1.751  1.5014 -0.9162  0.2586
 6473SOL     OW22310   8.618   6.501   4.383 -0.2356  0.0027  0.3905
 6473SOL    HW122311   8.682   6.431   4.399 -1.0705 -0.7809  0.4300
 6473SOL    HW222312   8.638   6.567   4.449 -0.5992 -1.0540  1.6194
 6474SOL     OW22313   9.478   2.995   0.807 -0.0288  0.3537 -0.1710
 6474SOL    HW122314   9.515   2.907   0.803  1.3966  0.7283  2.2413
 6474SOL    HW222315   9.387   2.982   0.832 -0.2366 -0.4496 -1.2720
 6475SOL     OW22316   5.469   8.646   2.843 -0.5104  0.2246  0.0775
 6475SOL    HW122317   5.506   8.557   2.851  0.9737  0.7228 -0.7418
 6475SOL    HW222318   5.421   8.644   2.760  0.8162  0.5829 -0.7294
 6476SOL     OW22319   7.829   9.039   6.935 -0.3019 -0.1595  0.1336
 6476SOL    HW122320   7.780   9.016   6.856  0.8119  0.9554 -0.9264
 6476SOL    HW222321   7.762   9.061   7.000 -1.2214  0.7879 -1.1073
 6477SOL     OW22322   5.485   1.740   2.020 -0.0498  0.0938 -0.8287
 6477SOL    HW122323   5.398   1.719   2.054  0.5383  0.4265  1.0452
 6477SOL    HW222324   5.479   1.831   1.992  0.0840  0.6594  0.8618
 6478SOL     OW22325   5.438   1.541   7.371 -0.7105  0.2413 -0.0306
 6478SOL    HW122326   5.459   1.527   7.464 -2.2032 -2.7943 -0.0061
 6478SOL    HW222327   5.385   1.621   7.370 -1.6694 -0.2990  1.9611
 6479SOL     OW22328   6.714   2.529   4.903 -0.0647  0.3666 -0.4705
 6479SOL    HW122329   6.792   2.585   4.906 -0.0096  0.2751 -0.2137
 6479SOL    HW222330   6.644   2.588   4.875  0.2150  0.3123 -1.3208
 6480SOL     OW22331   7.495   2.876   5.505  0.1471  0.0394 -0.4899
 6480SOL    HW122332   7.425   2.813   5.522  0.1388  0.2092  0.1203
 6480SOL    HW222333   7.481   2.903   5.414 -1.0964  0.7055 -0.1339
 6481SOL     OW22334   9.306   2.660   6.100  0.6555  0.0263  0.4962
 6481SOL    HW122335   9.277   2.631   6.013  2.4384  0.1598 -0.1784
 6481SOL    HW222336   9.344   2.747   6.085 -1.1947  1.1726  1.8639
 6482SOL     OW22337   3.220   8.866   0.800  0.2486  0.1679 -0.0827
 6482SOL    HW122338   3.132   8.830   0.806  0.2489  0.2433  0.3909
 6482SOL    HW222339   3.262   8.842   0.883  1.1520 -1.1273 -0.8737
 6483SOL     OW22340   7.643   0.379   4.316  0.1277  0.0140 -0.0828
 6483SOL    HW122341   7.606   0.394   4.229  1.1398  0.7022 -0.4089
 6483SOL    HW222342   7.640   0.284   4.327 -2.6334  0.0578  0.3315
 6484SOL     OW22343   0.346   7.608   2.900  0.0738 -0.6797  0.3646
 6484SOL    HW122344   0.374   7.518   2.914  1.0084 -0.5380 -0.4531
 6484SOL    HW222345   0.279   7.603   2.831  1.3598 -0.6106 -0.9293
 6485SOL     OW22346   6.038   3.005   1.516  0.5354 -0.4395 -0.1942
 6485SOL    HW122347   6.018   2.927   1.464  0.4445 -0.8309  0.4141
 6485SOL    HW222348   5.963   3.015   1.574  1.7560 -1.5641  1.6931
 6486SOL     OW22349   5.356   8.406   8.016 -0.2084 -0.0428 -0.6250
 6486SOL    HW122350   5.264   8.409   7.991 -0.8664  0.4158  1.6675
 6486SOL    HW222351   5.363   8.332   8.076  0.9121 -0.0373 -0.7101
 6487SOL     OW22352   7.586   9.428   6.739 -0.8587 -0.3289 -0.1928
 6487SOL    HW122353   7.582   9.518   6.706  1.2441  0.5686  1.7417
 6487SOL    HW222354   7.570   9.436   6.833  4.1041 -1.1175  1.0053
 6488SOL     OW22355   4.237   2.454   9.101  0.5245  0.6157 -0.5449
 6488SOL    HW122356   4.213   2.372   9.057  1.5014 -1.1536  1.9677
 6488SOL    HW222357   4.166   2.514   9.080 -2.0651 -1.9253  0.1693
 6489SOL     OW22358   5.917   9.022   5.889  0.1846  0.3737 -0.4390
 6489SOL    HW122359   5.868   8.968   5.951 -0.8653 -0.8873 -2.2619
 6489SOL    HW222360   5.979   8.961   5.849  0.7263  1.1298 -0.7757
 6490SOL     OW22361   4.926   0.680   9.591  0.2074  0.1117  0.6881
 6490SOL    HW122362   5.009   0.712   9.554  0.1415  0.9734  1.2428
 6490SOL    HW222363   4.897   0.612   9.530  0.9902  0.2559  0.1337
 6491SOL     OW22364   3.227   6.428   3.059  0.2917 -0.2262 -0.2669
 6491SOL    HW122365   3.201   6.517   3.084  0.5689 -0.2649  0.1765
 6491SOL    HW222366   3.293   6.441   2.990 -2.5736 -0.1485 -3.2362
 6492SOL     OW22367   0.195   9.262   3.908 -0.2170  0.0308  0.7576
 6492SOL    HW122368   0.127   9.249   3.974 -2.3748  1.7881 -0.9604
 6492SOL    HW222369   0.166   9.337   3.857  3.3677  1.3008  0.2585
 6493SOL     OW22370   5.174   7.308   4.545 -0.0553 -0.3940 -0.3777
 6493SOL    HW122371   5.238   7.317   4.474 -0.6175  1.1893 -0.7271
 6493SOL    HW222372   5.135   7.395   4.553 -0.3479 -0.6561  1.5657
 6494SOL     OW22373   1.048   6.439   3.735 -0.8204 -0.2008 -0.1199
 6494SOL    HW122374   1.107   6.474   3.669  0.3300  0.4173  1.1985
 6494SOL    HW222375   1.002   6.516   3.770 -0.5089 -0.3632  0.6661
 6495SOL     OW22376   3.777   0.261   0.247  0.1830 -0.2441 -0.4336
 6495SOL    HW122377   3.710   0.212   0.294 -0.1626  1.3835  0.8165
 6495SOL    HW222378   3.779   0.347   0.288  1.3186  0.5749 -2.0618
 6496SOL     OW22379   1.705   1.517   2.775  0.0535 -0.2501  0.2845
 6496SOL    HW122380   1.702   1.581   2.846 -2.5483  0.9994 -0.8185
 6496SOL    HW222381   1.632   1.457   2.793  1.5911 -2.1669  0.5349
 6497SOL     OW22382   4.754   1.885   8.491 -0.6206  0.6056  0.0986
 6497SOL    HW122383   4.795   1.929   8.417 -0.9932 -0.7141 -0.9334
 6497SOL    HW222384   4.808   1.808   8.508 -0.6881  0.7500  1.0332
 6498SOL     OW22385   2.884   2.376   1.550  0.2713 -0.5628 -0.1849
 6498SOL    HW122386   2.872   2.315   1.624 -0.4935 -1.7068 -1.2057
 6498SOL    HW222387   2.915   2.320   1.479  2.0656  0.7115 -0.4586
 6499SOL     OW22388   3.049   6.128   4.919 -0.1845  0.2470  0.6236
 6499SOL    HW122389   2.955   6.108   4.920  0.0067 -0.8195 -0.3973
 6499SOL    HW222390   3.080   6.092   4.837  1.2044  0.2580  1.1188
 6500SOL     OW22391   4.982   2.193   8.415 -0.0541 -0.3919  0.1102
 6500SOL    HW122392   4.925   2.255   8.460 -1.1632 -1.7290  0.6060
 6500SOL    HW222393   5.018   2.139   8.485 -1.6974 -2.4227 -0.5188
 6501SOL     OW22394   2.457   8.791   9.025 -0.1575  0.3507 -0.4677
 6501SOL    HW122395   2.467   8.867   9.082  0.9506  1.1459 -1.6730
 6501SOL    HW222396   2.388   8.816   8.963 -2.2977 -0.9927  1.1725
 6502SOL     OW22397   7.407   3.102   8.651  0.2117  0.5187 -0.3488
 6502SOL    HW122398   7.485   3.145   8.685 -0.2578  0.5512  0.7389
 6502SOL    HW222399   7.423   3.092   8.557  2.4170 -1.3324  0.1182
 6503SOL     OW22400   7.677   3.264   6.389  0.0127  0.2324  0.1286
 6503SOL    HW122401   7.692   3.170   6.398 -2.3506 -0.1746  0.5273
 6503SOL    HW222402   7.600   3.281   6.444  1.8721  2.8919  2.1514
 6504SOL     OW22403   7.845   8.279   7.640  0.6148 -0.1202 -0.0565
 6504SOL    HW122404   7.937   8.281   7.614  0.9397 -0.4718  1.0532
 6504SOL    HW222405   7.844   8.311   7.730 -0.3235 -0.3015  0.0096
 6505SOL     OW22406   8.461   6.403   0.580 -0.4834  0.3080  0.1235
 6505SOL    HW122407   8.526   6.404   0.509 -1.0186 -0.4596 -0.4056
 6505SOL    HW222408   8.457   6.493   0.610  1.1946  0.2933  0.5280
 6506SOL     OW22409   0.303   8.562   0.551 -0.1029 -0.0973  0.1550
 6506SOL    HW122410   0.263   8.576   0.465  2.1743  0.8909 -0.8331
 6506SOL    HW222411   0.229   8.543   0.609 -1.6560 -1.8270 -2.1833
 6507SOL     OW22412   8.335   4.595   8.639 -0.1331  0.0201 -0.4825
 6507SOL    HW122413   8.415   4.620   8.592 -0.2679  1.1792 -0.1423
 6507SOL    HW222414   8.277   4.561   8.572  0.5888 -0.6999 -0.7581
 6508SOL     OW22415   4.587   9.437   0.482 -0.0519  0.0253 -0.3349
 6508SOL    HW122416   4.502   9.471   0.510  0.6289  0.3668  1.5017
 6508SOL    HW222417   4.631   9.512   0.441 -0.8946 -0.3527 -1.9735
 6509SOL     OW22418   3.553   8.987   0.909  1.1490 -0.4372 -0.2283
 6509SOL    HW122419   3.579   8.993   0.817 -0.0654 -0.1161 -0.5633
 6509SOL    HW222420   3.458   8.977   0.907  0.9861  0.6266  1.0221
 6510SOL     OW22421   7.967   3.851   4.099  0.0932 -0.2624  0.1501
 6510SOL    HW122422   7.963   3.764   4.139 -2.0892 -0.0975  0.4301
 6510SOL    HW222423   7.949   3.836   4.006 -0.8618 -0.0687  0.2976
 6511SOL     OW22424   4.364   3.816   5.571 -0.1393 -0.3688  0.2497
 6511SOL    HW122425   4.269   3.804   5.572 -0.3235  0.8520  1.6237
 6511SOL    HW222426   4.399   3.734   5.607 -0.5252 -1.4319 -1.6510
 6512SOL     OW22427   9.561   2.916   2.410  0.0266 -0.8151  0.2270
 6512SOL    HW122428   9.632   2.867   2.450 -0.6747 -0.7766  1.5761
 6512SOL    HW222429   9.526   2.858   2.342  0.4481 -1.3769  0.4851
 6513SOL     OW22430   0.115   8.294   4.013  0.1416  0.5185  0.6959
 6513SOL    HW122431   0.176   8.275   4.084  1.5019  0.3955 -0.4779
 6513SOL    HW222432   0.150   8.248   3.937 -0.4667  1.8171 -0.4292
 6514SOL     OW22433   1.943   1.257   7.879  0.3636 -0.4646  0.4149
 6514SOL    HW122434   1.930   1.199   7.804  0.0634 -0.8229  0.7429
 6514SOL    HW222435   1.889   1.219   7.949  1.7751 -0.9751  1.2678
 6515SOL     OW22436   4.026   4.205   9.420 -0.3445 -0.0499  0.3533
 6515SOL    HW122437   3.963   4.222   9.489 -1.3150  1.6901 -0.9005
 6515SOL    HW222438   4.066   4.290   9.401  1.0707 -0.7800 -0.1569
 6516SOL     OW22439   7.418   8.248   2.538 -0.0101  0.5027  0.2046
 6516SOL    HW122440   7.419   8.154   2.557 -1.1326  0.2049 -1.0808
 6516SOL    HW222441   7.338   8.280   2.580  1.2380  1.2715  2.1510
 6517SOL     OW22442   3.821   3.328   8.326  0.1329  0.0186 -0.4049
 6517SOL    HW122443   3.880   3.403   8.328  1.2664 -0.7847 -2.0859
 6517SOL    HW222444   3.744   3.358   8.277  0.3058  0.2660 -0.5237
 6518SOL     OW22445   3.469   3.483   4.684 -0.0355  0.3741  0.2745
 6518SOL    HW122446   3.555   3.472   4.726  0.1345  1.5597  0.2725
 6518SOL    HW222447   3.436   3.394   4.675  1.2918 -0.1333  0.0767
 6519SOL     OW22448   9.376   4.870   2.304 -0.4439  0.2994 -0.2584
 6519SOL    HW122449   9.434   4.844   2.232  0.5297  0.1778  0.5489
 6519SOL    HW222450   9.310   4.926   2.263  0.5595  0.8846 -1.1074
 6520SOL     OW22451   5.341   0.643   1.791  0.2441 -0.0433 -0.2204
 6520SOL    HW122452   5.289   0.662   1.712 -0.3729  1.3501  0.4780
 6520SOL    HW222453   5.367   0.552   1.781 -0.6652 -0.1916 -1.5612
 6521SOL     OW22454   7.940   2.901   2.626 -0.3751 -0.1929  0.1486
 6521SOL    HW122455   7.995   2.823   2.631  0.6157  0.3952 -1.1721
 6521SOL    HW222456   7.905   2.901   2.537 -1.7041 -0.0058  0.6519
 6522SOL     OW22457   4.265   7.698   8.817  0.2110  0.0381  0.5568
 6522SOL    HW122458   4.219   7.629   8.864 -1.0761  0.9294  0.6731
 6522SOL    HW222459   4.209   7.775   8.828  1.7991  1.2065  0.7758
 6523SOL     OW22460   3.850   2.711   0.266  0.6983  0.9425 -0.3453
 6523SOL    HW122461   3.919   2.777   0.277  1.8651 -0.4350  1.3657
 6523SOL    HW222462   3.897   2.633   0.236 -0.2010  0.1458  0.2598
 6524SOL     OW22463   2.783   0.644   9.358 -0.7738 -0.0843 -0.1835
 6524SOL    HW122464   2.753   0.659   9.448  0.7540 -0.7809  0.4826
 6524SOL    HW222465   2.728   0.572   9.327 -1.3649  0.2051  0.1696
 6525SOL     OW22466   9.212   0.007   4.988 -0.5998 -0.3070 -0.8455
 6525SOL    HW122467   9.143   0.057   4.943 -0.4197 -0.3335 -1.1510
 6525SOL    HW222468   9.275  -0.013   4.919  0.1173  0.4168 -0.4057
 6526SOL     OW22469   5.968   2.011   2.387 -0.4162 -0.9653  0.3483
 6526SOL    HW122470   5.904   1.978   2.324  1.7324  1.5456 -3.5781
 6526SOL    HW222471   5.927   2.089   2.425 -0.5768 -0.7005 -0.3669
 6527SOL     OW22472   2.759   4.316   7.656  0.1432  0.1346  0.2108
 6527SOL    HW122473   2.783   4.258   7.583 -2.4833 -0.1260 -0.5350
 6527SOL    HW222474   2.842   4.334   7.700  1.4368 -1.9932 -1.1547
 6528SOL     OW22475   5.775   8.100   2.783  0.0241  0.1564 -0.3535
 6528SOL    HW122476   5.822   8.178   2.810 -0.3828  0.1135  0.5279
 6528SOL    HW222477   5.695   8.133   2.743  0.0827  0.2053 -0.4292
 6529SOL     OW22478   5.311   4.391   0.213 -0.1981 -0.0805 -0.0931
 6529SOL    HW122479   5.306   4.485   0.197  1.6751  0.1064  0.2394
 6529SOL    HW222480   5.301   4.381   0.308  0.4884 -0.1234 -0.0196
 6530SOL     OW22481   3.382   7.344   3.853 -0.3831  0.2565 -0.2722
 6530SOL    HW122482   3.461   7.386   3.821 -0.4833  0.2205 -0.5677
 6530SOL    HW222483   3.350   7.293   3.779  1.2011 -2.5496  0.8230
 6531SOL     OW22484   0.543   1.549   5.374  0.3498 -0.1725 -0.1593
 6531SOL    HW122485   0.449   1.533   5.386 -0.3322  1.2480 -2.7767
 6531SOL    HW222486   0.573   1.474   5.322  0.5842 -0.3553  0.2293
 6532SOL     OW22487   2.693   5.538   3.210  0.0264 -0.1099  0.2519
 6532SOL    HW122488   2.600   5.545   3.234 -0.9018 -0.9176 -2.6312
 6532SOL    HW222489   2.729   5.477   3.274 -1.3896  0.3203  1.5228
 6533SOL     OW22490   4.738   6.894   0.766  0.3694 -0.6129  0.2300
 6533SOL    HW122491   4.791   6.964   0.804 -0.3132 -0.4495  0.8964
 6533SOL    HW222492   4.651   6.932   0.757  0.5764 -0.5012 -1.9135
 6534SOL     OW22493   3.105   3.551   2.808  0.4922 -0.6186 -0.1726
 6534SOL    HW122494   3.144   3.571   2.724  0.4311 -1.1696 -0.3402
 6534SOL    HW222495   3.091   3.636   2.850 -0.3192 -0.2847 -1.0964
 6535SOL     OW22496   1.301   9.268   1.874 -0.3101 -0.2063  0.2486
 6535SOL    HW122497   1.248   9.284   1.796  1.5700  1.8444 -0.7431
 6535SOL    HW222498   1.365   9.202   1.847  1.1132  1.3656 -0.4565
 6536SOL     OW22499   9.181   1.256   0.919  0.2297 -0.0147  0.0779
 6536SOL    HW122500   9.242   1.326   0.896 -0.4421  0.5815  0.0589
 6536SOL    HW222501   9.143   1.229   0.835  0.5047 -0.4230  0.0825
 6537SOL     OW22502   2.077   8.755   4.045  0.1180  0.3532 -0.3700
 6537SOL    HW122503   2.162   8.797   4.032  0.5598 -0.5833 -0.5711
 6537SOL    HW222504   2.096   8.661   4.046 -0.9491  0.1163 -0.7197
 6538SOL     OW22505   9.581   6.432   7.805  0.4136  0.1066 -0.0480
 6538SOL    HW122506   9.520   6.499   7.775  0.8037 -0.1843 -1.5576
 6538SOL    HW222507   9.551   6.410   7.893 -0.4345  1.4050  0.0185
 6539SOL     OW22508   4.149   9.638   6.405  0.0301  0.3377 -0.3412
 6539SOL    HW122509   4.184   9.685   6.481  0.2112 -0.1295 -0.1314
 6539SOL    HW222510   4.153   9.545   6.430 -0.8877  0.2479 -0.5209
 6540SOL     OW22511   3.266   5.298   1.590  0.5831  0.1318  0.1862
 6540SOL    HW122512   3.187   5.247   1.609  0.8444 -1.3405 -2.2129
 6540SOL    HW222513   3.277   5.355   1.666 -1.5069 -1.2061  1.6019
 6541SOL     OW22514   8.324   4.081   7.895 -0.2421 -0.3017  0.3113
 6541SOL    HW122515   8.281   4.084   7.809 -1.0302  1.5020  0.7165
 6541SOL    HW222516   8.351   4.172   7.911  1.2027 -0.8801  1.3489
 6542SOL     OW22517   8.083   6.072   0.180  0.1721  0.0603  0.0418
 6542SOL    HW122518   8.018   6.002   0.174  1.2040 -0.8152 -1.8489
 6542SOL    HW222519   8.079   6.116   0.095  1.0247  0.9419  0.4399
 6543SOL     OW22520   3.823   2.673   0.863  0.0632  0.4415 -0.2599
 6543SOL    HW122521   3.879   2.749   0.848  1.7743 -0.9701 -1.5246
 6543SOL    HW222522   3.861   2.604   0.808 -2.8324 -0.6832 -1.0466
 6544SOL     OW22523   6.947   7.016   2.346  0.0943 -0.5304  0.3793
 6544SOL    HW122524   6.986   7.103   2.357 -0.2343 -0.2278 -0.6653
 6544SOL    HW222525   7.014   6.965   2.302 -0.2328 -0.3681 -0.3203
 6545SOL     OW22526   7.391   4.697   4.964  0.2875  0.2424  0.3842
 6545SOL    HW122527   7.485   4.710   4.950  0.6281 -0.6831  1.6757
 6545SOL    HW222528   7.350   4.760   4.905  1.7123  0.7007 -0.1748
 6546SOL     OW22529   0.616   7.121   5.072  0.4113 -0.5858  0.0342
 6546SOL    HW122530   0.612   7.049   5.134  0.1218  1.4266  2.5209
 6546SOL    HW222531   0.525   7.134   5.044  0.5491 -1.5267 -0.9073
 6547SOL     OW22532   0.447   9.516   5.037 -0.0228  0.3217  0.1390
 6547SOL    HW122533   0.483   9.436   5.074  0.0260 -0.4615 -1.4917
 6547SOL    HW222534   0.352   9.503   5.039 -0.0558  0.6179  0.6849
 6548SOL     OW22535   2.812   5.734   3.755 -0.6125  0.4046 -0.1232
 6548SOL    HW122536   2.773   5.665   3.809  1.3505 -0.1910  0.6450
 6548SOL    HW222537   2.756   5.811   3.770 -0.8771 -0.0941  1.7704
 6549SOL     OW22538   0.899   1.784   9.100 -0.1881 -0.2242  0.4908
 6549SOL    HW122539   0.991   1.782   9.125 -0.6809  0.0355  2.4164
 6549SOL    HW222540   0.894   1.855   9.036  0.8696  0.0056  0.6364
 6550SOL     OW22541   2.784   1.649   4.442 -0.5580  0.3177 -0.0346
 6550SOL    HW122542   2.841   1.712   4.398 -0.6991 -0.2531 -1.0523
 6550SOL    HW222543   2.845   1.583   4.477 -0.5399  0.0878 -0.4984
 6551SOL     OW22544   1.914   1.820   4.527 -0.2869  0.4754 -0.2846
 6551SOL    HW122545   1.871   1.902   4.550 -0.1145  0.6536 -0.5793
 6551SOL    HW222546   1.844   1.755   4.525 -0.3807  0.5616  0.2141
 6552SOL     OW22547   6.504   1.535   8.026  0.2876  0.1969  0.1976
 6552SOL    HW122548   6.566   1.545   8.098 -0.1108  0.9711  0.4481
 6552SOL    HW222549   6.432   1.484   8.063 -0.0350  0.8105  0.4363
 6553SOL     OW22550   6.520   1.771   1.974 -0.3891 -0.1646  0.2140
 6553SOL    HW122551   6.586   1.758   2.042 -1.2409 -0.4100  1.0150
 6553SOL    HW222552   6.457   1.700   1.988 -0.6448 -0.1381 -0.7563
 6554SOL     OW22553   7.973   0.753   1.129 -0.8324 -0.6754  0.2947
 6554SOL    HW122554   7.928   0.738   1.045  0.5599 -1.4726 -0.3422
 6554SOL    HW222555   7.987   0.665   1.164  1.6748 -0.5811 -0.3246
 6555SOL     OW22556   8.178   9.363   5.549 -0.0379  0.0227  0.2800
 6555SOL    HW122557   8.106   9.301   5.565 -0.8517  1.0625  0.7176
 6555SOL    HW222558   8.161   9.436   5.608 -0.5575  1.8868 -2.0089
 6556SOL     OW22559   7.120   3.852   1.195  0.1533  0.0283 -0.3114
 6556SOL    HW122560   7.073   3.772   1.220  1.2166 -0.6450 -0.4313
 6556SOL    HW222561   7.082   3.876   1.110 -0.5674 -0.0164 -0.0103
 6557SOL     OW22562   9.107   0.425   3.571 -0.0888  0.5624  0.5035
 6557SOL    HW122563   9.046   0.496   3.553  1.1169  1.6012  0.3507
 6557SOL    HW222564   9.170   0.429   3.499  1.1548  0.6735  1.5552
 6558SOL     OW22565   7.631   4.672   8.087  0.4234 -0.3417  0.1107
 6558SOL    HW122566   7.676   4.752   8.063 -0.3320  0.0826  0.0753
 6558SOL    HW222567   7.677   4.641   8.165  1.0483 -0.1658 -0.1818
 6559SOL     OW22568   6.917   2.755   0.255 -0.1414 -0.0006  0.2929
 6559SOL    HW122569   6.957   2.810   0.187 -3.0212  0.8910 -0.8728
 6559SOL    HW222570   6.942   2.796   0.337 -0.9328  2.2478 -0.5038
 6560SOL     OW22571   6.082   4.800   3.383  0.9136  0.6955 -0.0454
 6560SOL    HW122572   6.099   4.807   3.289  0.6441 -1.7153 -0.3323
 6560SOL    HW222573   5.992   4.769   3.389  1.1502  0.1501  0.9702
 6561SOL     OW22574   9.156   7.841   5.348 -0.1769 -0.0856  0.1373
 6561SOL    HW122575   9.229   7.885   5.304 -1.0669  1.5208  0.2327
 6561SOL    HW222576   9.134   7.768   5.289 -0.5147  1.2673 -1.4903
 6562SOL     OW22577   8.708   0.658   0.329  0.2101  0.4308  0.9471
 6562SOL    HW122578   8.678   0.679   0.241  0.1846  0.7501  1.0303
 6562SOL    HW222579   8.709   0.742   0.375  5.2161  1.3363 -0.2036
 6563SOL     OW22580   2.638   1.691   7.444 -0.0519  0.3450  0.0933
 6563SOL    HW122581   2.564   1.736   7.486 -0.5805  0.7327 -1.1999
 6563SOL    HW222582   2.712   1.705   7.504 -1.0537 -0.2439  1.5317
 6564SOL     OW22583   3.686   7.676   2.521  0.3185  0.2727 -0.0165
 6564SOL    HW122584   3.657   7.730   2.595  3.2860  1.0165  0.7219
 6564SOL    HW222585   3.700   7.738   2.450 -1.7933 -0.3545 -1.0809
 6565SOL     OW22586   6.733   7.196   7.953 -0.1469  0.4985 -0.2071
 6565SOL    HW122587   6.686   7.250   7.888 -0.4277  2.4771  1.5310
 6565SOL    HW222588   6.794   7.257   7.994 -0.5676 -0.4570  1.9786
 6566SOL     OW22589   2.265   1.626   1.224  0.3328  0.0248 -0.3375
 6566SOL    HW122590   2.215   1.705   1.240  1.4341  0.5084  0.8781
 6566SOL    HW222591   2.327   1.650   1.155  0.6101  0.2135 -0.0280
 6567SOL     OW22592   4.784   9.379   8.046  0.2475  0.0646  0.2634
 6567SOL    HW122593   4.701   9.419   8.019 -0.4766 -0.9416  0.9253
 6567SOL    HW222594   4.811   9.327   7.970 -1.3922 -2.1418  1.0619
 6568SOL     OW22595   4.430   2.995   2.966 -0.1286 -0.5731  0.0163
 6568SOL    HW122596   4.428   3.070   3.026 -0.4795  0.6015 -1.3946
 6568SOL    HW222597   4.424   3.035   2.879 -0.6738 -2.2763 -0.7592
 6569SOL     OW22598   8.785   6.049   0.626  0.8433  0.0287 -0.2744
 6569SOL    HW122599   8.804   5.992   0.701  0.4076 -1.7310 -1.4177
 6569SOL    HW222600   8.698   6.022   0.598  0.5788  1.3830 -0.7890
 6570SOL     OW22601   6.653   3.763   5.909  0.2613 -0.6508 -0.3151
 6570SOL    HW122602   6.584   3.765   5.975  0.9839  1.1133  0.4423
 6570SOL    HW222603   6.713   3.833   5.934  1.1859 -0.7020 -2.1839
 6571SOL     OW22604   6.015   4.367   1.869  0.1622 -0.0331  0.1295
 6571SOL    HW122605   6.034   4.299   1.805  0.5871  0.6786 -0.5273
 6571SOL    HW222606   5.958   4.428   1.823 -0.2015  0.0679  0.7032
 6572SOL     OW22607   0.263   6.048   0.762 -0.8978 -0.4360  0.7120
 6572SOL    HW122608   0.186   6.002   0.729  0.1560 -1.7440 -0.0203
 6572SOL    HW222609   0.282   6.007   0.846 -0.8158 -0.3390  0.7413
 6573SOL     OW22610   1.043   7.239   3.591 -0.3338 -0.2123 -0.2255
 6573SOL    HW122611   0.949   7.255   3.582 -0.3788 -0.4453 -0.1706
 6573SOL    HW222612   1.076   7.314   3.641 -0.4964 -0.1545 -0.2068
 6574SOL     OW22613   8.403   1.340   9.323 -0.1085  0.5411 -0.5560
 6574SOL    HW122614   8.346   1.416   9.313  0.6385  1.1505 -0.2917
 6574SOL    HW222615   8.348   1.274   9.367 -0.0449  1.8297  1.6386
 6575SOL     OW22616   5.353   8.223   8.975  0.1867  0.1902  0.3731
 6575SOL    HW122617   5.270   8.261   8.946  0.2841 -1.2239 -2.1033
 6575SOL    HW222618   5.333   8.183   9.059 -1.0628  1.6999  0.8400
 6576SOL     OW22619   7.601   7.871   8.816  0.2674 -0.2914 -0.5787
 6576SOL    HW122620   7.663   7.832   8.753  0.9467 -0.0809 -0.0521
 6576SOL    HW222621   7.555   7.938   8.766  2.2583  1.3439 -0.3752
 6577SOL     OW22622   8.620   2.813   7.400 -0.1442  0.2898  0.3091
 6577SOL    HW122623   8.646   2.783   7.487 -0.5196  0.7547  0.5865
 6577SOL    HW222624   8.644   2.905   7.398  0.4527  0.1272 -0.3188
 6578SOL     OW22625   0.182   3.732   2.886  0.5571 -0.2877  0.2678
 6578SOL    HW122626   0.108   3.693   2.838  1.6748 -0.2416 -1.5612
 6578SOL    HW222627   0.224   3.658   2.929 -0.4549 -0.3316  1.2227
 6579SOL     OW22628   3.443   8.011   5.268 -0.1212 -0.5877 -0.3608
 6579SOL    HW122629   3.467   8.079   5.330  1.1062 -1.6677  0.4106
 6579SOL    HW222630   3.357   7.981   5.296 -1.5658  1.8581 -1.8337
 6580SOL     OW22631   2.717   0.080   5.383 -0.5016  0.2451 -0.0952
 6580SOL    HW122632   2.732   0.023   5.307 -2.8947 -1.4998  0.5915
 6580SOL    HW222633   2.766   0.038   5.453 -1.2105 -0.2532  0.1133
 6581SOL     OW22634   6.647   2.374   3.088  0.8253 -0.4464  0.1346
 6581SOL    HW122635   6.567   2.324   3.077  0.8673 -0.3103 -0.8671
 6581SOL    HW222636   6.630   2.457   3.043  0.8185  0.3959  1.6131
 6582SOL     OW22637   2.523   5.595   1.600 -0.1894 -0.9749 -0.3685
 6582SOL    HW122638   2.593   5.549   1.646  0.7847 -0.5197 -1.3669
 6582SOL    HW222639   2.548   5.592   1.508 -0.3934  0.9900 -0.5445
 6583SOL     OW22640   8.019   5.385   9.030  0.3488 -0.6984  0.1197
 6583SOL    HW122641   8.017   5.459   8.969  0.2288 -0.1994  0.7050
 6583SOL    HW222642   8.092   5.331   9.001  0.4905 -0.2988 -0.2744
 6584SOL     OW22643   0.773   6.268   0.491  0.4083  0.2564  0.0058
 6584SOL    HW122644   0.685   6.300   0.468  1.5534  2.6355 -1.4229
 6584SOL    HW222645   0.767   6.173   0.482 -1.9245  0.3785 -0.3586
 6585SOL     OW22646   9.445   5.907   5.686 -0.0045  0.7411  0.7035
 6585SOL    HW122647   9.476   5.994   5.712 -0.9333  0.8336  1.6099
 6585SOL    HW222648   9.350   5.917   5.681 -0.0661 -0.0698  0.1901
 6586SOL     OW22649   4.202   0.580   3.795 -0.2061  0.3561 -0.2449
 6586SOL    HW122650   4.114   0.581   3.833  0.3749  1.0109  1.1843
 6586SOL    HW222651   4.208   0.497   3.748 -1.0735 -0.4054  0.9265
 6587SOL     OW22652   8.474   1.908   5.071  0.1094  0.3286  0.3113
 6587SOL    HW122653   8.498   1.955   5.151  0.9926 -0.3674  0.4743
 6587SOL    HW222654   8.542   1.932   5.008 -0.8027  1.1924 -0.3714
 6588SOL     OW22655   5.149   5.228   9.187 -0.0597  0.0819  0.3688
 6588SOL    HW122656   5.184   5.199   9.102 -2.5987  1.3773 -1.2635
 6588SOL    HW222657   5.211   5.195   9.251  1.2278 -2.2339 -1.8774
 6589SOL     OW22658   6.464   3.202   4.917 -0.3375 -0.1277 -0.5335
 6589SOL    HW122659   6.520   3.137   4.959 -0.0026  0.1918 -0.4848
 6589SOL    HW222660   6.473   3.281   4.972  1.5773  0.9065 -2.2265
 6590SOL     OW22661   7.449   2.285   1.742 -0.2677 -0.0572  0.2533
 6590SOL    HW122662   7.432   2.274   1.648 -0.1473 -0.0719  0.2330
 6590SOL    HW222663   7.364   2.310   1.779 -0.3696 -0.2923  0.1785
 6591SOL     OW22664   7.928   0.442   9.548  0.5688  0.4112 -0.0723
 6591SOL    HW122665   7.945   0.370   9.486  0.1259 -1.1997  1.6031
 6591SOL    HW222666   8.014   0.463   9.584  0.6954  0.7392 -0.5486
 6592SOL     OW22667   1.569   3.190   2.241  0.0959  0.2682  0.5780
 6592SOL    HW122668   1.636   3.122   2.247 -1.4936 -1.4131  0.3127
 6592SOL    HW222669   1.578   3.226   2.153  0.8490  0.2873  0.6606
 6593SOL     OW22670   3.551   0.964   5.020  0.4721 -0.0651 -0.5325
 6593SOL    HW122671   3.542   0.900   4.950  1.0836  0.3362 -0.9933
 6593SOL    HW222672   3.468   1.011   5.019  0.4443 -0.1142 -0.9454
 6594SOL     OW22673   0.812   3.634   2.611  0.0543 -0.2724  0.1511
 6594SOL    HW122674   0.750   3.701   2.642  1.0943  1.2541 -0.8955
 6594SOL    HW222675   0.759   3.555   2.602 -1.2903  0.4581  1.2003
 6595SOL     OW22676   2.083   4.407   1.776  0.6071  0.4607 -0.5111
 6595SOL    HW122677   2.093   4.487   1.828 -1.0665 -0.0712  0.7221
 6595SOL    HW222678   2.064   4.339   1.841 -0.0231 -0.5370 -1.6971
 6596SOL     OW22679   4.173   1.706   8.269  0.3387  0.6138  0.2518
 6596SOL    HW122680   4.078   1.694   8.265  0.6203 -1.9611 -0.9657
 6596SOL    HW222681   4.185   1.785   8.321 -2.4784  1.5963 -0.4213
 6597SOL     OW22682   5.043   4.484   2.072  0.7626 -0.4258 -0.3995
 6597SOL    HW122683   5.121   4.430   2.065  1.6998  0.8941 -0.6194
 6597SOL    HW222684   4.989   4.440   2.137  2.2161 -0.7684  0.6208
 6598SOL     OW22685   0.409   4.501   8.877  0.2333 -0.3397 -0.3164
 6598SOL    HW122686   0.431   4.594   8.864  0.1615 -0.2330  0.2966
 6598SOL    HW222687   0.322   4.502   8.916  1.1638 -0.5453  1.9030
 6599SOL     OW22688   9.558   1.244   3.589 -0.1377 -0.2886  0.0669
 6599SOL    HW122689   9.510   1.233   3.507 -0.3499  0.2293  0.1135
 6599SOL    HW222690   9.490   1.241   3.657 -0.0152 -0.2716  0.1899
 6600SOL     OW22691   0.401   6.444   3.972 -0.0259 -0.0392 -0.0771
 6600SOL    HW122692   0.413   6.428   3.879  1.1706  1.9550 -0.3207
 6600SOL    HW222693   0.366   6.533   3.977  0.7687  0.2337  1.3997
 6601SOL     OW22694   8.595   0.566   7.810  0.0430 -0.6561 -0.7645
 6601SOL    HW122695   8.600   0.657   7.838 -2.5135 -0.5363 -0.4225
 6601SOL    HW222696   8.649   0.518   7.873 -0.6536  0.3398  0.6414
 6602SOL     OW22697   5.418   5.205   4.721 -0.9142 -0.4678 -0.8027
 6602SOL    HW122698   5.482   5.242   4.782 -4.1692  2.4556  1.2185
 6602SOL    HW222699   5.448   5.116   4.706  2.4143  0.0438  1.6578
 6603SOL     OW22700   8.855   4.574   0.498 -0.2115  0.5157 -0.5968
 6603SOL    HW122701   8.932   4.593   0.551 -0.2193  0.4125 -0.5488
 6603SOL    HW222702   8.885   4.510   0.434 -0.9722 -1.9004  1.3111
 6604SOL     OW22703   2.542   6.498   9.150  0.3686 -0.0297  0.3946
 6604SOL    HW122704   2.503   6.415   9.177 -2.1111  0.6315 -0.8550
 6604SOL    HW222705   2.487   6.565   9.192  0.5051  0.9618 -0.9433
 6605SOL     OW22706   1.796   4.283   4.061 -0.3220  0.2207  0.1395
 6605SOL    HW122707   1.816   4.357   4.003  1.2948  0.3955  0.8895
 6605SOL    HW222708   1.868   4.280   4.124  0.3379 -2.7402 -0.5798
 6606SOL     OW22709   4.883   5.965   3.028  0.2137 -0.6510 -0.2095
 6606SOL    HW122710   4.844   6.025   2.963 -0.4103 -1.6966 -0.8311
 6606SOL    HW222711   4.974   5.957   3.001  0.1923 -0.3368 -0.3860
 6607SOL     OW22712   9.246   9.007   8.079 -0.2144 -0.0771  0.7876
 6607SOL    HW122713   9.302   8.953   8.135  0.5573  2.0254  2.2021
 6607SOL    HW222714   9.288   9.004   7.993  1.4198  0.4355  1.5142
 6608SOL     OW22715   7.491   4.398   8.809 -0.1677  0.0245  0.0112
 6608SOL    HW122716   7.492   4.418   8.715  2.4398  2.9418  0.4788
 6608SOL    HW222717   7.561   4.334   8.820 -1.3631 -1.3548 -0.1300
 6609SOL     OW22718   8.591   5.544   7.903  0.1844 -0.4011  0.0670
 6609SOL    HW122719   8.571   5.467   7.955 -0.9197 -1.4022 -1.7335
 6609SOL    HW222720   8.617   5.509   7.817 -1.7966  1.1886 -1.2781
 6610SOL     OW22721   7.238   6.929   4.968  0.0086  0.4455  0.8653
 6610SOL    HW122722   7.206   6.919   5.057 -0.0224 -0.5192  0.7606
 6610SOL    HW222723   7.177   6.877   4.915  1.2520 -0.7804  0.5718
 6611SOL     OW22724   3.607   9.212   7.772 -0.3567  0.4544  0.1758
 6611SOL    HW122725   3.672   9.191   7.706  1.3055  1.4462  1.4151
 6611SOL    HW222726   3.565   9.128   7.792  0.8756 -0.3061 -0.3149
 6612SOL     OW22727   8.587   8.220   6.751 -0.5912  0.0363 -0.0747
 6612SOL    HW122728   8.651   8.235   6.821 -0.2826  0.1122 -0.3691
 6612SOL    HW222729   8.640   8.192   6.676 -0.8299  0.7897 -0.5293
 6613SOL     OW22730   7.350   5.486   3.142  0.0954 -0.4133 -0.2405
 6613SOL    HW122731   7.386   5.536   3.215 -2.5062  1.6928 -0.2608
 6613SOL    HW222732   7.269   5.448   3.176 -1.4714  1.0623 -2.0916
 6614SOL     OW22733   9.509   0.421   9.595  0.2759  0.1591  0.7120
 6614SOL    HW122734   9.435   0.424   9.535  0.0872 -1.2625  0.8534
 6614SOL    HW222735   9.502   0.503   9.645 -0.9175  0.2663  0.3967
 6615SOL     OW22736   3.975   2.750   3.664 -0.1055  0.3949 -0.0091
 6615SOL    HW122737   4.023   2.705   3.733  1.4103  1.1985 -0.4919
 6615SOL    HW222738   3.942   2.830   3.705  0.0778  0.4613  0.0124
 6616SOL     OW22739   5.154   4.548   5.582  0.3080 -0.4993  0.4245
 6616SOL    HW122740   5.093   4.616   5.554 -0.1007 -0.7074  0.7999
 6616SOL    HW222741   5.207   4.530   5.504  0.5795  0.4105  0.3793
 6617SOL     OW22742   8.451   5.482   6.193  0.1703 -0.0189  1.0083
 6617SOL    HW122743   8.497   5.513   6.115 -1.2456  0.2999  0.2598
 6617SOL    HW222744   8.442   5.388   6.180 -3.0847  0.3827 -1.0395
 6618SOL     OW22745   4.680   2.190   1.269  0.1816 -0.6496  0.1077
 6618SOL    HW122746   4.621   2.212   1.341 -0.5915  1.0960 -0.9936
 6618SOL    HW222747   4.628   2.134   1.211  0.3630 -0.9808  0.2665
 6619SOL     OW22748   6.909   3.291   8.612  0.6036 -0.1214  0.2072
 6619SOL    HW122749   7.000   3.271   8.636  1.0930  2.8332  1.1752
 6619SOL    HW222750   6.916   3.336   8.528  0.2672  1.6995  1.1181
 6620SOL     OW22751   5.669   4.385   6.360 -0.2099  1.2065 -0.0271
 6620SOL    HW122752   5.723   4.337   6.297 -0.0982 -1.2829  1.8237
 6620SOL    HW222753   5.718   4.466   6.378  1.1935  0.5796 -0.9117
 6621SOL     OW22754   7.107   3.928   0.851  0.3160  0.0398  0.2580
 6621SOL    HW122755   7.144   3.985   0.783 -0.8370 -0.2635 -0.6463
 6621SOL    HW222756   7.017   3.958   0.862 -0.2407 -1.4250 -0.0538
 6622SOL     OW22757   6.798   6.033   5.545 -0.0002  0.4037 -0.5920
 6622SOL    HW122758   6.729   6.029   5.611 -0.6121  0.6552 -1.2001
 6622SOL    HW222759   6.804   5.943   5.510  0.9439  0.0572  0.4047
 6623SOL     OW22760   4.463   3.500   3.921 -0.0466  0.3435 -0.2766
 6623SOL    HW122761   4.440   3.462   3.836 -2.1970  0.6312  0.1082
 6623SOL    HW222762   4.503   3.584   3.900  1.0965 -0.3683 -1.0310
 6624SOL     OW22763   7.939   3.468   0.417  0.2384 -0.2448 -0.2765
 6624SOL    HW122764   8.020   3.508   0.384  0.9589 -1.1904  0.2678
 6624SOL    HW222765   7.902   3.534   0.476 -1.6168  1.9212 -3.5443
 6625SOL     OW22766   0.241   1.584   8.350 -0.3492  0.1936  0.4323
 6625SOL    HW122767   0.331   1.562   8.328  0.0197 -0.9734  2.7828
 6625SOL    HW222768   0.227   1.671   8.311  1.9895  0.6667  0.5241
 6626SOL     OW22769   5.905   3.141   3.423 -0.3417  0.5326 -0.2153
 6626SOL    HW122770   5.831   3.180   3.376 -0.8800 -1.0989 -0.7916
 6626SOL    HW222771   5.959   3.102   3.355  0.8166  1.2624  0.2483
 6627SOL     OW22772   1.148   4.144   7.987 -0.0892 -0.1733 -0.5094
 6627SOL    HW122773   1.223   4.105   8.032  0.0782 -1.0554 -1.4878
 6627SOL    HW222774   1.165   4.238   7.988  1.7072 -0.4221 -1.7878
 6628SOL     OW22775   1.018   8.509   3.780  0.4007 -0.1092 -0.1974
 6628SOL    HW122776   1.053   8.435   3.730  1.4587  0.1101  0.1754
 6628SOL    HW222777   1.072   8.511   3.859  1.2304  1.7801 -0.7422
 6629SOL     OW22778   7.717   3.510   1.079  0.4040 -0.1693 -0.4977
 6629SOL    HW122779   7.686   3.578   1.018 -0.6756  2.1100  2.3117
 6629SOL    HW222780   7.642   3.452   1.089 -0.5161  1.1593  0.7800
 6630SOL     OW22781   2.745   7.710   5.268 -0.4380  0.1329  0.4309
 6630SOL    HW122782   2.745   7.692   5.362  1.0533  1.5046  0.7336
 6630SOL    HW222783   2.657   7.688   5.239 -1.1775  0.4664  2.3100
 6631SOL     OW22784   5.341   2.966   4.043 -0.5734 -0.2650  0.2900
 6631SOL    HW122785   5.396   3.012   4.107 -0.3475  1.9753 -1.3724
 6631SOL    HW222786   5.263   2.940   4.093 -0.5623  1.6781  1.4571
 6632SOL     OW22787   6.692   7.198   9.285  0.5185  0.0356 -0.1661
 6632SOL    HW122788   6.607   7.235   9.261  1.2148  0.5485 -2.0763
 6632SOL    HW222789   6.741   7.273   9.319 -0.3883 -0.6470  2.9619
 6633SOL     OW22790   5.917   4.909   6.290 -0.1503  0.4773  0.3328
 6633SOL    HW122791   5.863   4.971   6.340  0.9931  0.8383  1.1640
 6633SOL    HW222792   5.988   4.963   6.254 -0.1594 -0.0388 -0.4781
 6634SOL     OW22793   5.192   3.334   5.176  0.2343  0.1917  0.0964
 6634SOL    HW122794   5.117   3.340   5.117  0.0849 -3.2966 -0.2990
 6634SOL    HW222795   5.268   3.333   5.119  0.2651 -0.6271  0.1456
 6635SOL     OW22796   4.215   9.160   0.239 -0.8275  0.2471  0.2394
 6635SOL    HW122797   4.129   9.192   0.266 -0.7788  2.5817 -1.9382
 6635SOL    HW222798   4.221   9.184   0.146  1.9635 -0.2929  0.1995
 6636SOL     OW22799   0.765   1.357   2.903 -0.6725 -0.0693 -0.2279
 6636SOL    HW122800   0.792   1.271   2.871  1.0593  0.5965 -0.6490
 6636SOL    HW222801   0.826   1.377   2.974  0.5596  1.8461 -1.7528
 6637SOL     OW22802   0.683   1.876   1.391  0.4501  0.8186  0.0175
 6637SOL    HW122803   0.590   1.864   1.409  0.3405 -0.2325 -1.0765
 6637SOL    HW222804   0.713   1.939   1.457 -0.7916  0.3531  1.0724
 6638SOL     OW22805   0.686   3.247   2.490  0.6120  0.1807  0.0500
 6638SOL    HW122806   0.672   3.154   2.506 -0.7280  0.3175 -0.2303
 6638SOL    HW222807   0.774   3.252   2.452  0.7702 -0.9350  0.2438
 6639SOL     OW22808   0.823   1.413   2.037  0.1961 -0.1043 -0.0499
 6639SOL    HW122809   0.764   1.464   2.092  1.2695 -0.1059  1.1406
 6639SOL    HW222810   0.797   1.322   2.053 -0.1179 -0.0651 -0.3080
 6640SOL     OW22811   8.377   8.065   2.754  0.4095 -0.6236  0.3017
 6640SOL    HW122812   8.408   8.126   2.688  0.1122 -0.6312  0.1523
 6640SOL    HW222813   8.440   8.072   2.825  1.1849 -1.2275 -0.3174
 6641SOL     OW22814   7.002   1.559   8.221  0.4154  0.2525  0.3059
 6641SOL    HW122815   6.920   1.520   8.251 -0.1263  1.4156  0.3852
 6641SOL    HW222816   7.058   1.561   8.299  0.9126 -1.4342  0.0381
 6642SOL     OW22817   5.758   5.118   1.840  0.2329  0.0349 -0.1011
 6642SOL    HW122818   5.810   5.064   1.900  0.1370 -1.3228 -1.1955
 6642SOL    HW222819   5.822   5.167   1.790  0.3371  0.6016  0.5669
 6643SOL     OW22820   3.681   3.759   3.940  0.2446  0.6205 -0.0903
 6643SOL    HW122821   3.599   3.709   3.933  0.2231  0.8364 -1.8956
 6643SOL    HW222822   3.664   3.825   4.007 -1.0366  0.6122 -0.3886
 6644SOL     OW22823   1.494   0.466   8.974  0.2047 -0.0758  0.2262
 6644SOL    HW122824   1.447   0.546   8.996  0.4606  0.4331 -0.9910
 6644SOL    HW222825   1.425   0.402   8.957 -0.0106  0.1090  0.3944
 6645SOL     OW22826   3.526   1.072   1.472  0.5318 -0.7943 -0.3381
 6645SOL    HW122827   3.533   1.051   1.379  0.0781  0.2632 -0.6352
 6645SOL    HW222828   3.467   1.147   1.475  1.6497  0.1062  0.6636
 6646SOL     OW22829   3.220   6.210   7.233 -0.0392  0.1996  0.5969
 6646SOL    HW122830   3.250   6.123   7.207 -0.4054  0.5857 -1.1951
 6646SOL    HW222831   3.188   6.250   7.153  1.2201  2.4540  1.1219
 6647SOL     OW22832   7.605   7.350   8.025 -0.2206 -0.3579  0.3786
 6647SOL    HW122833   7.521   7.394   8.011 -0.1384 -0.4264 -0.3339
 6647SOL    HW222834   7.666   7.395   7.967  0.0849 -0.7620  0.3837
 6648SOL     OW22835   2.811   9.556   4.847 -0.2811 -0.2535 -0.3044
 6648SOL    HW122836   2.894   9.547   4.894 -0.1571  0.3966 -0.3941
 6648SOL    HW222837   2.828   9.517   4.761 -0.9187 -2.7718  0.6101
 6649SOL     OW22838   6.167   3.053   7.100  0.2271 -0.2517  0.3393
 6649SOL    HW122839   6.214   3.134   7.084  0.2858 -0.1375  1.0556
 6649SOL    HW222840   6.159   3.012   7.014  1.4745 -0.1905  0.1779
 6650SOL     OW22841   3.513   9.009   6.116 -0.1993 -0.4017  0.2766
 6650SOL    HW122842   3.529   8.936   6.175 -2.1849 -2.4058 -1.4774
 6650SOL    HW222843   3.563   8.988   6.037  0.1378  0.7798  0.1409
 6651SOL     OW22844   4.081   9.461   6.172 -0.0264 -0.2400 -0.7891
 6651SOL    HW122845   4.051   9.379   6.132 -1.4724  0.6359 -1.5725
 6651SOL    HW222846   4.112   9.435   6.259 -0.6187 -1.5909 -0.9569
 6652SOL     OW22847   7.340   3.478   2.506  0.5665 -0.0605  0.1143
 6652SOL    HW122848   7.338   3.386   2.535 -0.2568 -0.2265 -0.4156
 6652SOL    HW222849   7.271   3.483   2.440  1.0514  0.7912 -0.3360
 6653SOL     OW22850   8.073   6.231   4.063  0.7378 -0.1984  0.2817
 6653SOL    HW122851   8.123   6.216   3.983  2.7802  1.9715  1.0257
 6653SOL    HW222852   7.985   6.252   4.032  1.1598 -0.5981 -1.3081
 6654SOL     OW22853   1.398   5.242   8.666  0.1315  0.1999  0.1037
 6654SOL    HW122854   1.481   5.289   8.654  0.0105 -0.0003 -1.8707
 6654SOL    HW222855   1.359   5.281   8.744  1.1472  1.6992 -0.0962
 6655SOL     OW22856   6.869   2.265   4.949  0.3773  0.3946  0.6292
 6655SOL    HW122857   6.956   2.248   4.911 -0.6086 -1.3564 -1.0712
 6655SOL    HW222858   6.837   2.342   4.901 -0.5315 -1.3274 -1.7630
 6656SOL     OW22859   0.978   5.081   7.158  0.2115  0.6802  0.1995
 6656SOL    HW122860   0.972   5.164   7.206 -0.9492  0.1450  1.0265
 6656SOL    HW222861   0.925   5.096   7.080  2.0971  1.5508 -0.9896
 6657SOL     OW22862   6.210   0.518   6.563  0.4546  0.4040 -0.0497
 6657SOL    HW122863   6.210   0.428   6.531  2.5006  0.3960 -0.1913
 6657SOL    HW222864   6.301   0.534   6.589  0.5114  2.9038 -1.4435
 6658SOL     OW22865   5.854   7.598   6.537  0.2923 -0.0068  0.3817
 6658SOL    HW122866   5.906   7.643   6.604  0.7588  1.4771 -0.9166
 6658SOL    HW222867   5.915   7.539   6.494  0.5235  0.5612 -0.0829
 6659SOL     OW22868   7.687   1.885   3.039 -0.1452 -0.1102 -0.3933
 6659SOL    HW122869   7.755   1.935   2.994  1.7909 -1.8496  0.4111
 6659SOL    HW222870   7.672   1.933   3.120  1.0082 -0.3067 -0.0463
 6660SOL     OW22871   6.666   0.955   2.499  0.6676  0.1289  0.4729
 6660SOL    HW122872   6.759   0.979   2.506  0.3226  1.4082  0.8988
 6660SOL    HW222873   6.622   1.036   2.476 -0.3055 -0.5710 -0.1964
 6661SOL     OW22874   5.198   7.709   1.185  0.4099 -0.5197 -0.1394
 6661SOL    HW122875   5.133   7.646   1.215  0.8336 -1.2753 -0.7731
 6661SOL    HW222876   5.275   7.656   1.163  1.5207  0.4019  1.2814
 6662SOL     OW22877   7.463   7.593   9.196  0.5706 -0.5818  0.0630
 6662SOL    HW122878   7.485   7.621   9.107 -0.4134  1.1152  0.3205
 6662SOL    HW222879   7.509   7.654   9.252  0.0683 -0.7840  0.7014
 6663SOL     OW22880   4.261   6.131   2.178  0.5023  0.1044 -0.3843
 6663SOL    HW122881   4.251   6.181   2.259 -1.2152 -0.7395 -0.0396
 6663SOL    HW222882   4.356   6.121   2.168  0.8973  2.7644 -0.0952
 6664SOL     OW22883   0.300   4.947   5.513 -0.6476  0.1286 -0.4928
 6664SOL    HW122884   0.245   4.922   5.439  0.7733  0.2291 -1.6249
 6664SOL    HW222885   0.295   5.043   5.514 -1.3157  0.0893  0.0600
 6665SOL     OW22886   2.172   4.456   0.271  0.0026 -0.0201  0.2744
 6665SOL    HW122887   2.234   4.399   0.226  0.0829 -0.0143  0.3774
 6665SOL    HW222888   2.215   4.478   0.354 -0.0867  0.0791  0.2945
 6666SOL     OW22889   3.827   2.533   5.331 -0.2626  0.0980 -0.3751
 6666SOL    HW122890   3.753   2.547   5.272  0.2487 -0.0793 -1.0679
 6666SOL    HW222891   3.815   2.443   5.363  0.0892 -0.2245 -1.1213
 6667SOL     OW22892   9.098   1.271   1.389 -0.2857  0.5365 -0.0780
 6667SOL    HW122893   9.186   1.306   1.385 -0.0396 -0.1623 -1.1821
 6667SOL    HW222894   9.108   1.183   1.426 -0.5346  0.4894 -0.1145
 6668SOL     OW22895   3.938   3.885   8.863  0.0052  0.1848 -0.1209
 6668SOL    HW122896   3.976   3.877   8.950  3.2557  1.1327 -1.2934
 6668SOL    HW222897   3.964   3.805   8.818  1.6766  1.3039 -1.2663
 6669SOL     OW22898   1.972   6.623   5.153 -0.4073 -0.3481  0.0383
 6669SOL    HW122899   1.877   6.625   5.141 -0.3528 -0.9120 -0.5339
 6669SOL    HW222900   1.988   6.679   5.228 -1.2962 -1.0118  0.7434
 6670SOL     OW22901   4.627   5.498   9.065 -0.3195 -0.2448  0.2926
 6670SOL    HW122902   4.565   5.571   9.063 -0.5261 -0.3898  0.9894
 6670SOL    HW222903   4.587   5.431   9.010 -0.5953 -0.1969  0.4350
 6671SOL     OW22904   8.455   1.903   2.366 -0.3302  0.3458 -0.1612
 6671SOL    HW122905   8.481   1.943   2.283  0.6391 -0.2795 -0.1833
 6671SOL    HW222906   8.523   1.930   2.428  0.6597 -1.5985 -0.2892
 6672SOL     OW22907   8.010   2.574   5.561 -0.5219 -0.3061 -0.0388
 6672SOL    HW122908   7.937   2.629   5.535 -0.3616 -0.7229 -1.4730
 6672SOL    HW222909   8.067   2.631   5.613 -1.4336  0.2515  0.3517
 6673SOL     OW22910   9.194   2.424   9.557  0.6637 -0.5099 -0.7034
 6673SOL    HW122911   9.144   2.449   9.479  0.1284 -1.6103 -0.7318
 6673SOL    HW222912   9.163   2.484   9.625  1.3540  0.6588 -1.3808
 6674SOL     OW22913   6.574   8.214   5.411  0.4150  0.0502 -0.4469
 6674SOL    HW122914   6.622   8.161   5.348  1.1115 -0.9083  0.8445
 6674SOL    HW222915   6.572   8.161   5.491 -1.8223  0.5458 -0.1083
 6675SOL     OW22916   6.634   8.790   1.167  0.2906  0.3065 -0.6475
 6675SOL    HW122917   6.629   8.864   1.107 -0.8723 -0.3696 -1.4381
 6675SOL    HW222918   6.555   8.797   1.221  1.4347  1.0301  1.0003
 6676SOL     OW22919   6.780   5.206   8.881  0.0646  0.5957  0.2755
 6676SOL    HW122920   6.783   5.136   8.816 -3.3873  1.7832 -1.4316
 6676SOL    HW222921   6.814   5.283   8.835 -1.6836  1.2684  0.0048
 6677SOL     OW22922   5.024   7.533   4.468 -0.3319 -0.2137  0.3115
 6677SOL    HW122923   5.027   7.480   4.389  0.6326 -0.9991  0.8546
 6677SOL    HW222924   4.985   7.616   4.440  0.4464 -0.2982 -1.0967
 6678SOL     OW22925   8.523   5.492   4.902 -0.2203 -0.2391 -0.3742
 6678SOL    HW122926   8.560   5.412   4.941  0.6792  1.1970  1.8992
 6678SOL    HW222927   8.595   5.554   4.901 -1.1730  0.9022 -1.0933
 6679SOL     OW22928   1.328   2.188   0.826  0.5170  0.0633 -0.3040
 6679SOL    HW122929   1.290   2.101   0.835  0.1304  0.0943 -1.5146
 6679SOL    HW222930   1.315   2.211   0.734  0.9807  1.2319 -0.0967
 6680SOL     OW22931   8.614   6.522   3.972  0.1725  0.4574 -0.0973
 6680SOL    HW122932   8.640   6.437   4.005 -0.1946  0.1315 -0.6233
 6680SOL    HW222933   8.696   6.571   3.961  0.2780  0.7476  1.7046
 6681SOL     OW22934   4.286   0.267   2.983  0.1288 -0.0626 -0.2776
 6681SOL    HW122935   4.225   0.200   3.017 -1.2615  2.2742  2.2279
 6681SOL    HW222936   4.229   0.332   2.942  0.7360  2.2225  2.1904
 6682SOL     OW22937   0.856   4.268   6.830  0.1604 -0.3018  0.2452
 6682SOL    HW122938   0.857   4.196   6.894 -0.7870 -0.6527 -0.1152
 6682SOL    HW222939   0.943   4.266   6.790 -0.4052 -2.5084 -1.0852
 6683SOL     OW22940   8.781   0.057   4.246  0.7600 -0.3466  0.0243
 6683SOL    HW122941   8.828   0.113   4.184 -0.7008  4.1416  2.5128
 6683SOL    HW222942   8.840   0.048   4.320 -0.6178  2.1229  1.5735
 6684SOL     OW22943   7.111   0.741   8.853 -0.0962 -0.0009 -0.2965
 6684SOL    HW122944   7.130   0.833   8.869 -0.7546  0.2605 -0.9399
 6684SOL    HW222945   7.196   0.699   8.848  0.2652  0.8151 -1.3172
 6685SOL     OW22946   8.513   6.563   7.892 -0.1453 -0.2052  0.0961
 6685SOL    HW122947   8.567   6.485   7.909 -2.0017 -1.2254  1.7622
 6685SOL    HW222948   8.541   6.626   7.958 -1.3701 -0.9895  1.4299
 6686SOL     OW22949   0.322   1.772   3.980 -0.0976  0.4406 -0.2755
 6686SOL    HW122950   0.270   1.727   4.047 -0.1924 -0.8132 -1.1550
 6686SOL    HW222951   0.258   1.802   3.916  0.1817 -0.6275 -1.0834
 6687SOL     OW22952   5.545   7.200   0.888  0.0438 -0.1770  0.2431
 6687SOL    HW122953   5.589   7.284   0.876 -0.8115  0.3684  0.7772
 6687SOL    HW222954   5.455   7.216   0.858 -0.0863 -0.9522  0.1983
 6688SOL     OW22955   8.399   1.636   2.162 -0.0155  0.9016  0.2614
 6688SOL    HW122956   8.435   1.672   2.082  1.1171  0.2774  0.4698
 6688SOL    HW222957   8.475   1.604   2.211 -0.8608 -0.7878  0.5492
 6689SOL     OW22958   1.706   7.374   3.600  0.0306 -0.3525 -0.4439
 6689SOL    HW122959   1.750   7.392   3.683 -1.0103  0.9012 -0.1286
 6689SOL    HW222960   1.613   7.371   3.623 -0.1749 -1.4566 -1.3344
 6690SOL     OW22961   3.071   7.982   4.354  0.0953 -0.2812  0.3609
 6690SOL    HW122962   2.986   8.017   4.327  0.0037 -0.6818  0.1325
 6690SOL    HW222963   3.053   7.931   4.432 -0.0640 -1.3288 -0.3452
 6691SOL     OW22964   9.510   2.031   7.418  0.1984  0.4801 -0.2321
 6691SOL    HW122965   9.582   1.977   7.384  0.1797 -1.1888  2.0678
 6691SOL    HW222966   9.538   2.054   7.507 -1.8990  0.1318  0.5768
 6692SOL     OW22967   7.200   0.563   2.609 -0.5241 -0.1568 -0.4225
 6692SOL    HW122968   7.190   0.487   2.667  0.7292  1.0059  1.3942
 6692SOL    HW222969   7.242   0.528   2.531  2.2558 -1.0387  1.3210
 6693SOL     OW22970   6.306   3.587   4.674  0.0249 -0.5665  0.3027
 6693SOL    HW122971   6.230   3.552   4.721  1.0028 -1.7171  1.0668
 6693SOL    HW222972   6.368   3.611   4.742  0.8314 -0.7482 -0.3466
 6694SOL     OW22973   3.811   7.931   6.154 -0.1170 -0.0753  0.5799
 6694SOL    HW122974   3.880   7.992   6.181  0.3179 -0.7161  0.9558
 6694SOL    HW222975   3.856   7.870   6.096  0.5981 -2.6983  3.6062
 6695SOL     OW22976   6.914   8.310   4.729 -0.3283  0.0902 -0.1170
 6695SOL    HW122977   6.962   8.284   4.651  0.0106 -0.0005  0.1180
 6695SOL    HW222978   6.938   8.245   4.795  1.4039  1.5651  0.8095
 6696SOL     OW22979   3.627   9.558   8.532 -0.3278 -0.2995  0.2519
 6696SOL    HW122980   3.604   9.651   8.526  0.3819 -0.1881 -1.2180
 6696SOL    HW222981   3.548   9.512   8.504 -0.4227 -0.1094  0.2038
 6697SOL     OW22982   8.978   0.892   9.576  0.3762 -0.5438  0.2074
 6697SOL    HW122983   9.034   0.816   9.558 -1.0189 -1.9143  1.3902
 6697SOL    HW222984   8.894   0.869   9.536 -0.1829  0.1988  0.9337
 6698SOL     OW22985   3.076   1.245   6.051 -0.0589 -0.5789  0.2352
 6698SOL    HW122986   3.165   1.258   6.084 -0.3621  0.5171  0.6768
 6698SOL    HW222987   3.046   1.333   6.030  0.0855 -1.1877 -3.0083
 6699SOL     OW22988   9.377   0.432   0.978  0.4013  0.9616  0.6127
 6699SOL    HW122989   9.415   0.352   1.015 -1.1955  0.0742  0.4473
 6699SOL    HW222990   9.425   0.503   1.021  2.1041 -0.0553  0.5107
 6700SOL     OW22991   0.146   4.564   0.229 -0.0216 -0.2920 -0.0226
 6700SOL    HW122992   0.054   4.553   0.205 -0.1330  0.0164  0.2502
 6700SOL    HW222993   0.189   4.484   0.199 -0.5982 -0.9636  0.9120
 6701SOL     OW22994   3.073   0.637   3.757  0.4676 -0.1149  0.4213
 6701SOL    HW122995   3.083   0.699   3.829  0.9405 -0.2314  0.4589
 6701SOL    HW222996   2.980   0.642   3.734  0.4622  0.4700  0.5444
 6702SOL     OW22997   4.364   7.532   2.281 -0.5026  0.5598 -0.3469
 6702SOL    HW122998   4.295   7.485   2.328 -1.1705  0.3373 -1.5232
 6702SOL    HW222999   4.380   7.610   2.335 -2.2569  1.0452 -0.4501
 6703SOL     OW23000   7.103   8.944   6.288  0.2019  0.3891  0.5793
 6703SOL    HW123001   7.107   8.937   6.193  0.7809  0.7361  0.5730
 6703SOL    HW223002   7.033   8.884   6.314 -0.2254  0.5876 -0.0968
 6704SOL     OW23003   7.173   6.833   7.765  0.1604  0.2013 -0.2404
 6704SOL    HW123004   7.130   6.900   7.817 -2.6169 -0.6293 -1.2832
 6704SOL    HW223005   7.209   6.771   7.829  0.4409  1.2867  0.6788
 6705SOL     OW23006   0.653   1.223   4.856 -0.2197  0.0078 -0.6211
 6705SOL    HW123007   0.736   1.204   4.899 -1.8642 -2.0774  1.9083
 6705SOL    HW223008   0.648   1.158   4.786  0.4905  0.5321 -1.1816
 6706SOL     OW23009   6.605   6.210   2.616  0.2943 -0.2553 -0.9636
 6706SOL    HW123010   6.677   6.270   2.596  0.0200  0.2437 -0.4828
 6706SOL    HW223011   6.539   6.229   2.549 -0.1129  0.5425 -0.3565
 6707SOL     OW23012   8.085   5.307   5.709  0.9244 -0.4590 -0.0581
 6707SOL    HW123013   8.146   5.290   5.638 -2.2302 -1.6115 -2.7212
 6707SOL    HW223014   8.053   5.396   5.692  2.0802  0.3179  1.5833
 6708SOL     OW23015   7.373   0.646   4.638 -0.3428  0.3388 -0.2752
 6708SOL    HW123016   7.456   0.641   4.684 -0.4503  0.8273 -0.0264
 6708SOL    HW223017   7.395   0.631   4.546  0.1783  1.5768 -0.3693
 6709SOL     OW23018   2.296   5.080   4.509  0.0133  0.2231  0.2037
 6709SOL    HW123019   2.283   5.157   4.453  0.7794  0.4781  0.3580
 6709SOL    HW223020   2.390   5.062   4.503 -0.2238 -0.9756 -0.1720
 6710SOL     OW23021   1.987   8.996   0.011 -0.4698 -0.0707  0.5596
 6710SOL    HW123022   2.023   9.064  -0.047 -0.6794 -0.0650  0.4318
 6710SOL    HW223023   2.051   8.987   0.081  0.6566 -1.3232 -0.5736
 6711SOL     OW23024   4.596   1.983   0.275  0.7825 -0.3078  0.0904
 6711SOL    HW123025   4.566   1.979   0.365 -1.0611 -2.4582 -0.5404
 6711SOL    HW223026   4.524   2.025   0.227  1.4518  0.1787 -0.5253
 6712SOL     OW23027   2.769   6.872   4.990 -0.3077  0.2917 -0.5153
 6712SOL    HW123028   2.720   6.948   5.022 -0.9028 -0.8926  1.6511
 6712SOL    HW223029   2.709   6.829   4.929 -1.7108 -0.6547  1.4330
 6713SOL     OW23030   0.420   1.151   7.034  0.2171  0.0611  0.0734
 6713SOL    HW123031   0.342   1.098   7.044 -0.2969  0.7517 -0.1631
 6713SOL    HW223032   0.455   1.127   6.948  0.2966 -0.2911  0.2058
 6714SOL     OW23033   0.002   1.849   3.183  0.2556  0.2988  0.1683
 6714SOL    HW123034  -0.022   1.939   3.202  2.0958  0.8621 -0.0204
 6714SOL    HW223035   0.010   1.846   3.087  0.5310  0.0302  0.1965
 6715SOL     OW23036   1.950   5.777   0.872  0.8647 -0.5246 -0.3962
 6715SOL    HW123037   2.003   5.706   0.835 -0.6184 -2.2234  0.5582
 6715SOL    HW223038   1.878   5.732   0.917  0.8695  1.5087  1.8568
 6716SOL     OW23039   6.798   9.164   9.082  0.6141 -0.2833 -0.2648
 6716SOL    HW123040   6.777   9.232   9.017 -0.6008  0.4975  0.9065
 6716SOL    HW223041   6.794   9.209   9.166 -1.0209 -1.9580  0.6167
 6717SOL     OW23042   0.371   4.427   1.386  0.5043  0.5191 -0.3207
 6717SOL    HW123043   0.328   4.427   1.472 -0.4701  1.9917 -0.7627
 6717SOL    HW223044   0.319   4.488   1.334 -1.0868 -2.8543 -3.0837
 6718SOL     OW23045   9.296   5.681   5.924 -0.2688 -0.0633 -0.0618
 6718SOL    HW123046   9.287   5.753   5.985  1.4777 -0.3791  0.6354
 6718SOL    HW223047   9.286   5.721   5.838  0.8771  1.0771  0.2983
 6719SOL     OW23048   7.287   6.432   1.990 -0.1504  0.0257 -0.0327
 6719SOL    HW123049   7.303   6.524   1.971  0.1372  0.0488  0.3046
 6719SOL    HW223050   7.196   6.417   1.966  0.4974 -0.2418 -2.6173
 6720SOL     OW23051   2.238   1.680   9.286  0.3401 -0.2005  0.1598
 6720SOL    HW123052   2.167   1.617   9.300  0.9960 -0.9043  0.3462
 6720SOL    HW223053   2.297   1.667   9.360  0.7744  0.2383 -0.1060
 6721SOL     OW23054   3.588   4.663   8.505  0.0006 -0.0656  0.3435
 6721SOL    HW123055   3.643   4.587   8.487 -0.3485 -0.2494  0.0554
 6721SOL    HW223056   3.642   4.718   8.562  1.2122  0.6294 -1.3873
 6722SOL     OW23057   0.704   3.849   2.286  0.3805  0.0449  0.4406
 6722SOL    HW123058   0.712   3.756   2.266 -2.2573 -0.4379  1.2624
 6722SOL    HW223059   0.785   3.888   2.253  0.8606 -2.2774 -1.3432
 6723SOL     OW23060   4.008   4.526   1.932  0.2827 -0.0274  0.1213
 6723SOL    HW123061   4.097   4.491   1.942  1.0768  2.1582  1.2980
 6723SOL    HW223062   4.001   4.594   1.999 -2.7922 -1.0091  0.9721
 6724SOL     OW23063   4.389   1.949   8.623  0.1553  0.2885 -0.2809
 6724SOL    HW123064   4.443   2.027   8.632 -0.4661  0.7602 -0.5368
 6724SOL    HW223065   4.342   1.943   8.706 -1.2490  1.3216 -0.9512
 6725SOL     OW23066   9.614   8.044   6.972  0.0863  0.4870  0.1068
 6725SOL    HW123067   9.561   8.022   6.895 -1.5838  0.9517  1.0571
 6725SOL    HW223068   9.681   8.103   6.939  0.0351 -0.1357 -1.1673
 6726SOL     OW23069   2.922   3.901   2.532 -0.0543 -0.1301  0.1084
 6726SOL    HW123070   2.880   3.854   2.604  0.7197  0.1366  0.7412
 6726SOL    HW223071   3.000   3.941   2.571 -1.1802  2.5250 -0.1433
 6727SOL     OW23072   7.950   8.740   6.728 -0.1958  0.1948 -0.3252
 6727SOL    HW123073   7.981   8.773   6.644 -1.9847  0.6983 -0.8301
 6727SOL    HW223074   7.998   8.792   6.793 -0.0215  0.9812 -1.0592
 6728SOL     OW23075   2.536   2.814   3.953 -0.3680 -0.1734 -0.5071
 6728SOL    HW123076   2.616   2.867   3.957 -0.7344  0.4746 -1.3493
 6728SOL    HW223077   2.503   2.814   4.042  0.3089 -0.0149 -0.2523
 6729SOL     OW23078   7.110   8.656   1.578  0.2186  0.0254 -0.6806
 6729SOL    HW123079   7.051   8.698   1.516 -0.4506  1.1742  0.6818
 6729SOL    HW223080   7.181   8.621   1.523 -0.7575  0.2528 -2.1543
 6730SOL     OW23081   0.876   1.567   6.439  0.4595 -0.1193 -0.3757
 6730SOL    HW123082   0.943   1.605   6.382  0.6295  0.1769  0.0210
 6730SOL    HW223083   0.883   1.615   6.521  2.1627 -2.4052  0.9458
 6731SOL     OW23084   7.752   8.603   4.949  0.3853  0.0329 -0.0910
 6731SOL    HW123085   7.724   8.580   4.861  1.3464  2.0482 -0.9795
 6731SOL    HW223086   7.826   8.545   4.966  1.4436  0.9180 -1.4391
 6732SOL     OW23087   7.957   1.199   4.320  0.6017 -0.4459 -0.1500
 6732SOL    HW123088   8.048   1.220   4.339  0.7205 -0.7692 -0.3487
 6732SOL    HW223089   7.962   1.125   4.260  0.1870 -1.7594  1.3582
 6733SOL     OW23090   4.522   4.591   6.621 -0.0376  0.4595  0.0490
 6733SOL    HW123091   4.476   4.526   6.568 -2.5438  0.2852  2.2079
 6733SOL    HW223092   4.613   4.561   6.621 -0.3273 -0.6512 -2.3774
 6734SOL     OW23093   3.683   6.043   1.002 -0.8704 -0.3014  0.5273
 6734SOL    HW123094   3.623   6.118   0.996  1.7437  1.8892 -0.3056
 6734SOL    HW223095   3.631   5.969   0.973 -2.8850  1.6350 -1.2172
 6735SOL     OW23096   5.432   8.212   3.921 -0.1619  0.1308  0.1194
 6735SOL    HW123097   5.345   8.226   3.885 -0.1647  0.5989  0.3021
 6735SOL    HW223098   5.418   8.195   4.014 -0.0322  0.5511  0.2163
 6736SOL     OW23099   6.939   6.513   3.420 -0.2572  0.0964 -0.4923
 6736SOL    HW123100   6.983   6.430   3.400 -2.3147 -1.1809 -0.0285
 6736SOL    HW223101   6.944   6.520   3.515  1.8059  1.6637 -0.6670
 6737SOL     OW23102   4.530   4.909   6.129 -0.2058  0.0233  0.2312
 6737SOL    HW123103   4.512   4.841   6.064  0.1243 -0.6165  0.7994
 6737SOL    HW223104   4.504   4.870   6.213 -0.2698  0.6967  0.5354
 6738SOL     OW23105   4.617   0.849   1.118 -0.0378 -0.1241 -0.1047
 6738SOL    HW123106   4.617   0.771   1.063 -0.9201 -2.3173  2.7581
 6738SOL    HW223107   4.530   0.887   1.105  0.7283  1.0557 -2.2470
 6739SOL     OW23108   6.791   8.602   0.554  0.0065  0.0629 -0.6841
 6739SOL    HW123109   6.850   8.627   0.483  1.0507  1.7581  0.6873
 6739SOL    HW223110   6.788   8.680   0.611 -0.7545 -1.2127  1.1173
 6740SOL     OW23111   6.480   0.263   4.902 -0.0150 -0.4266 -0.1474
 6740SOL    HW123112   6.409   0.326   4.915 -0.5209 -0.7967 -1.0521
 6740SOL    HW223113   6.560   0.316   4.910 -0.4384  0.5503 -1.7819
 6741SOL     OW23114   5.247   5.181   3.400  0.0506  0.5094  0.1196
 6741SOL    HW123115   5.260   5.090   3.375  1.3244  0.4401  0.9623
 6741SOL    HW223116   5.152   5.191   3.406 -0.2546 -0.0217 -2.5829
 6742SOL     OW23117   0.826   8.096   1.039  0.4075  0.3309  0.3345
 6742SOL    HW123118   0.743   8.131   1.071 -1.3588 -2.4940 -0.8226
 6742SOL    HW223119   0.877   8.081   1.118 -0.9387  0.3203  1.2409
 6743SOL     OW23120   9.625   4.843   2.514 -0.3365  0.2512  0.4011
 6743SOL    HW123121   9.698   4.905   2.514  0.8297 -1.0593 -0.8758
 6743SOL    HW223122   9.576   4.865   2.435 -0.6286  0.3162  0.5971
 6744SOL     OW23123   5.918   0.624   5.370  0.4926 -0.1829 -0.0239
 6744SOL    HW123124   5.975   0.652   5.441  2.1516  1.1069 -1.7625
 6744SOL    HW223125   5.938   0.531   5.359  1.1471 -0.0969  0.3766
 6745SOL     OW23126   1.690   1.083   3.861  0.0479 -0.7075 -0.8589
 6745SOL    HW123127   1.642   1.029   3.923  0.3856 -0.3651 -0.2898
 6745SOL    HW223128   1.641   1.077   3.779 -0.6340 -0.8222 -0.4406
 6746SOL     OW23129   3.942   4.346   0.557  0.2500  0.2528 -1.1107
 6746SOL    HW123130   4.031   4.323   0.582  0.1804 -1.5081 -2.3017
 6746SOL    HW223131   3.916   4.412   0.620  1.2680 -1.4767  1.2844
 6747SOL     OW23132   6.537   2.418   8.573 -0.3706  0.3342  0.0348
 6747SOL    HW123133   6.572   2.348   8.518  3.4141  2.4040 -0.5598
 6747SOL    HW223134   6.446   2.429   8.544 -0.5382 -2.9713 -1.1013
 6748SOL     OW23135   3.365   5.744   3.304  0.6404 -0.2500 -0.2476
 6748SOL    HW123136   3.383   5.838   3.301 -2.5145  0.5235  0.8641
 6748SOL    HW223137   3.389   5.718   3.393 -1.0777  0.2136  0.3939
 6749SOL     OW23138   0.822   4.841   6.128 -0.0965 -0.3095 -0.1063
 6749SOL    HW123139   0.806   4.886   6.211 -0.7538 -1.4567  0.4203
 6749SOL    HW223140   0.764   4.884   6.065  1.6754  1.7619 -0.4550
 6750SOL     OW23141   0.266   9.117   3.673 -0.3953 -0.1650 -0.1875
 6750SOL    HW123142   0.233   9.040   3.720 -0.0907 -0.4303 -0.4028
 6750SOL    HW223143   0.244   9.191   3.730 -2.5101 -0.1760 -0.8961
 6751SOL     OW23144   4.211   4.419   3.211 -0.2059  0.3366 -0.0674
 6751SOL    HW123145   4.299   4.428   3.175 -0.5403 -0.4374 -1.1207
 6751SOL    HW223146   4.153   4.429   3.136 -1.0640  1.4218  0.7096
 6752SOL     OW23147   4.699   8.818   8.434 -0.0916  0.2219  0.1026
 6752SOL    HW123148   4.713   8.757   8.362 -0.7649  2.7084 -2.2926
 6752SOL    HW223149   4.628   8.779   8.485  2.0866 -2.8803  1.1061
 6753SOL     OW23150   9.439   8.657   8.817 -0.9800  0.3256  0.6247
 6753SOL    HW123151   9.377   8.589   8.841  0.3716 -1.8519 -1.5583
 6753SOL    HW223152   9.520   8.633   8.863 -0.1684 -0.2984 -1.0440
 6754SOL     OW23153   1.521   6.816   4.349  0.2482  0.3870  0.7343
 6754SOL    HW123154   1.541   6.765   4.270 -0.4484  0.5709  0.4350
 6754SOL    HW223155   1.576   6.776   4.417  1.3467  0.6423  0.0253
 6755SOL     OW23156   6.661   5.420   7.278  0.3865 -0.1436  0.1198
 6755SOL    HW123157   6.592   5.481   7.252  0.2423 -0.7122 -0.8934
 6755SOL    HW223158   6.678   5.440   7.370  0.6080  1.6650 -0.2872
 6756SOL     OW23159   7.530   1.049   4.064 -0.3349  0.3887 -0.3755
 6756SOL    HW123160   7.616   1.011   4.081 -1.3362 -2.6137 -1.3475
 6756SOL    HW223161   7.497   1.001   3.988 -3.8584 -0.4679  1.4455
 6757SOL     OW23162   9.527   8.326   6.676  0.5758  0.1583 -0.1303
 6757SOL    HW123163   9.620   8.300   6.674  0.6347  0.4019 -0.5727
 6757SOL    HW223164   9.520   8.395   6.610  0.4421  1.3850  1.1269
 6758SOL     OW23165   1.182   6.894   5.628 -0.3575  0.1113  0.7765
 6758SOL    HW123166   1.165   6.975   5.676  0.3533  0.6945  0.0739
 6758SOL    HW223167   1.100   6.844   5.635 -1.1443  1.3043  0.4306
 6759SOL     OW23168   8.825   1.275   6.047 -0.1342 -0.3584 -0.4500
 6759SOL    HW123169   8.830   1.362   6.088 -0.9597 -0.9677  0.9875
 6759SOL    HW223170   8.829   1.213   6.120 -0.2432 -1.5271 -1.4088
 6760SOL     OW23171   5.501   7.910   8.888  0.2220 -0.5280  0.1770
 6760SOL    HW123172   5.498   7.972   8.815 -0.0988 -0.0025  0.6235
 6760SOL    HW223173   5.410   7.898   8.914  0.1974 -1.8640 -0.4408
 6761SOL     OW23174   6.448   7.303   9.215 -1.2342  0.4281  0.0584
 6761SOL    HW123175   6.445   7.288   9.120  0.8922  0.7326 -0.1030
 6761SOL    HW223176   6.437   7.398   9.224  1.9358  0.9453 -0.2313
 6762SOL     OW23177   0.252   7.206   1.955  0.1560 -0.0481  0.1028
 6762SOL    HW123178   0.163   7.183   1.931  0.1452  2.1788 -2.3223
 6762SOL    HW223179   0.249   7.300   1.973  2.2131  0.3550 -1.3281
 6763SOL     OW23180   4.794   3.239   5.905 -0.1572 -0.2779  0.2262
 6763SOL    HW123181   4.752   3.185   5.838 -0.4735  0.0299  0.1737
 6763SOL    HW223182   4.729   3.307   5.925  0.0622 -0.1810  0.6127
 6764SOL     OW23183   6.487   4.868   1.310  0.0888  0.6069 -0.1406
 6764SOL    HW123184   6.446   4.850   1.394  0.3411  2.3740  0.4086
 6764SOL    HW223185   6.437   4.817   1.247  0.1458 -1.0610  1.1111
 6765SOL     OW23186   3.550   8.683   8.209  0.0847  0.0196  0.3447
 6765SOL    HW123187   3.645   8.682   8.198  0.3131  2.0776  1.6453
 6765SOL    HW223188   3.537   8.696   8.303 -1.4739  0.8830  0.0375
 6766SOL     OW23189   3.878   6.282   1.454 -0.6029  0.1250 -0.0067
 6766SOL    HW123190   3.840   6.309   1.370 -1.6386  1.1916  0.7586
 6766SOL    HW223191   3.958   6.333   1.461  0.7640 -1.7127 -1.3762
 6767SOL     OW23192   0.199   0.973   2.820  0.0715  0.1878 -0.0414
 6767SOL    HW123193   0.172   1.056   2.780 -0.6134 -0.0702 -0.1241
 6767SOL    HW223194   0.272   0.997   2.878 -1.9770  1.3789  2.2294
 6768SOL     OW23195   8.751   3.043   7.320 -0.6847  0.6116  0.2754
 6768SOL    HW123196   8.713   3.126   7.291 -0.1700  1.7170  2.5078
 6768SOL    HW223197   8.835   3.068   7.358 -0.4093 -0.9846  0.7767
 6769SOL     OW23198   7.334   8.630   0.628  0.5434 -0.2248  0.4296
 6769SOL    HW123199   7.329   8.558   0.691  1.7790  0.9310  1.9126
 6769SOL    HW223200   7.428   8.637   0.607  0.1165 -1.0766 -2.2064
 6770SOL     OW23201   5.352   0.989   1.939 -0.0104 -0.7956 -0.0670
 6770SOL    HW123202   5.392   1.033   2.014  0.1021 -0.3570 -0.3803
 6770SOL    HW223203   5.317   1.061   1.885  1.4181 -0.9614 -1.3120
 6771SOL     OW23204   6.223   1.654   7.444  0.4409 -0.3709  0.2859
 6771SOL    HW123205   6.289   1.619   7.383 -0.1046 -0.4878 -0.2488
 6771SOL    HW223206   6.269   1.660   7.528  1.8447  1.6907 -0.5376
 6772SOL     OW23207   8.994   3.721   8.879  0.6077  0.3231  0.6430
 6772SOL    HW123208   8.920   3.763   8.923 -0.5604  0.9076 -1.6860
 6772SOL    HW223209   9.060   3.791   8.871  0.3882  0.5168  0.5136
 6773SOL     OW23210   7.968   3.106   0.054  0.0985 -0.4345  0.0768
 6773SOL    HW123211   7.941   3.047   0.125  1.2613  0.9365  1.7133
 6773SOL    HW223212   7.890   3.159   0.036 -0.1952 -0.7751  0.3322
 6774SOL     OW23213   9.170   5.922   5.680 -0.0876  0.6420 -0.7113
 6774SOL    HW123214   9.142   5.962   5.597 -0.8106  0.6191 -0.4873
 6774SOL    HW223215   9.114   5.962   5.746  1.7255  2.0716  0.0557
 6775SOL     OW23216   3.958   1.517   1.106 -0.2744  0.1864  0.3007
 6775SOL    HW123217   3.878   1.494   1.154 -0.8036  0.1441 -0.5866
 6775SOL    HW223218   3.966   1.612   1.116 -1.2896  0.4195 -0.8714
 6776SOL     OW23219   2.438   6.054   2.046 -0.5073  0.2471  0.3053
 6776SOL    HW123220   2.530   6.064   2.070 -0.3226 -1.7138  0.5409
 6776SOL    HW223221   2.439   6.000   1.968 -1.4934 -4.3938  3.0969
 6777SOL     OW23222   7.249   5.296   9.367  0.2222  0.2661 -0.1120
 6777SOL    HW123223   7.186   5.288   9.439  1.2118  0.8575  0.8397
 6777SOL    HW223224   7.314   5.358   9.399  3.0762 -2.6459  0.2521
 6778SOL     OW23225   1.832   7.709   0.857 -0.4760  0.4785  0.0519
 6778SOL    HW123226   1.853   7.714   0.950 -1.3783 -1.2212  0.3796
 6778SOL    HW223227   1.915   7.690   0.814 -0.0608  1.2505  0.5018
 6779SOL     OW23228   0.595   4.233   1.346 -0.4707 -0.4568 -0.2918
 6779SOL    HW123229   0.584   4.152   1.396 -0.7597  0.1933  0.7506
 6779SOL    HW223230   0.507   4.271   1.344 -0.6792 -0.9661 -2.2300
 6780SOL     OW23231   7.662   1.666   6.048  0.5026 -0.0803  0.6196
 6780SOL    HW123232   7.597   1.668   6.118  1.7012 -1.9178  1.8662
 6780SOL    HW223233   7.669   1.758   6.020 -2.3211  0.2290  0.6327
 6781SOL     OW23234   8.285   2.055   3.599  0.9360 -0.5731  0.2170
 6781SOL    HW123235   8.370   2.076   3.561  0.6630 -0.1580 -0.1732
 6781SOL    HW223236   8.249   2.140   3.625  0.0172 -0.5868 -0.9510
 6782SOL     OW23237   0.524   9.618   6.569  0.2126 -0.4322  0.0472
 6782SOL    HW123238   0.454   9.555   6.585 -0.4257  0.5379  1.2958
 6782SOL    HW223239   0.527   9.627   6.473 -0.9344 -0.9818 -0.0591
 6783SOL     OW23240   4.073   2.634   8.322 -0.2516  0.5155 -0.2092
 6783SOL    HW123241   4.126   2.713   8.311 -0.8601  0.9342 -0.2082
 6783SOL    HW223242   4.133   2.570   8.360  0.3951  0.8059 -0.7264
 6784SOL     OW23243   6.401   2.560   9.344  0.1035  0.2035  0.2642
 6784SOL    HW123244   6.437   2.617   9.411  0.2110 -0.7306  1.0188
 6784SOL    HW223245   6.312   2.592   9.329  0.7038  1.5835 -0.5221
 6785SOL     OW23246   3.108   2.985   1.999  0.1670 -0.1103  0.4515
 6785SOL    HW123247   3.047   2.913   2.010 -1.5760  1.0045 -1.3156
 6785SOL    HW223248   3.064   3.060   2.038  0.2859  0.7388 -0.9733
 6786SOL     OW23249   7.216   9.264   8.149  0.4046  0.7453  0.4789
 6786SOL    HW123250   7.207   9.346   8.197 -1.7025  0.1036  1.3295
 6786SOL    HW223251   7.265   9.207   8.208  0.6911  0.9739  0.4625
 6787SOL     OW23252   7.728   6.842   8.924  0.8308  0.1496 -0.4711
 6787SOL    HW123253   7.672   6.783   8.873 -0.3951 -0.5641  1.6006
 6787SOL    HW223254   7.685   6.928   8.917  0.1949 -0.1191  0.0059
 6788SOL     OW23255   2.894   2.673   1.777  0.3085 -0.6833  0.2667
 6788SOL    HW123256   2.920   2.676   1.685 -0.9242  0.1879 -0.0689
 6788SOL    HW223257   2.808   2.715   1.780  0.3607 -0.6164  1.8278
 6789SOL     OW23258   5.401   2.614   4.707  0.6052 -0.2368 -0.4237
 6789SOL    HW123259   5.447   2.535   4.735  0.2387 -0.5364 -0.6655
 6789SOL    HW223260   5.349   2.586   4.632 -1.9053 -0.5163  1.2906
 6790SOL     OW23261   6.041   4.166   2.613 -0.0580  0.0638  0.4929
 6790SOL    HW123262   6.064   4.251   2.649 -1.5671  1.6761 -2.0396
 6790SOL    HW223263   5.945   4.167   2.606 -0.0064 -1.1105 -1.1258
 6791SOL     OW23264   5.645   3.902   1.286  0.4514 -0.2235 -0.1842
 6791SOL    HW123265   5.634   3.940   1.199  0.9471 -0.5090 -0.3738
 6791SOL    HW223266   5.639   3.977   1.345 -0.5104 -0.1102 -0.4121
 6792SOL     OW23267   7.399   9.200   5.138  0.3847  0.7780  0.2992
 6792SOL    HW123268   7.346   9.124   5.117  1.2830  0.5835 -1.4176
 6792SOL    HW223269   7.456   9.170   5.209 -0.5574  0.4574  0.9374
 6793SOL     OW23270   8.051   7.668   2.378  0.4832  0.5646  0.5454
 6793SOL    HW123271   7.983   7.734   2.387 -0.9236 -0.8154  0.4769
 6793SOL    HW223272   8.060   7.655   2.284  0.4459  0.3629  0.5690
 6794SOL     OW23273   2.241   1.789   8.681 -0.3380  0.1169  0.3131
 6794SOL    HW123274   2.307   1.858   8.675 -0.1987 -0.0644 -0.2824
 6794SOL    HW223275   2.171   1.818   8.622  0.3921 -0.9790 -1.1328
 6795SOL     OW23276   5.265   2.512   0.861 -0.0120 -0.9337 -0.2332
 6795SOL    HW123277   5.229   2.474   0.780  1.1256 -1.9059 -0.3162
 6795SOL    HW223278   5.359   2.517   0.845 -0.0360  1.3676  0.0485
 6796SOL     OW23279   3.020   3.103   1.452 -0.0198  0.2786  0.1524
 6796SOL    HW123280   3.026   3.199   1.457 -1.3074  0.3762  0.3688
 6796SOL    HW223281   3.060   3.081   1.368  0.7135  0.9624  0.3110
 6797SOL     OW23282   8.759   5.233   8.359 -0.1637 -0.1407 -0.2964
 6797SOL    HW123283   8.726   5.320   8.379 -0.0846  0.1555 -1.3853
 6797SOL    HW223284   8.840   5.226   8.408 -1.1052 -0.3421  1.2972
 6798SOL     OW23285   0.625   9.082   5.616 -0.1152  0.0365 -0.1263
 6798SOL    HW123286   0.630   9.000   5.566 -1.9023 -0.7488  0.8674
 6798SOL    HW223287   0.710   9.088   5.661  1.5817  0.8182 -3.1878
 6799SOL     OW23288   7.988   0.397   1.690  0.6757  0.0309 -0.4683
 6799SOL    HW123289   7.902   0.431   1.714  0.7948 -0.1314  0.1834
 6799SOL    HW223290   8.050   0.454   1.735  0.9038 -0.1507 -0.5529
 6800SOL     OW23291   0.109   2.910   3.195 -0.4795 -0.4036  0.1695
 6800SOL    HW123292   0.137   2.948   3.278  0.4336 -0.7827  0.0476
 6800SOL    HW223293   0.038   2.967   3.166  0.6095  1.0206  0.1621
 6801SOL     OW23294   8.491   0.007   7.894  0.0690 -0.0850 -0.1000
 6801SOL    HW123295   8.484  -0.084   7.923  0.1998 -0.2875 -0.6863
 6801SOL    HW223296   8.583   0.017   7.870 -0.1200 -0.0574 -0.8456
 6802SOL     OW23297   1.519   7.884   1.176  0.4493  0.6364  0.2506
 6802SOL    HW123298   1.514   7.789   1.184 -0.0771  0.6781  0.4524
 6802SOL    HW223299   1.578   7.899   1.102  0.4695  0.1534  0.1666
 6803SOL     OW23300   9.051   2.985   3.162  0.5556  0.2090  0.4538
 6803SOL    HW123301   9.032   3.079   3.172  0.5101  0.0675  1.7909
 6803SOL    HW223302   9.020   2.945   3.243  2.3659 -0.6883  0.7616
 6804SOL     OW23303   3.451   4.383   2.942 -0.6496  0.0246 -0.5538
 6804SOL    HW123304   3.520   4.395   3.008 -0.7899 -2.8444  0.2513
 6804SOL    HW223305   3.370   4.377   2.992 -0.8415 -1.4912 -0.9781
 6805SOL     OW23306   0.952   4.071   8.778  0.2114 -0.0492  0.2366
 6805SOL    HW123307   0.947   4.148   8.721  1.1427  1.8705  2.5488
 6805SOL    HW223308   0.890   4.090   8.849  0.1459 -1.6568  0.6412
 6806SOL     OW23309   6.912   8.220   2.065  0.5620 -0.1215 -0.5056
 6806SOL    HW123310   6.956   8.230   2.149  2.7442 -1.3350 -1.4120
 6806SOL    HW223311   6.869   8.304   2.050 -0.6704 -0.1512  2.1796
 6807SOL     OW23312   8.209   5.612   8.533  0.3159  0.3026  0.0798
 6807SOL    HW123313   8.213   5.593   8.439 -1.7613 -1.3278  0.2521
 6807SOL    HW223314   8.130   5.665   8.543 -0.3925 -0.8697  1.0486
 6808SOL     OW23315   0.627   4.844   8.078 -0.2524 -0.5348  0.1666
 6808SOL    HW123316   0.697   4.807   8.023 -0.8624 -1.2044 -0.1787
 6808SOL    HW223317   0.663   4.926   8.111  0.1007 -0.0432 -1.3414
 6809SOL     OW23318   1.093   2.056   3.712  0.2755 -0.8288 -0.0404
 6809SOL    HW123319   1.052   2.071   3.626  0.4862  0.1539  0.0150
 6809SOL    HW223320   1.153   2.129   3.723 -0.7341 -0.1593  1.5341
 6810SOL     OW23321   5.948   0.764   4.614 -0.0291 -0.0780 -0.1388
 6810SOL    HW123322   5.999   0.842   4.593  0.4863 -0.1160  0.9299
 6810SOL    HW223323   5.936   0.767   4.709  0.2179 -1.4251 -0.0440
 6811SOL     OW23324   6.525   1.620   4.011  0.1192 -0.2166 -0.0605
 6811SOL    HW123325   6.568   1.616   4.096  1.0411  0.2521 -0.4836
 6811SOL    HW223326   6.434   1.595   4.028  0.5644 -1.2552  0.8562
 6812SOL     OW23327   1.912   5.401   0.052 -0.2675 -0.0092 -0.3664
 6812SOL    HW123328   1.860   5.474   0.018 -0.9201 -0.8747 -1.3014
 6812SOL    HW223329   1.999   5.437   0.065 -1.0714  1.4876  1.2480
 6813SOL     OW23330   1.878   8.982   7.436  0.3103  0.0186 -0.1320
 6813SOL    HW123331   1.841   8.996   7.349 -0.2866  2.9640  0.5135
 6813SOL    HW223332   1.869   8.888   7.451 -2.6607 -0.0942 -1.8965
 6814SOL     OW23333   0.290   9.558   2.772 -0.0208  0.0825 -0.5255
 6814SOL    HW123334   0.328   9.485   2.723  0.3275 -0.5119  0.5991
 6814SOL    HW223335   0.361   9.589   2.828 -0.1543  1.3240 -0.9984
 6815SOL     OW23336   0.112   7.418   8.651  0.0514  0.3503  0.6573
 6815SOL    HW123337   0.072   7.484   8.596 -0.6846 -0.1857  0.5347
 6815SOL    HW223338   0.074   7.432   8.737  0.7703  0.8198  0.9106
 6816SOL     OW23339   8.601   2.875   8.917 -0.2555  0.0652 -0.1177
 6816SOL    HW123340   8.661   2.950   8.921  0.1741 -0.3133  1.0129
 6816SOL    HW223341   8.515   2.914   8.932  0.0591  0.2611  1.4235
 6817SOL     OW23342   8.139   5.637   8.854 -0.0985 -0.1578  0.0931
 6817SOL    HW123343   8.066   5.687   8.818 -1.0796 -1.3408  0.3624
 6817SOL    HW223344   8.149   5.563   8.794 -0.4494 -1.0828  1.1324
 6818SOL     OW23345   3.767   6.218   3.681 -0.4917 -0.3256 -1.0135
 6818SOL    HW123346   3.841   6.278   3.690  0.3435 -1.1952 -1.7422
 6818SOL    HW223347   3.790   6.164   3.605 -1.5056 -1.1382 -0.7596
 6819SOL     OW23348   6.282   2.313   0.487 -0.1424  0.7586  0.1251
 6819SOL    HW123349   6.222   2.287   0.417 -0.7895  0.7187  0.6821
 6819SOL    HW223350   6.238   2.286   0.568  1.1567 -0.3288  0.4973
 6820SOL     OW23351   2.567   7.274   9.517  0.1995  0.0681 -0.2881
 6820SOL    HW123352   2.645   7.317   9.485  1.3590 -0.2525  1.9115
 6820SOL    HW223353   2.582   7.181   9.501 -0.2096  0.0843 -0.7966
 6821SOL     OW23354   0.075   0.614   7.934  0.0210  0.4872  0.1247
 6821SOL    HW123355  -0.005   0.628   7.983 -0.1135  0.8203 -0.1846
 6821SOL    HW223356   0.080   0.688   7.873 -0.0648 -0.1636 -0.6973
 6822SOL     OW23357   0.057   7.583   1.282 -0.0472 -0.5034 -0.0169
 6822SOL    HW123358   0.017   7.669   1.269 -1.5253 -1.3108 -1.1320
 6822SOL    HW223359   0.005   7.543   1.352 -0.1199 -0.9060 -0.2932
 6823SOL     OW23360   5.155   3.396   6.204  0.9009  0.3112 -0.3666
 6823SOL    HW123361   5.211   3.328   6.241 -2.3073 -2.4792 -0.0997
 6823SOL    HW223362   5.074   3.350   6.180 -1.1317  3.9014 -1.1848
 6824SOL     OW23363   7.397   1.622   8.639 -0.1466  0.0876 -0.6302
 6824SOL    HW123364   7.381   1.713   8.664 -0.5842 -0.3047  0.5391
 6824SOL    HW223365   7.483   1.624   8.597  0.7247  0.7497  1.0879
 6825SOL     OW23366   0.129   9.362   7.528  0.1050 -0.0264 -0.2812
 6825SOL    HW123367   0.176   9.306   7.466  0.3688  0.3373 -0.4161
 6825SOL    HW223368   0.196   9.392   7.589  0.2803  1.3586 -1.0993
 6826SOL     OW23369   8.405   8.464   8.494  0.5388  0.5953 -0.1431
 6826SOL    HW123370   8.379   8.508   8.412  0.5452  0.3035 -0.3030
 6826SOL    HW223371   8.473   8.402   8.467  0.3014  0.2595  0.0330
 6827SOL     OW23372   1.862   9.091   9.346  0.0922  0.0033  0.0582
 6827SOL    HW123373   1.782   9.040   9.332 -0.6458  0.8425  1.0390
 6827SOL    HW223374   1.830   9.178   9.369  1.2999  0.3349  0.5293
 6828SOL     OW23375   8.542   5.777   0.697  0.2047 -0.1775 -0.4703
 6828SOL    HW123376   8.497   5.694   0.714 -1.1682  0.6846  0.2360
 6828SOL    HW223377   8.580   5.801   0.782 -0.5419  0.5617 -0.3328
 6829SOL     OW23378   1.501   2.393   1.998  0.5697 -0.5377 -0.5339
 6829SOL    HW123379   1.596   2.391   2.013  0.9441 -0.9745 -2.6759
 6829SOL    HW223380   1.477   2.485   2.008  0.8234 -0.6813  1.9649
 6830SOL     OW23381   2.713   7.756   0.942  0.4003 -0.2139 -0.2488
 6830SOL    HW123382   2.767   7.744   1.020  0.4814  0.5310 -0.1815
 6830SOL    HW223383   2.760   7.823   0.891 -0.0344 -0.1602 -0.5808
 6831SOL     OW23384   6.653   8.141   8.945  0.1516  0.1201 -0.2014
 6831SOL    HW123385   6.714   8.208   8.914  0.4999 -0.3960 -0.6656
 6831SOL    HW223386   6.709   8.075   8.987 -0.1770  0.0814  0.1843
 6832SOL     OW23387   7.498   5.065   4.829 -0.6886 -0.1805 -0.4712
 6832SOL    HW123388   7.416   5.017   4.822 -1.3186  0.7145  0.5466
 6832SOL    HW223389   7.511   5.078   4.923  0.4449  0.0057 -0.6338
 6833SOL     OW23390   7.720   6.280   2.324 -0.0400 -0.2514  0.2498
 6833SOL    HW123391   7.646   6.249   2.272  0.6933 -1.5715 -0.0516
 6833SOL    HW223392   7.745   6.362   2.281 -1.5858  0.4649  0.6402
 6834SOL     OW23393   6.246   0.243   6.540  0.2831 -0.3117 -0.6531
 6834SOL    HW123394   6.224   0.157   6.503  1.4897 -0.1119 -1.9080
 6834SOL    HW223395   6.307   0.224   6.611  0.6165 -0.4993 -0.9859
 6835SOL     OW23396   6.321   3.361   9.352 -0.0964 -0.1247  0.2890
 6835SOL    HW123397   6.354   3.325   9.269 -2.9199 -1.0324 -0.5749
 6835SOL    HW223398   6.307   3.284   9.407 -1.1225  0.1408  0.4263
 6836SOL     OW23399   2.625   2.499   1.602  0.0041  0.2974  0.5303
 6836SOL    HW123400   2.625   2.440   1.527 -3.1387 -0.4487  0.9616
 6836SOL    HW223401   2.680   2.454   1.667  2.4178  0.7580 -1.0477
 6837SOL     OW23402   1.992   1.776   8.889  0.2116  0.0408  0.2768
 6837SOL    HW123403   1.978   1.851   8.948 -0.6332 -0.2452  0.4620
 6837SOL    HW223404   2.084   1.782   8.864  0.0395  1.4328 -0.1063
 6838SOL     OW23405   0.498   0.448   6.893 -0.4910  0.0498 -0.1138
 6838SOL    HW123406   0.486   0.397   6.813  1.1949 -0.9536  0.2157
 6838SOL    HW223407   0.463   0.393   6.962  0.1394 -0.1145  0.0862
 6839SOL     OW23408   0.762   8.040   6.148  0.4509  0.0294 -0.0652
 6839SOL    HW123409   0.677   8.003   6.172  0.8227 -0.6854  0.1697
 6839SOL    HW223410   0.745   8.134   6.138  0.2881  0.4659  3.2731
 6840SOL     OW23411   7.617   8.302   9.397  0.2432  0.2139 -0.1426
 6840SOL    HW123412   7.544   8.359   9.421 -0.9624 -0.7072 -1.4497
 6840SOL    HW223413   7.684   8.319   9.463 -1.7190 -0.0289  2.0191
 6841SOL     OW23414   0.707   2.685   1.989  0.2267 -0.0306 -0.5010
 6841SOL    HW123415   0.680   2.651   2.075 -0.7113 -1.8708 -1.4638
 6841SOL    HW223416   0.727   2.607   1.938 -0.3869  0.9521 -2.3287
 6842SOL     OW23417   3.490   0.510   0.485 -0.2904 -0.0279  0.3291
 6842SOL    HW123418   3.451   0.424   0.471  0.9296 -0.5324 -0.1012
 6842SOL    HW223419   3.425   0.558   0.536 -1.8097 -0.5694 -1.0110
 6843SOL     OW23420   5.292   2.025   0.401  0.4911  0.2455  0.0075
 6843SOL    HW123421   5.198   2.040   0.402  0.4522 -0.0138  0.2971
 6843SOL    HW223422   5.309   1.969   0.476  0.7876 -0.2643 -0.4322
 6844SOL     OW23423   8.856   3.679   6.078  0.1279  0.1726  0.2062
 6844SOL    HW123424   8.838   3.756   6.133  0.7535 -0.1847  0.9168
 6844SOL    HW223425   8.940   3.698   6.037  0.5234 -0.3493  0.7708
 6845SOL     OW23426   9.110   3.408   1.071 -0.1761 -0.0895 -0.5616
 6845SOL    HW123427   9.109   3.341   1.139 -0.2818 -0.9180 -1.3470
 6845SOL    HW223428   9.020   3.440   1.066  0.1493  1.0948  0.7314
 6846SOL     OW23429   7.189   7.478   4.265 -0.3057  0.4007 -0.2194
 6846SOL    HW123430   7.111   7.434   4.297  0.8907 -0.4584  1.6386
 6846SOL    HW223431   7.196   7.451   4.173 -1.1081 -1.0932  0.1365
 6847SOL     OW23432   2.268   9.354   4.803 -0.3795 -0.3103  0.1255
 6847SOL    HW123433   2.356   9.386   4.822 -0.4395 -0.5600  0.8379
 6847SOL    HW223434   2.272   9.327   4.711  0.0344  0.5061 -0.1084
 6848SOL     OW23435   0.479   6.752   7.629  0.0785 -0.0354  0.5216
 6848SOL    HW123436   0.481   6.664   7.668 -1.0689 -0.9102 -1.2636
 6848SOL    HW223437   0.420   6.801   7.686  1.0105 -0.2733  1.7473
 6849SOL     OW23438   7.303   0.849   2.348  0.2552  0.3727  0.2212
 6849SOL    HW123439   7.246   0.877   2.420  0.3363  0.2909  0.3194
 6849SOL    HW223440   7.257   0.875   2.269 -0.1590 -0.1331  0.2864
 6850SOL     OW23441   0.171   9.488   7.093  0.6972  0.2384 -0.1325
 6850SOL    HW123442   0.233   9.552   7.128  0.5270  0.0508  0.5247
 6850SOL    HW223443   0.195   9.479   7.001  0.0640  2.0576 -0.5399
 6851SOL     OW23444   5.102   8.337   7.919 -0.1585  0.2092  0.4551
 6851SOL    HW123445   5.073   8.246   7.914  1.4551 -0.2683 -1.4509
 6851SOL    HW223446   5.022   8.388   7.910 -1.0472 -1.0060  1.1433
 6852SOL     OW23447   6.293   9.590   0.813 -0.1984 -0.3093 -0.5066
 6852SOL    HW123448   6.255   9.672   0.844  0.9893 -0.2629  0.9525
 6852SOL    HW223449   6.356   9.617   0.746 -0.6422 -0.1450 -0.8634
 6853SOL     OW23450   8.255   1.356   0.774 -0.3439  0.3515  0.2878
 6853SOL    HW123451   8.222   1.427   0.830  0.8074 -0.2515  1.7951
 6853SOL    HW223452   8.218   1.276   0.812  0.0795 -0.0298 -0.0907
 6854SOL     OW23453   3.020   7.457   4.067 -0.7812 -0.6273  0.2860
 6854SOL    HW123454   3.046   7.385   4.124  3.5811  0.3538 -0.1387
 6854SOL    HW223455   3.075   7.447   3.990 -1.8440  1.8057 -0.8886
 6855SOL     OW23456   0.125   0.853   5.591 -0.4664 -0.0462 -0.8096
 6855SOL    HW123457   0.088   0.799   5.521  2.2058 -1.2435 -1.4199
 6855SOL    HW223458   0.167   0.790   5.650  2.3381  1.2374 -1.2797
 6856SOL     OW23459   6.340   5.427   3.019 -1.1883  0.0005 -0.2459
 6856SOL    HW123460   6.263   5.484   3.021 -1.2823 -0.1133 -0.6735
 6856SOL    HW223461   6.414   5.486   3.006 -1.1707  0.1412  0.4707
 6857SOL     OW23462   6.949   1.653   0.828 -0.5114 -0.5029  0.3951
 6857SOL    HW123463   6.990   1.627   0.746 -0.5140  0.7152 -0.0158
 6857SOL    HW223464   6.961   1.577   0.886 -0.1894 -1.2377 -0.6031
 6858SOL     OW23465   7.009   3.516   6.203  0.3233  0.0528 -0.4084
 6858SOL    HW123466   6.931   3.469   6.175  0.9441 -0.2725 -1.6829
 6858SOL    HW223467   7.045   3.462   6.274 -0.0264 -0.3713 -0.5501
 6859SOL     OW23468   5.115   6.416   7.438 -0.0585 -0.5879 -0.0146
 6859SOL    HW123469   5.084   6.495   7.482 -0.2539 -2.0330  2.6157
 6859SOL    HW223470   5.192   6.444   7.389  0.1137  1.1362  1.1654
 6860SOL     OW23471   8.143   5.728   4.403  0.2027  0.3295 -0.0113
 6860SOL    HW123472   8.113   5.666   4.469 -2.4620  2.8423  1.3633
 6860SOL    HW223473   8.125   5.685   4.319 -0.8552 -1.0282  0.8793
 6861SOL     OW23474   4.523   8.500   8.012  0.5872  0.4513 -0.5810
 6861SOL    HW123475   4.454   8.437   8.034 -0.6171  2.1009  0.6072
 6861SOL    HW223476   4.489   8.549   7.937  1.5670 -0.3384 -1.5762
 6862SOL     OW23477   6.336   9.572   3.370  0.0728 -0.1230  0.1214
 6862SOL    HW123478   6.282   9.503   3.332 -1.5055  1.0905  0.0539
 6862SOL    HW223479   6.425   9.551   3.342 -0.7778 -0.2071 -2.8915
 6863SOL     OW23480   9.028   3.140   6.651  0.4189 -0.3521  1.1320
 6863SOL    HW123481   9.045   3.234   6.646  0.6070 -0.3977  0.8702
 6863SOL    HW223482   8.979   3.121   6.570  1.4226 -0.6863  0.5901
 6864SOL     OW23483   4.619   0.786   9.427  0.0545 -0.2574  0.0556
 6864SOL    HW123484   4.550   0.727   9.398  1.3920 -0.9982 -1.7977
 6864SOL    HW223485   4.590   0.873   9.397  0.0990 -0.6268 -1.1185
 6865SOL     OW23486   3.738   5.407   1.076 -0.0724  0.6608  0.1193
 6865SOL    HW123487   3.763   5.333   1.021  0.9603  2.2232 -1.6222
 6865SOL    HW223488   3.696   5.367   1.152  0.3802 -1.6907 -0.7822
 6866SOL     OW23489   9.602   2.325   6.968 -0.1520 -0.1260  0.0318
 6866SOL    HW123490   9.598   2.330   6.872 -2.3896 -0.1303  0.0593
 6866SOL    HW223491   9.510   2.315   6.994  0.4624 -0.5700  2.1609
 6867SOL     OW23492   8.418   2.739   3.171 -0.3981 -0.9426  0.3602
 6867SOL    HW123493   8.488   2.785   3.126 -1.8355  0.2861 -0.7104
 6867SOL    HW223494   8.443   2.646   3.166  0.6997 -0.6049 -0.7712
 6868SOL     OW23495   4.853   0.982   5.441 -0.9340 -0.5431  0.0294
 6868SOL    HW123496   4.837   1.051   5.505 -0.6153 -0.2655 -0.1873
 6868SOL    HW223497   4.941   0.951   5.460 -1.1948 -1.1143  0.3317
 6869SOL     OW23498   5.317   2.742   2.367 -0.3443  0.4027 -0.3336
 6869SOL    HW123499   5.379   2.672   2.387  0.3138  1.3404  1.1110
 6869SOL    HW223500   5.236   2.716   2.411 -0.5361 -0.0964 -0.9639
 6870SOL     OW23501   0.704   2.315   9.119 -0.2989 -0.7544 -0.2225
 6870SOL    HW123502   0.710   2.409   9.137 -1.5548 -0.5578 -0.7359
 6870SOL    HW223503   0.723   2.306   9.026  1.2208 -1.1922  0.1053
 6871SOL     OW23504   7.504   3.524   8.837 -0.2697 -0.0364  0.8366
 6871SOL    HW123505   7.424   3.546   8.885 -0.3362 -0.3565  0.8724
 6871SOL    HW223506   7.488   3.557   8.749 -0.3512  0.1010  0.9022
 6872SOL     OW23507   2.837   5.260   4.723  0.0880 -0.1526 -0.4445
 6872SOL    HW123508   2.803   5.172   4.708 -0.7289  0.0329  0.2545
 6872SOL    HW223509   2.843   5.298   4.635 -0.5000 -0.5631 -0.6707
 6873SOL     OW23510   7.885   4.708   3.549 -0.4361 -0.1411  0.5101
 6873SOL    HW123511   7.800   4.675   3.521  0.1911  0.2887 -2.2234
 6873SOL    HW223512   7.866   4.770   3.619 -2.0617 -2.2641  2.0896
 6874SOL     OW23513   8.833   9.287   0.505  0.2283 -0.1534 -0.5001
 6874SOL    HW123514   8.795   9.361   0.553  1.2293  0.4132 -0.5513
 6874SOL    HW223515   8.881   9.238   0.571 -0.2842 -0.6696 -0.5023
 6875SOL     OW23516   1.403   6.949   3.024 -0.3046 -0.4180 -0.0758
 6875SOL    HW123517   1.478   6.903   2.986 -0.2827  1.3744 -2.4849
 6875SOL    HW223518   1.438   6.993   3.101  0.7070 -0.9474 -0.2194
 6876SOL     OW23519   5.015   7.627   7.678 -0.8360 -0.9945  0.5117
 6876SOL    HW123520   5.013   7.712   7.636  0.8786 -0.4013  1.5150
 6876SOL    HW223521   5.070   7.573   7.621  1.0372 -0.3465  1.6093
 6877SOL     OW23522   3.278   0.141   4.984  0.6392  0.0552  0.2409
 6877SOL    HW123523   3.297   0.049   5.001  3.4691 -0.0541 -2.6037
 6877SOL    HW223524   3.331   0.189   5.048  1.0569 -0.3203  0.1819
 6878SOL     OW23525   6.612   7.703   1.580  0.0837 -0.1507 -0.0767
 6878SOL    HW123526   6.536   7.761   1.573  1.5441  1.6753 -1.5044
 6878SOL    HW223527   6.641   7.689   1.490  0.1941 -2.6374  0.2553
 6879SOL     OW23528   0.464   1.012   7.268  0.0753  0.6877 -0.1593
 6879SOL    HW123529   0.458   1.079   7.201 -0.7396  1.0336  0.2499
 6879SOL    HW223530   0.535   1.041   7.326 -0.0573  1.0185 -0.1662
 6880SOL     OW23531   0.357   1.974   8.439  0.4420  0.4294  0.2782
 6880SOL    HW123532   0.414   1.993   8.365 -1.5742  0.8415 -1.2714
 6880SOL    HW223533   0.311   2.056   8.457 -0.0293 -0.0037  1.1572
 6881SOL     OW23534   1.223   8.114   1.434 -0.6873  0.5758 -0.5203
 6881SOL    HW123535   1.258   8.190   1.481 -1.4036 -0.5715  2.0471
 6881SOL    HW223536   1.287   8.096   1.365  2.7086 -0.0604  2.4976
 6882SOL     OW23537   5.993   4.089   6.207  0.5004 -0.5216  0.0521
 6882SOL    HW123538   6.053   4.119   6.138  0.3131  0.4871  0.3047
 6882SOL    HW223539   5.930   4.033   6.161  1.2978 -1.1390 -0.3150
 6883SOL     OW23540   3.201   2.119   0.380  0.6592 -0.5883 -0.4916
 6883SOL    HW123541   3.248   2.202   0.389  0.6594 -0.3677 -2.1883
 6883SOL    HW223542   3.128   2.125   0.442  1.4948  0.0459  0.4633
 6884SOL     OW23543   7.122   0.071   7.575  1.1013  0.2839 -0.2666
 6884SOL    HW123544   7.161   0.113   7.498  2.8409  0.4115  0.6280
 6884SOL    HW223545   7.143   0.131   7.647 -0.3178  0.0614  0.3574
 6885SOL     OW23546   8.442   5.293   2.800  0.1319 -0.1656 -0.4617
 6885SOL    HW123547   8.399   5.317   2.718 -0.2075  0.3740 -0.1272
 6885SOL    HW223548   8.524   5.342   2.799 -0.0917  0.2108 -0.2543
 6886SOL     OW23549   5.749   9.239   4.090  0.3439 -0.1410  0.2576
 6886SOL    HW123550   5.798   9.321   4.097  0.4696 -0.2625  0.8466
 6886SOL    HW223551   5.812   9.177   4.054  0.7928 -0.4336  1.5258
 6887SOL     OW23552   4.250   7.422   4.527 -0.0314 -0.1181  0.2687
 6887SOL    HW123553   4.219   7.334   4.507  0.6745 -0.0991 -1.0244
 6887SOL    HW223554   4.337   7.427   4.487  0.0497  1.0713  0.5483
 6888SOL     OW23555   4.378   5.164   1.242  0.2647  0.7043 -0.0278
 6888SOL    HW123556   4.284   5.147   1.234 -0.2011  2.6254  0.8679
 6888SOL    HW223557   4.402   5.129   1.328  0.8604 -1.5647 -1.0342
 6889SOL     OW23558   5.570   4.989   7.486 -0.4315 -0.2630  0.1349
 6889SOL    HW123559   5.483   4.950   7.472 -0.4794  0.1555 -0.8139
 6889SOL    HW223560   5.582   4.986   7.581 -1.8120  0.3651  0.3635
 6890SOL     OW23561   1.886   6.152   5.314 -0.5094  0.1564 -0.2580
 6890SOL    HW123562   1.797   6.185   5.318 -0.0694  1.3354  3.0269
 6890SOL    HW223563   1.878   6.067   5.271 -2.8948  1.0137 -1.6920
 6891SOL     OW23564   8.817   9.402   0.193 -0.1159 -0.1527 -0.0432
 6891SOL    HW123565   8.780   9.481   0.230  1.0229  0.6622 -0.5924
 6891SOL    HW223566   8.741   9.349   0.169 -0.8908  0.7480  0.3614
 6892SOL     OW23567   0.358   6.346   5.811 -0.7284 -0.6352 -0.4901
 6892SOL    HW123568   0.280   6.305   5.848  1.5006 -3.6109  1.3674
 6892SOL    HW223569   0.382   6.291   5.737  0.7259 -1.0778  0.2643
 6893SOL     OW23570   1.086   1.607   8.905 -0.5162 -0.6205 -0.2075
 6893SOL    HW123571   1.106   1.628   8.996 -1.2995 -0.8614  0.0254
 6893SOL    HW223572   0.994   1.631   8.894 -0.7970 -1.7698 -0.5686
 6894SOL     OW23573   1.533   2.782   7.038  0.1841 -0.6521  0.4023
 6894SOL    HW123574   1.453   2.729   7.037 -0.0423 -0.3202 -0.9154
 6894SOL    HW223575   1.585   2.746   7.110 -0.7922 -1.4121  0.7456
 6895SOL     OW23576   1.232   8.242   2.279  0.4116  0.3996 -0.2153
 6895SOL    HW123577   1.169   8.287   2.222  0.0309 -0.0824 -0.1828
 6895SOL    HW223578   1.315   8.246   2.232  0.2666  0.6845 -0.4457
 6896SOL     OW23579   5.891   1.518   5.562  0.5680 -0.0269  0.1277
 6896SOL    HW123580   5.836   1.515   5.484 -0.4481  1.5161  0.7365
 6896SOL    HW223581   5.957   1.449   5.547  0.7796  0.5934 -2.3417
 6897SOL     OW23582   1.205   8.936   4.216  0.0494 -1.3601  0.3900
 6897SOL    HW123583   1.113   8.921   4.240 -0.1123 -2.1183 -0.6183
 6897SOL    HW223584   1.248   8.852   4.234  0.5195 -1.0472  0.7426
 6898SOL     OW23585   6.028   2.645   4.337 -0.1274  0.2289 -0.1532
 6898SOL    HW123586   6.089   2.578   4.308  1.5226  1.9431 -0.8896
 6898SOL    HW223587   6.026   2.636   4.433  1.0884 -0.0503 -0.1385
 6899SOL     OW23588   5.486   7.570   3.737 -0.2147  0.2452  0.2177
 6899SOL    HW123589   5.470   7.589   3.644  0.7373  2.9426  0.5080
 6899SOL    HW223590   5.460   7.650   3.783 -0.8905 -1.1068  2.3487
 6900SOL     OW23591   4.282   5.910   0.799  0.2576  0.4138 -0.0356
 6900SOL    HW123592   4.194   5.898   0.835  0.6489  1.6455  1.4087
 6900SOL    HW223593   4.268   5.911   0.704 -1.2972  0.6834  0.1594
 6901SOL     OW23594   8.149   8.964   4.530 -0.8834 -0.3587  0.0813
 6901SOL    HW123595   8.180   8.972   4.620  0.6441 -1.7524 -0.2667
 6901SOL    HW223596   8.158   9.053   4.494  2.1410 -0.4902  0.2431
 6902SOL     OW23597   1.066   3.803   3.643  0.1442  0.2037 -0.2472
 6902SOL    HW123598   1.094   3.860   3.572  0.0575 -0.0661 -0.5011
 6902SOL    HW223599   1.003   3.855   3.692  0.3436  0.4567 -0.2611
 6903SOL     OW23600   6.825   1.975   2.953  0.2910  0.0309 -0.2698
 6903SOL    HW123601   6.890   1.943   2.891  0.4634  0.6114 -0.3932
 6903SOL    HW223602   6.744   1.980   2.902  0.0727 -0.9684 -0.0420
 6904SOL     OW23603   1.309   6.663   6.198  0.1587  0.1055 -0.3140
 6904SOL    HW123604   1.294   6.704   6.284 -1.9515  1.0952 -1.0767
 6904SOL    HW223605   1.346   6.733   6.144  1.1657 -0.4188 -0.3126
 6905SOL     OW23606   2.245   8.191   5.544  0.6732  0.1761 -0.4706
 6905SOL    HW123607   2.248   8.099   5.515  0.3320 -0.1925  0.6263
 6905SOL    HW223608   2.156   8.203   5.577  0.7181  0.9093 -0.6083
 6906SOL     OW23609   9.226   3.907   7.121 -0.0198 -0.3136  0.1041
 6906SOL    HW123610   9.303   3.964   7.110  0.6260 -1.0038  0.9082
 6906SOL    HW223611   9.153   3.961   7.092  0.7688  0.3486 -0.7307
 6907SOL     OW23612   8.328   6.600   5.298  0.0392 -1.1998  0.2674
 6907SOL    HW123613   8.393   6.658   5.258  0.6371 -1.3664  0.9594
 6907SOL    HW223614   8.343   6.610   5.392 -1.3766 -0.7600  0.4694
 6908SOL     OW23615   7.108   5.810   1.971  0.6552  0.1243 -0.2677
 6908SOL    HW123616   7.039   5.846   2.028  0.8999  0.9946 -0.4965
 6908SOL    HW223617   7.140   5.733   2.017  0.2509  0.3185  0.3535
 6909SOL     OW23618   2.710   7.722   0.518 -0.2432  0.3005  0.8108
 6909SOL    HW123619   2.732   7.677   0.437 -0.3566 -0.1296  1.0170
 6909SOL    HW223620   2.795   7.748   0.554 -0.0101 -1.5205  1.6983
 6910SOL     OW23621   9.309   3.826   1.812  0.5331 -0.1755  0.2108
 6910SOL    HW123622   9.288   3.781   1.894 -0.1049  0.0288  0.1614
 6910SOL    HW223623   9.336   3.755   1.753 -0.4351 -0.4973  0.1416
 6911SOL     OW23624   7.493   0.159   0.295 -0.4911  0.5290  0.2011
 6911SOL    HW123625   7.448   0.240   0.322 -0.9306 -0.0697  1.3394
 6911SOL    HW223626   7.550   0.186   0.223  0.1390  2.0711  1.2298
 6912SOL     OW23627   8.540   4.846   6.038  0.0903  0.3892  0.0461
 6912SOL    HW123628   8.581   4.927   6.007  0.0225  1.4232  2.4629
 6912SOL    HW223629   8.446   4.861   6.029  0.0169  1.1892  1.7373
 6913SOL     OW23630   6.209   8.713   8.155 -0.0065  0.3212 -0.1102
 6913SOL    HW123631   6.237   8.745   8.241 -0.0849  2.5265 -0.8401
 6913SOL    HW223632   6.265   8.760   8.093 -1.6795  0.7505 -1.3609
 6914SOL     OW23633   6.732   2.058   2.105 -0.0317  0.4741 -0.6704
 6914SOL    HW123634   6.728   2.121   2.177  0.4923 -0.9779  0.6849
 6914SOL    HW223635   6.822   2.026   2.106 -0.2976 -0.3199 -1.3052
 6915SOL     OW23636   0.409   7.268   4.760  0.0824 -0.6566  0.7342
 6915SOL    HW123637   0.399   7.274   4.855  1.1233  1.3699  0.7768
 6915SOL    HW223638   0.383   7.355   4.728  1.9323 -0.5325 -0.5842
 6916SOL     OW23639   0.925   1.067   4.158  1.0053  0.2362  0.4375
 6916SOL    HW123640   0.922   1.156   4.124 -1.3144  1.2240  2.8218
 6916SOL    HW223641   0.973   1.074   4.240  1.9711 -1.0088  0.0037
 6917SOL     OW23642   5.759   6.139   7.111  0.1854 -0.2892  0.4040
 6917SOL    HW123643   5.694   6.187   7.161 -0.5907 -0.2864 -0.5849
 6917SOL    HW223644   5.709   6.088   7.047  1.1764  0.7478 -1.2975
 6918SOL     OW23645   5.754   1.311   6.642 -0.5874  0.4190 -0.6051
 6918SOL    HW123646   5.746   1.367   6.719  0.8139  0.2123 -0.2687
 6918SOL    HW223647   5.810   1.239   6.672 -1.2165 -0.4205 -1.4211
 6919SOL     OW23648   6.676   1.592   8.253  0.1591  0.2914 -0.2712
 6919SOL    HW123649   6.702   1.655   8.186  0.2692  0.3076 -0.2138
 6919SOL    HW223650   6.739   1.605   8.324 -0.8731  1.3291  0.4746
 6920SOL     OW23651   3.368   2.129   2.825  0.0789 -0.0436  0.1543
 6920SOL    HW123652   3.288   2.179   2.809  0.3319  0.7544  1.2984
 6920SOL    HW223653   3.374   2.122   2.920  0.9708 -0.7478  0.0559
 6921SOL     OW23654   5.576   2.105   2.616  0.2213  0.1843  0.4745
 6921SOL    HW123655   5.666   2.076   2.602 -0.0556 -0.1673 -0.7170
 6921SOL    HW223656   5.573   2.193   2.580 -0.0420 -0.0199 -0.0170
 6922SOL     OW23657   5.866   6.852   7.874  0.1330  0.0142  0.0610
 6922SOL    HW123658   5.801   6.819   7.936 -1.0100  1.8434 -0.0804
 6922SOL    HW223659   5.818   6.859   7.792  0.5138  1.2914 -0.0706
 6923SOL     OW23660   6.050   5.653   4.513 -0.1638 -0.0181 -0.3807
 6923SOL    HW123661   6.076   5.568   4.479 -1.2052 -0.8159  0.7393
 6923SOL    HW223662   6.106   5.667   4.590  0.0671  0.3518 -0.6130
 6924SOL     OW23663   5.827   7.905   6.867 -0.0697 -0.4053 -0.1064
 6924SOL    HW123664   5.822   7.995   6.897  0.5667 -0.1503 -0.7329
 6924SOL    HW223665   5.918   7.880   6.883  0.1770 -0.3917 -1.4385
 6925SOL     OW23666   4.645   9.432   1.867 -0.0498  0.6042 -0.3975
 6925SOL    HW123667   4.721   9.426   1.809 -0.3277  1.5438 -0.8725
 6925SOL    HW223668   4.674   9.391   1.949  0.0722 -1.5283 -1.4485
 6926SOL     OW23669   6.113   8.476   4.544 -0.1023  0.2973  0.1149
 6926SOL    HW123670   6.075   8.564   4.551 -1.7389 -0.1780 -1.8298
 6926SOL    HW223671   6.039   8.420   4.521  0.8254 -1.7035  1.6725
 6927SOL     OW23672   2.073   4.998   8.078  0.0561  0.3360 -0.3480
 6927SOL    HW123673   2.138   4.968   8.016 -1.4709 -0.9388 -1.4117
 6927SOL    HW223674   2.036   4.918   8.116 -1.3400  0.9687 -0.2823
 6928SOL     OW23675   8.925   0.739   4.229 -0.4717  0.9735  0.1058
 6928SOL    HW123676   8.896   0.812   4.175  0.9233  1.0272 -0.6065
 6928SOL    HW223677   8.965   0.678   4.168 -1.0878 -0.1290  0.7695
 6929SOL     OW23678   9.178   1.869   2.875  0.4727 -0.0064  0.2446
 6929SOL    HW123679   9.177   1.964   2.873  0.6792 -0.0046 -2.4434
 6929SOL    HW223680   9.264   1.844   2.839  0.0469 -1.2051 -0.0061
 6930SOL     OW23681   8.661   6.878   8.443  0.9470 -0.3409 -0.1092
 6930SOL    HW123682   8.621   6.811   8.498 -0.3685 -0.2806 -0.9600
 6930SOL    HW223683   8.746   6.894   8.484  0.5990 -1.3175  1.0688
 6931SOL     OW23684   1.391   4.226   8.563  0.1594  0.4186  0.5356
 6931SOL    HW123685   1.440   4.288   8.508 -0.0285 -1.1777 -1.5774
 6931SOL    HW223686   1.457   4.191   8.623  0.6023  1.5140  0.7150
 6932SOL     OW23687   6.096   8.629   5.198  0.0996  0.8602  0.2273
 6932SOL    HW123688   6.165   8.617   5.133 -1.9217 -0.7664 -1.7816
 6932SOL    HW223689   6.019   8.651   5.147 -1.5965 -0.5171  2.0439
 6933SOL     OW23690   9.027   0.730   4.538  0.4649  0.1571 -0.2161
 6933SOL    HW123691   8.948   0.688   4.506  0.3311  0.2441 -0.0041
 6933SOL    HW223692   9.041   0.804   4.480  1.2225 -0.7076 -1.1658
 6934SOL     OW23693   4.874   2.169   7.160 -0.2328  0.4747  0.0650
 6934SOL    HW123694   4.931   2.237   7.196 -1.0989  0.8633  0.7436
 6934SOL    HW223695   4.923   2.134   7.085  1.9552 -0.8487  1.9673
 6935SOL     OW23696   3.394   0.413   5.896 -0.3668  0.3215  0.8655
 6935SOL    HW123697   3.364   0.325   5.873  0.1191  0.7418 -1.6189
 6935SOL    HW223698   3.487   0.402   5.918 -0.3966  0.1604  0.9123
 6936SOL     OW23699   2.264   0.315   1.626  0.1527 -0.7727 -0.1443
 6936SOL    HW123700   2.243   0.387   1.685  1.2535 -0.0559 -0.6048
 6936SOL    HW223701   2.196   0.318   1.559  0.9003  0.6743 -0.8809
 6937SOL     OW23702   3.784   0.592   5.344  0.7173  0.0113 -0.0300
 6937SOL    HW123703   3.751   0.543   5.419  0.7264 -2.1674 -1.3695
 6937SOL    HW223704   3.714   0.654   5.323  0.3413  0.0306  1.1940
 6938SOL     OW23705   5.194   3.425   6.496 -0.1604  0.1218 -0.5344
 6938SOL    HW123706   5.241   3.342   6.484  1.0099  0.7696 -0.4987
 6938SOL    HW223707   5.191   3.464   6.409  2.3360  1.6274 -0.0271
 6939SOL     OW23708   1.222   5.343   7.306 -0.4480  0.1219 -0.5503
 6939SOL    HW123709   1.314   5.328   7.327 -0.3592 -1.1911 -1.6643
 6939SOL    HW223710   1.217   5.326   7.211 -1.8953 -0.2168 -0.4286
 6940SOL     OW23711   6.038   2.052   3.468 -0.1614 -0.0149  0.4340
 6940SOL    HW123712   6.014   1.968   3.507 -0.4855  0.4346  1.2214
 6940SOL    HW223713   6.058   2.031   3.376 -1.0098 -0.8185  0.4176
 6941SOL     OW23714   9.538   5.352   9.392  0.0603  0.3940  0.0339
 6941SOL    HW123715   9.632   5.335   9.388  0.0510 -0.1062  1.4762
 6941SOL    HW223716   9.525   5.397   9.476 -0.8523  1.4274 -0.6283
 6942SOL     OW23717   6.220   5.979   2.579  0.2280  0.7324 -0.3181
 6942SOL    HW123718   6.133   5.953   2.547  0.3210  0.2626 -0.1875
 6942SOL    HW223719   6.268   5.897   2.587  0.9628  1.0553 -1.1957
 6943SOL     OW23720   9.309   8.149   5.899  0.1478 -0.2968  0.2601
 6943SOL    HW123721   9.386   8.205   5.889 -0.0185  0.3030  1.9824
 6943SOL    HW223722   9.331   8.091   5.971 -0.2609 -1.4821 -0.5446
 6944SOL     OW23723   0.044   1.343   2.342 -0.1792 -0.9042  0.2861
 6944SOL    HW123724   0.056   1.365   2.434  2.1181 -1.9499  0.3184
 6944SOL    HW223725  -0.044   1.306   2.337 -0.0145 -1.6889  2.2661
 6945SOL     OW23726   0.333   3.248   3.819  0.7304 -0.4238 -0.0812
 6945SOL    HW123727   0.321   3.241   3.913  1.3884 -0.5815 -0.0065
 6945SOL    HW223728   0.428   3.243   3.806  0.8569  1.9969 -0.5466
 6946SOL     OW23729   3.167   1.447   1.358  0.8558  0.2921 -0.3060
 6946SOL    HW123730   3.126   1.507   1.420 -1.7038 -1.1832 -0.4378
 6946SOL    HW223731   3.221   1.389   1.412 -0.9840 -0.6843  0.5652
 6947SOL     OW23732   6.713   0.340   2.944 -0.2544 -0.1702  0.0763
 6947SOL    HW123733   6.774   0.303   3.008  0.6767  0.6455 -0.3210
 6947SOL    HW223734   6.764   0.404   2.895 -1.9910  2.4138  1.3583
 6948SOL     OW23735   7.700   3.003   6.438 -0.0360  0.2260 -1.0344
 6948SOL    HW123736   7.633   2.947   6.400 -1.1545  0.6087  0.3142
 6948SOL    HW223737   7.737   2.953   6.510 -0.7628  1.0361 -0.0745
 6949SOL     OW23738   2.508   3.423   3.606  0.1519  0.4614 -0.1436
 6949SOL    HW123739   2.420   3.459   3.619 -0.8163 -0.7158 -2.7493
 6949SOL    HW223740   2.561   3.499   3.580 -0.3589  0.9928  0.3242
 6950SOL     OW23741   1.603   1.989   2.952 -0.9093 -0.2028 -0.5031
 6950SOL    HW123742   1.628   2.054   3.018 -0.7902  0.3856 -1.1182
 6950SOL    HW223743   1.535   2.033   2.900 -0.5065 -0.4033 -1.2105
 6951SOL     OW23744   5.591   2.827   4.356 -0.1404 -0.0092  0.2056
 6951SOL    HW123745   5.622   2.847   4.445 -1.1869  0.5934  0.4491
 6951SOL    HW223746   5.550   2.908   4.327 -0.6016 -0.4901 -0.4916
 6952SOL     OW23747   1.232   5.188   3.471  0.0598 -0.7300 -0.0779
 6952SOL    HW123748   1.290   5.113   3.475  0.2624 -0.5282  2.4859
 6952SOL    HW223749   1.289   5.264   3.486 -0.5397 -0.3523  0.3826
 6953SOL     OW23750   8.728   6.587   1.322  0.7428 -0.7617  0.4618
 6953SOL    HW123751   8.712   6.644   1.247 -2.3531 -0.1625  1.4240
 6953SOL    HW223752   8.671   6.511   1.307  2.1427 -1.9597  0.9376
 6954SOL     OW23753   8.726   5.721   8.060 -0.3835  0.0038 -0.2380
 6954SOL    HW123754   8.813   5.714   8.021 -0.2226  0.5049  0.0166
 6954SOL    HW223755   8.671   5.663   8.008  0.4243 -1.5315  0.5442
 6955SOL     OW23756   6.400   8.081   8.844  0.5676 -0.1775 -0.3248
 6955SOL    HW123757   6.476   8.092   8.900 -0.0064  1.7672  0.1514
 6955SOL    HW223758   6.436   8.077   8.755  1.2130  1.7663 -0.1983
 6956SOL     OW23759   7.992   7.678   5.531 -0.5651  0.3775 -0.1855
 6956SOL    HW123760   8.077   7.689   5.573 -1.4915 -1.3872  2.3151
 6956SOL    HW223761   8.008   7.617   5.459  0.7621  2.3699 -1.7152
 6957SOL     OW23762   8.631   4.793   2.755 -0.2356  0.0103 -0.3735
 6957SOL    HW123763   8.648   4.798   2.849 -0.3521 -0.9876 -0.2891
 6957SOL    HW223764   8.578   4.871   2.737  0.7415  0.8210  0.1632
 6958SOL     OW23765   5.894   7.317   5.594 -0.0543 -0.1375  0.5719
 6958SOL    HW123766   5.919   7.225   5.594 -1.2470 -0.4821  1.0791
 6958SOL    HW223767   5.854   7.331   5.680 -0.5798  0.6602  0.2098
 6959SOL     OW23768   1.469   1.310   2.340  0.7647 -0.5989  0.0166
 6959SOL    HW123769   1.466   1.318   2.244  1.3385  0.0698  0.0460
 6959SOL    HW223770   1.478   1.216   2.356  0.8042 -0.7029 -0.5902
 6960SOL     OW23771   5.137   3.811   2.002  0.5394 -0.1740 -0.0463
 6960SOL    HW123772   5.113   3.731   2.047 -1.5941  0.5830  0.2621
 6960SOL    HW223773   5.184   3.863   2.067  0.6661 -0.5719  0.1807
 6961SOL     OW23774   3.617   4.221   7.468 -0.1107 -0.2166  0.3493
 6961SOL    HW123775   3.642   4.223   7.560  0.4353 -0.8758  0.2137
 6961SOL    HW223776   3.526   4.190   7.468 -0.0027 -0.5300  0.6438
 6962SOL     OW23777   3.736   1.561   6.113 -0.7935  0.3374 -0.3659
 6962SOL    HW123778   3.761   1.587   6.202 -0.2320 -0.3381 -0.3149
 6962SOL    HW223779   3.673   1.489   6.126 -0.1709 -0.2443 -0.5057
 6963SOL     OW23780   6.542   7.323   8.925  0.2876  0.1739 -0.2632
 6963SOL    HW123781   6.601   7.350   8.995 -0.2605  0.9973 -0.1093
 6963SOL    HW223782   6.526   7.403   8.875  1.9919 -0.6794 -2.3636
 6964SOL     OW23783   6.418   3.966   5.080 -0.6989 -0.0873  0.2981
 6964SOL    HW123784   6.497   3.962   5.135 -0.5086  2.0784  0.2903
 6964SOL    HW223785   6.352   3.918   5.130 -0.2939  1.0680  2.0657
 6965SOL     OW23786   6.634   4.806   5.032  0.6292  0.3258 -0.9019
 6965SOL    HW123787   6.586   4.818   4.951  0.2378 -0.6150 -0.8146
 6965SOL    HW223788   6.567   4.792   5.099  0.8835  2.1469 -0.2009
 6966SOL     OW23789   0.424   5.265   1.407 -0.0665 -0.6319 -0.4634
 6966SOL    HW123790   0.377   5.345   1.385  0.6518  0.2005  0.8551
 6966SOL    HW223791   0.472   5.242   1.327  0.1903  0.6067 -0.6921
 6967SOL     OW23792   4.352   1.826   8.060  0.3199 -0.2471 -0.3172
 6967SOL    HW123793   4.291   1.831   8.134 -0.6507 -3.1555 -0.8308
 6967SOL    HW223794   4.436   1.804   8.101  0.2354  0.1314  0.0747
 6968SOL     OW23795   8.527   2.858   0.774  0.4854 -0.2697  0.4650
 6968SOL    HW123796   8.588   2.784   0.775 -0.4777 -1.1510 -1.1371
 6968SOL    HW223797   8.541   2.900   0.689 -1.4164 -0.8049 -0.1724
 6969SOL     OW23798   3.765   8.558   6.892  0.2826  0.2554  0.5923
 6969SOL    HW123799   3.825   8.489   6.920  1.3290 -0.1674 -2.3497
 6969SOL    HW223800   3.713   8.518   6.822 -0.3449  1.9140  0.0627
 6970SOL     OW23801   0.863   9.105   5.730  0.3074  0.4505 -0.3538
 6970SOL    HW123802   0.912   9.033   5.771  0.4739  0.4784 -0.5021
 6970SOL    HW223803   0.907   9.184   5.761 -0.1441  0.5045  0.1517
 6971SOL     OW23804   5.561   5.878   3.979 -0.5888  0.1374  0.2535
 6971SOL    HW123805   5.487   5.924   3.940 -0.6874  0.7323  1.1241
 6971SOL    HW223806   5.539   5.870   4.072 -1.3890 -3.2312 -0.0811
 6972SOL     OW23807   2.263   0.849   6.177 -0.7102 -0.4515  0.0978
 6972SOL    HW123808   2.213   0.875   6.099  1.0665 -0.5363 -1.1327
 6972SOL    HW223809   2.257   0.753   6.178 -1.1786 -0.4189  0.3744
 6973SOL     OW23810   9.290   1.303   2.717 -0.3380 -0.2189 -0.6041
 6973SOL    HW123811   9.310   1.366   2.648 -2.5135 -1.3642 -2.4466
 6973SOL    HW223812   9.201   1.325   2.745 -1.2103 -2.4207 -1.3788
 6974SOL     OW23813   9.562   5.214   2.427  0.1534  0.1785  0.0375
 6974SOL    HW123814   9.649   5.176   2.437  0.2247  0.1489 -0.6385
 6974SOL    HW223815   9.572   5.305   2.455  0.3537  0.1146  0.1674
 6975SOL     OW23816   6.213   4.200   3.027  0.3603  0.3834 -0.2031
 6975SOL    HW123817   6.123   4.176   3.006  0.4795 -1.1258  0.8705
 6975SOL    HW223818   6.206   4.284   3.071 -0.6266 -0.1454  0.6918
 6976SOL     OW23819   9.141   6.861   2.447 -0.2607 -0.1775  0.0757
 6976SOL    HW123820   9.232   6.841   2.464 -0.3007 -0.0132  0.4888
 6976SOL    HW223821   9.092   6.794   2.494 -0.3639  0.0152  0.2425
 6977SOL     OW23822   6.192   0.608   2.097  0.1356 -0.1676 -0.0420
 6977SOL    HW123823   6.172   0.541   2.162  0.4544 -0.0422  0.1874
 6977SOL    HW223824   6.110   0.620   2.049  0.0592 -0.6677 -0.0378
 6978SOL     OW23825   0.206   6.582   6.162  0.1062 -0.1025  0.9527
 6978SOL    HW123826   0.185   6.665   6.204  0.9017  0.6353 -0.0575
 6978SOL    HW223827   0.201   6.600   6.069  2.4386 -0.5893  0.6744
 6979SOL     OW23828   2.617   2.281   7.991 -0.3018 -0.0752 -0.0636
 6979SOL    HW123829   2.682   2.231   8.041  3.5844  1.7654 -2.7702
 6979SOL    HW223830   2.584   2.345   8.053  1.9881  0.1686  1.0226
 6980SOL     OW23831   7.552   5.594   8.372  0.3059 -0.3456 -0.4660
 6980SOL    HW123832   7.610   5.571   8.300  0.4351 -0.8522 -0.2083
 6980SOL    HW223833   7.470   5.620   8.330  0.7861  0.5848 -0.8396
 6981SOL     OW23834   7.727   0.776   3.950  0.6138 -0.0577  0.2899
 6981SOL    HW123835   7.665   0.816   3.888  2.2063 -2.0351 -2.8697
 6981SOL    HW223836   7.782   0.849   3.979  1.6756  0.6643 -3.0877
 6982SOL     OW23837   0.366   9.471   5.883 -0.3711  0.2330  0.1149
 6982SOL    HW123838   0.412   9.450   5.964  1.0168 -1.8525 -1.0902
 6982SOL    HW223839   0.424   9.531   5.837 -1.6635  2.3137  1.0482
 6983SOL     OW23840   5.231   6.422   3.570  0.3956  0.1758 -0.2749
 6983SOL    HW123841   5.269   6.505   3.542  0.5682 -0.5338 -2.3715
 6983SOL    HW223842   5.268   6.358   3.509 -2.1182 -0.9659 -0.7059
 6984SOL     OW23843   9.387   4.588   2.097  0.0884  0.9816 -0.2096
 6984SOL    HW123844   9.424   4.675   2.085  1.2439  0.3779 -1.2726
 6984SOL    HW223845   9.462   4.528   2.088 -0.6155 -0.1150  0.7999
 6985SOL     OW23846   4.336   6.383   3.505  0.6217 -0.3743 -0.4629
 6985SOL    HW123847   4.265   6.379   3.442  0.9483 -0.8863 -0.8057
 6985SOL    HW223848   4.401   6.440   3.464  1.1189 -1.2322 -0.8922
 6986SOL     OW23849   5.648   2.698   9.077  0.1012  0.1550  0.1019
 6986SOL    HW123850   5.629   2.739   9.161 -0.6014 -1.0549  0.5551
 6986SOL    HW223851   5.575   2.725   9.020  0.0514  0.1615  0.1681
 6987SOL     OW23852   9.312   4.639   5.402  0.2386  0.4490 -0.0749
 6987SOL    HW123853   9.239   4.592   5.442 -0.3610  0.7333 -0.8214
 6987SOL    HW223854   9.312   4.612   5.310  0.0345  1.7006 -0.4666
 6988SOL     OW23855   9.414   3.458   6.621 -0.2791  0.0279  0.2192
 6988SOL    HW123856   9.344   3.452   6.685 -1.3221 -0.5512 -0.9449
 6988SOL    HW223857   9.374   3.432   6.539  1.8980 -2.8589 -0.0698
 6989SOL     OW23858   7.605   7.319   2.470  0.0851  0.1048 -0.0214
 6989SOL    HW123859   7.516   7.341   2.442 -0.5906 -1.7103  0.5606
 6989SOL    HW223860   7.644   7.403   2.495 -0.9026  1.1399 -1.7690
 6990SOL     OW23861   5.969   0.524   3.986  0.4758 -0.2192  0.5555
 6990SOL    HW123862   5.933   0.537   3.898 -1.0227  1.6726  1.3790
 6990SOL    HW223863   5.945   0.434   4.008  0.0963 -0.4291 -0.6182
 6991SOL     OW23864   5.050   6.753   4.847 -0.3830  0.2716  0.6041
 6991SOL    HW123865   4.969   6.744   4.797 -1.0324  0.9982  1.4829
 6991SOL    HW223866   5.026   6.729   4.936 -0.0763  2.0819  1.2239
 6992SOL     OW23867   7.810   8.567   5.568  0.4973  0.5481 -0.4852
 6992SOL    HW123868   7.829   8.555   5.474 -0.2012 -0.0210 -0.5583
 6992SOL    HW223869   7.747   8.499   5.589 -0.7490  1.7987 -0.0207
 6993SOL     OW23870   5.617   3.628   3.975  0.4554  0.3094  0.4984
 6993SOL    HW123871   5.691   3.660   3.923 -0.6590  1.5055 -0.4184
 6993SOL    HW223872   5.654   3.557   4.028  1.9259 -0.1005 -0.9817
 6994SOL     OW23873   2.233   5.056   6.754 -0.0330  0.0343  0.2561
 6994SOL    HW123874   2.280   4.974   6.742 -0.3743 -0.2050  0.5132
 6994SOL    HW223875   2.173   5.060   6.680  0.0110  0.0676  0.2227
 6995SOL     OW23876   8.465   8.344   4.544  0.7574  0.1401 -0.7924
 6995SOL    HW123877   8.394   8.396   4.582  3.0365  2.0567  1.1985
 6995SOL    HW223878   8.489   8.283   4.614  2.1138  0.6725 -0.7662
 6996SOL     OW23879   7.010   9.209   1.856 -0.1809 -0.3369 -0.2798
 6996SOL    HW123880   6.950   9.161   1.913  2.1780 -1.2499  1.6131
 6996SOL    HW223881   7.000   9.167   1.770 -0.7149 -1.8771  0.4966
 6997SOL     OW23882   4.992   6.352   8.684  0.1172 -0.2582  0.5300
 6997SOL    HW123883   5.059   6.417   8.660  0.2493 -0.6184 -0.0892
 6997SOL    HW223884   4.999   6.346   8.779 -0.0412  0.7934  0.6282
 6998SOL     OW23885   5.676   3.349   4.593 -0.0467  0.3106  0.2595
 6998SOL    HW123886   5.603   3.384   4.541  0.2890 -0.5379 -0.8392
 6998SOL    HW223887   5.736   3.423   4.603 -0.6000  0.7561  0.3106
 6999SOL     OW23888   5.026   4.493   6.094 -0.2586 -0.4152  0.2019
 6999SOL    HW123889   5.108   4.541   6.085 -0.1365 -0.5417  0.6111
 6999SOL    HW223890   4.958   4.561   6.088 -0.1702 -0.4008 -0.9045
 7000SOL     OW23891   0.501   3.630   2.127  0.0991  0.0579 -0.2731
 7000SOL    HW123892   0.422   3.586   2.097  0.7100 -1.5227  0.3472
 7000SOL    HW223893   0.471   3.689   2.195 -0.7706  0.8559 -1.3055
 7001SOL     OW23894   1.071   7.895   9.299  0.3292 -0.4067 -0.1417
 7001SOL    HW123895   1.023   7.978   9.296 -0.5139 -0.8802  0.0727
 7001SOL    HW223896   1.036   7.844   9.226 -0.0634 -1.0585  0.4930
 7002SOL     OW23897   5.430   1.253   5.218 -0.0667 -0.4035 -0.0089
 7002SOL    HW123898   5.462   1.340   5.244 -0.8872  0.2739 -1.1446
 7002SOL    HW223899   5.347   1.244   5.265 -1.3131  0.6179 -1.8652
 7003SOL     OW23900   5.448   6.173   3.887  0.1377 -0.4959  0.0124
 7003SOL    HW123901   5.512   6.208   3.825  0.4326 -0.5324  0.2917
 7003SOL    HW223902   5.384   6.128   3.833  0.1218 -0.1014 -0.3025
 7004SOL     OW23903   8.712   2.135   6.818  0.2669 -0.6199  0.6095
 7004SOL    HW123904   8.625   2.156   6.783 -0.3991 -0.3076  2.3316
 7004SOL    HW223905   8.755   2.220   6.829  1.4273 -0.8445 -1.6338
 7005SOL     OW23906   8.539   5.302   0.844 -0.3267  0.1021 -0.4660
 7005SOL    HW123907   8.525   5.219   0.889  1.4829  0.4435  0.7986
 7005SOL    HW223908   8.507   5.286   0.755  0.3499 -2.0880 -0.3771
 7006SOL     OW23909   2.172   4.061   3.937  0.2018  0.3697  0.1157
 7006SOL    HW123910   2.174   3.995   3.869  2.0247  1.6028 -1.1373
 7006SOL    HW223911   2.079   4.079   3.951 -0.2793 -1.5588 -0.3513
 7007SOL     OW23912   1.452   0.199   9.541 -0.1605  0.1627 -0.5139
 7007SOL    HW123913   1.448   0.268   9.607  1.2665 -0.4413  0.2316
 7007SOL    HW223914   1.458   0.118   9.591  3.9183 -0.1734 -1.2235
 7008SOL     OW23915   8.819   6.286   9.079  0.3111  0.2238  0.4087
 7008SOL    HW123916   8.837   6.201   9.119 -2.3476 -0.8858 -0.5437
 7008SOL    HW223917   8.794   6.342   9.152 -0.0730 -0.4770  0.8302
 7009SOL     OW23918   7.699   1.838   7.320 -0.1160  0.2767 -0.2020
 7009SOL    HW123919   7.615   1.878   7.300  0.4610  1.1765 -0.9147
 7009SOL    HW223920   7.736   1.893   7.389 -0.4053 -0.5276  0.6090
 7010SOL     OW23921   9.481   9.241   0.192 -0.2215 -0.6466  0.4854
 7010SOL    HW123922   9.399   9.207   0.158 -0.0352  1.0591 -1.9093
 7010SOL    HW223923   9.462   9.332   0.216  0.1318 -1.2267  3.4776
 7011SOL     OW23924   4.613   4.553   0.239  0.0410  0.6556 -0.0393
 7011SOL    HW123925   4.571   4.494   0.176  2.5860 -1.2380 -0.1213
 7011SOL    HW223926   4.702   4.565   0.205  1.7660 -0.9306  3.3722
 7012SOL     OW23927   5.147   8.744   1.175 -0.1319  0.2598 -0.1747
 7012SOL    HW123928   5.117   8.820   1.224 -0.2752 -1.4991  2.6726
 7012SOL    HW223929   5.239   8.735   1.198 -0.0885 -0.3503 -0.5665
 7013SOL     OW23930   7.335   9.440   4.679 -0.7287 -0.1588 -0.3863
 7013SOL    HW123931   7.300   9.453   4.591  0.1626 -0.4988 -0.8080
 7013SOL    HW223932   7.395   9.366   4.670  0.3857  0.6411  0.2107
 7014SOL     OW23933   6.505   0.103   2.300  0.8290 -0.5038 -0.6344
 7014SOL    HW123934   6.485   0.009   2.308  2.7796 -0.8995  0.0276
 7014SOL    HW223935   6.596   0.111   2.328  0.1212  1.9103  1.3075
 7015SOL     OW23936   8.605   3.739   6.971 -0.1438  0.2205 -0.0861
 7015SOL    HW123937   8.577   3.655   6.935 -3.7370  1.2451 -0.0646
 7015SOL    HW223938   8.659   3.778   6.903 -0.0910 -1.2424 -0.9228
 7016SOL     OW23939   4.271   1.940   8.394  0.5713  0.6198  0.5762
 7016SOL    HW123940   4.237   2.029   8.387 -0.6764  0.0715 -0.6166
 7016SOL    HW223941   4.322   1.941   8.475  1.0509  2.5577  0.2975
 7017SOL     OW23942   5.499   8.733   5.419  0.2118  0.2726 -0.4020
 7017SOL    HW123943   5.482   8.777   5.502 -0.3299 -0.1907 -0.2605
 7017SOL    HW223944   5.527   8.803   5.360 -2.1466  1.1053 -0.6336
 7018SOL     OW23945   7.585   8.675   8.759 -0.2080 -0.8143  0.7585
 7018SOL    HW123946   7.497   8.684   8.797  0.4040 -0.9274  2.2907
 7018SOL    HW223947   7.642   8.666   8.835  1.3797  1.2122 -0.1163
 7019SOL     OW23948   9.243   4.788   3.038  0.2900 -0.3541  0.2402
 7019SOL    HW123949   9.247   4.838   2.956  0.5756 -1.3183 -0.3456
 7019SOL    HW223950   9.265   4.852   3.106 -1.3114  0.7953 -0.2701
 7020SOL     OW23951   6.284   5.680   4.668  0.1871  0.3412 -0.0012
 7020SOL    HW123952   6.258   5.731   4.745 -0.6417 -0.2788  0.1421
 7020SOL    HW223953   6.374   5.652   4.688 -0.2887 -0.4699  1.1147
 7021SOL     OW23954   4.085   8.933   6.492  0.0815  0.5421 -0.5248
 7021SOL    HW123955   4.106   8.913   6.584  2.4273  0.4968 -1.0076
 7021SOL    HW223956   3.993   8.958   6.494  0.0635  0.5771  1.8554
 7022SOL     OW23957   3.198   3.012   6.982 -0.1926 -0.2005 -0.2731
 7022SOL    HW123958   3.110   2.977   6.992 -0.6625  0.6617 -1.1479
 7022SOL    HW223959   3.185   3.100   6.944  1.0528 -0.3628 -1.1574
 7023SOL     OW23960   5.560   7.438   2.282 -0.0950 -0.3122 -0.7033
 7023SOL    HW123961   5.481   7.401   2.243 -0.0444 -1.2710  0.0589
 7023SOL    HW223962   5.612   7.362   2.307  0.3942  0.2897  0.1646
 7024SOL     OW23963   2.749   2.464   3.689  0.5270 -0.7470 -0.0635
 7024SOL    HW123964   2.718   2.386   3.735 -0.9022 -0.4084 -0.4026
 7024SOL    HW223965   2.681   2.529   3.704  1.0303  0.0003 -0.9545
 7025SOL     OW23966   0.482   3.509   0.427 -0.1945  0.2730 -0.2649
 7025SOL    HW123967   0.504   3.442   0.492 -1.2795  0.8360  0.7187
 7025SOL    HW223968   0.546   3.496   0.357 -1.0004 -2.4881 -0.6246
 7026SOL     OW23969   2.792   7.392   3.075 -0.1748 -0.2865  0.2865
 7026SOL    HW123970   2.776   7.456   3.005 -1.5134 -1.9872 -1.0440
 7026SOL    HW223971   2.706   7.352   3.090  1.0021 -3.4035 -0.6323
 7027SOL     OW23972   5.135   5.419   7.581  0.4995  0.0486  0.3705
 7027SOL    HW123973   5.193   5.486   7.546 -0.1614  0.8135  0.7124
 7027SOL    HW223974   5.174   5.395   7.665  0.2684  0.6490  0.6553
 7028SOL     OW23975   8.377   0.496   7.601 -0.2856  0.2055 -0.5250
 7028SOL    HW123976   8.336   0.576   7.569  0.8263  1.3156  0.6545
 7028SOL    HW223977   8.410   0.519   7.688  0.3190 -1.4575 -0.2639
 7029SOL     OW23978   4.559   4.214   1.596  0.2370  0.1387 -0.0211
 7029SOL    HW123979   4.610   4.295   1.596  2.2965 -1.0882  0.2683
 7029SOL    HW223980   4.543   4.195   1.689  3.1303 -1.6998  0.2208
 7030SOL     OW23981   8.053   6.016   8.744 -0.4565  0.4735  0.1297
 7030SOL    HW123982   8.068   6.016   8.650 -0.1289 -1.8127  0.1176
 7030SOL    HW223983   8.135   5.983   8.781 -0.8922  0.4698  1.1338
 7031SOL     OW23984   8.432   7.734   4.635  0.2171 -0.0323  0.4474
 7031SOL    HW123985   8.485   7.655   4.622 -0.5125 -0.3343 -0.8097
 7031SOL    HW223986   8.358   7.724   4.575  0.9145  2.3146 -0.9340
 7032SOL     OW23987   9.064   4.175   6.700 -0.6535 -0.3164 -0.9548
 7032SOL    HW123988   9.139   4.234   6.697 -1.4021  0.7707  0.6962
 7032SOL    HW223989   9.104   4.088   6.713  0.3350  0.1400 -0.8145
 7033SOL     OW23990   3.643   1.251   4.158 -0.0492 -0.1427 -0.0183
 7033SOL    HW123991   3.717   1.272   4.102 -0.6008 -1.6741 -1.4134
 7033SOL    HW223992   3.583   1.325   4.147  0.5033  0.2798 -0.2526
 7034SOL     OW23993   6.889   5.571   3.000  0.0669  0.0980  0.6612
 7034SOL    HW123994   6.917   5.639   3.061  0.4303 -0.4113  1.0676
 7034SOL    HW223995   6.970   5.537   2.962 -0.0995 -0.2475  0.6116
 7035SOL     OW23996   1.961   0.196   2.020  0.5400 -0.3529 -0.1401
 7035SOL    HW123997   1.878   0.242   2.005  0.4966 -0.2234  0.4886
 7035SOL    HW223998   2.027   0.265   2.017  0.5560 -0.3613  0.0233
 7036SOL     OW23999   0.835   1.218   5.423 -0.3170 -0.0947  0.1365
 7036SOL    HW124000   0.785   1.146   5.461 -2.2193  0.6718 -0.7853
 7036SOL    HW224001   0.832   1.287   5.490  1.0613 -0.6527  0.8049
 7037SOL     OW24002   1.351   8.774   6.047  0.1376 -0.2405  0.1841
 7037SOL    HW124003   1.368   8.856   6.092  0.0885  0.5463 -1.1751
 7037SOL    HW224004   1.319   8.715   6.116 -2.8129  1.7868  0.7244
 7038SOL     OW24005   2.746   0.812   0.034  0.0222  0.4055  0.3612
 7038SOL    HW124006   2.735   0.726   0.076  0.0195  0.9939  1.6087
 7038SOL    HW224007   2.826   0.847   0.072  1.0750  0.1924 -1.5539
 7039SOL     OW24008   6.881   0.774   0.336 -0.1066 -0.4027  0.0669
 7039SOL    HW124009   6.801   0.823   0.320  0.0814 -0.5503 -1.4968
 7039SOL    HW224010   6.906   0.740   0.250  0.5073 -2.1035  0.8781
 7040SOL     OW24011   7.348   5.798   5.917 -0.0579 -0.7238  0.1715
 7040SOL    HW124012   7.371   5.711   5.949  1.0666  0.2001  2.0324
 7040SOL    HW224013   7.432   5.845   5.913 -0.7832  0.6298  0.3300
 7041SOL     OW24014   3.650   5.478   4.395  0.3644 -0.2497 -0.4958
 7041SOL    HW124015   3.687   5.494   4.482  0.7772 -1.3829 -0.4407
 7041SOL    HW224016   3.578   5.417   4.410  0.0552  0.0126 -0.8896
 7042SOL     OW24017   5.606   8.037   3.799 -0.2144  0.1411  0.1833
 7042SOL    HW124018   5.546   8.097   3.842  0.7944  0.1362  1.6620
 7042SOL    HW224019   5.615   8.072   3.710 -1.6479  0.6588  0.2165
 7043SOL     OW24020   1.179   1.819   9.120  0.4493  0.0858 -0.0006
 7043SOL    HW124021   1.179   1.781   9.207 -1.5286  0.6087  0.2720
 7043SOL    HW224022   1.265   1.860   9.111  0.7229 -0.0872  1.6459
 7044SOL     OW24023   7.188   5.530   0.076 -0.4448  0.3167 -0.4545
 7044SOL    HW124024   7.279   5.507   0.096 -0.2683  0.5311 -0.9989
 7044SOL    HW224025   7.161   5.584   0.151 -0.1601  0.1648 -0.2391
 7045SOL     OW24026   5.731   0.412   1.812  0.1986 -0.6889 -0.5818
 7045SOL    HW124027   5.739   0.495   1.765 -0.6921 -0.6130 -0.6127
 7045SOL    HW224028   5.822   0.384   1.826  0.5098  0.1828 -0.7513
 7046SOL     OW24029   0.792   8.985   8.649 -0.1569  0.3054 -0.4129
 7046SOL    HW124030   0.823   9.002   8.738  1.1088 -1.8581 -0.3690
 7046SOL    HW224031   0.833   9.053   8.595  0.9274  0.2575  0.3310
 7047SOL     OW24032   7.924   9.476   6.559  0.2486  0.3939  0.2172
 7047SOL    HW124033   7.844   9.487   6.610 -0.6575 -0.6608 -0.9334
 7047SOL    HW224034   7.991   9.454   6.625 -0.8446 -0.7057  1.0009
 7048SOL     OW24035   3.435   1.649   0.807 -0.1800 -0.1201 -0.0125
 7048SOL    HW124036   3.509   1.596   0.836 -1.4056 -0.5729  2.4730
 7048SOL    HW224037   3.370   1.586   0.778 -0.6119  0.1589  0.3443
 7049SOL     OW24038   1.762   7.454   1.996  0.1040 -0.0409 -0.3589
 7049SOL    HW124039   1.821   7.389   2.035  1.2138  1.0312 -0.1967
 7049SOL    HW224040   1.701   7.402   1.944  0.5329 -1.2654  0.3078
 7050SOL     OW24041   0.843   7.866   3.116 -0.1657 -0.2894  0.2416
 7050SOL    HW124042   0.866   7.793   3.173  0.7989  0.2831  0.6164
 7050SOL    HW224043   0.907   7.861   3.044  1.2624  1.3455  1.3096
 7051SOL     OW24044   6.754   3.168   3.270  0.0645 -0.2155  0.0131
 7051SOL    HW124045   6.778   3.233   3.336  0.2097 -0.2617  0.0078
 7051SOL    HW224046   6.678   3.123   3.306 -1.1237  1.1026 -0.7296
 7052SOL     OW24047   0.636   5.629   8.160  0.0738 -0.0804  0.1856
 7052SOL    HW124048   0.698   5.627   8.233 -0.2859  1.3981  0.5604
 7052SOL    HW224049   0.653   5.712   8.116  0.8449 -1.3009 -1.9569
 7053SOL     OW24050   0.417   1.847   2.946 -0.8724  0.2989  0.4416
 7053SOL    HW124051   0.382   1.778   3.002 -0.4226  0.2909  0.7209
 7053SOL    HW224052   0.347   1.913   2.941 -1.3736 -0.2573  0.0232
 7054SOL     OW24053   3.722   1.054   0.614 -0.4814 -0.2305 -0.2523
 7054SOL    HW124054   3.637   1.071   0.655 -0.9046 -1.0705 -0.7746
 7054SOL    HW224055   3.785   1.064   0.685 -1.2201 -1.8485  0.6716
 7055SOL     OW24056   7.716   0.380   0.758  0.9781 -0.2803 -0.0728
 7055SOL    HW124057   7.680   0.291   0.759  0.7848 -0.2003  0.2217
 7055SOL    HW224058   7.762   0.386   0.674 -1.1721  0.2018 -1.2999
 7056SOL     OW24059   7.371   1.758   3.703 -0.3145  0.5240  0.0641
 7056SOL    HW124060   7.404   1.670   3.684  2.6114  1.4389  0.3211
 7056SOL    HW224061   7.413   1.782   3.785 -1.4037  1.9969  0.2191
 7057SOL     OW24062   3.597   1.447   2.373 -0.3958  0.2042  0.2216
 7057SOL    HW124063   3.648   1.428   2.452 -1.6242 -1.0649  0.7708
 7057SOL    HW224064   3.647   1.408   2.302 -0.7099 -1.2887  0.7873
 7058SOL     OW24065   8.646   8.542   7.206  0.0888 -0.3725 -0.1326
 7058SOL    HW124066   8.728   8.525   7.160  1.1423 -0.4672  1.6710
 7058SOL    HW224067   8.664   8.518   7.297 -2.1519 -1.0018  0.2019
 7059SOL     OW24068   1.581   4.191   6.956  0.4798 -0.4471  0.1942
 7059SOL    HW124069   1.671   4.166   6.975  0.5403 -2.5337 -2.2185
 7059SOL    HW224070   1.528   4.144   7.020  1.0104 -0.7937  0.3779
 7060SOL     OW24071   5.625   6.555   2.479  0.0368  0.1611  0.0631
 7060SOL    HW124072   5.677   6.488   2.524  3.7435  2.0483 -0.9550
 7060SOL    HW224073   5.686   6.592   2.415 -3.2868  1.3117 -2.7211
 7061SOL     OW24074   9.035   0.467   7.188  0.0607 -0.0178  0.3526
 7061SOL    HW124075   9.002   0.445   7.274  0.8102  0.4410  0.7702
 7061SOL    HW224076   9.042   0.384   7.142 -1.1318 -0.1753  0.4401
 7062SOL     OW24077   3.255   1.784   0.969 -0.0858  0.5032  0.2099
 7062SOL    HW124078   3.237   1.703   1.016  0.0506 -0.2089 -0.9169
 7062SOL    HW224079   3.329   1.762   0.911  0.0706  1.4814  0.0254
 7063SOL     OW24080   4.302   1.629   9.561  0.9939 -0.6695 -0.0662
 7063SOL    HW124081   4.272   1.639   9.651  0.3461 -0.0699 -0.3356
 7063SOL    HW224082   4.387   1.672   9.559  0.4250  0.4882 -0.0405
 7064SOL     OW24083   1.773   3.870   6.470 -0.0056  0.0570 -0.2294
 7064SOL    HW124084   1.821   3.884   6.389 -1.3298  0.6171 -0.9576
 7064SOL    HW224085   1.746   3.957   6.498 -1.1166 -0.2752 -0.1953
 7065SOL     OW24086   6.265   6.447   2.845 -0.2147  0.1551  0.2765
 7065SOL    HW124087   6.233   6.437   2.756 -0.7911  0.1630  0.4779
 7065SOL    HW224088   6.347   6.397   2.848 -0.0162  0.4376 -0.3466
 7066SOL     OW24089   8.089   4.265   3.552 -0.0384 -0.1608  0.2336
 7066SOL    HW124090   8.176   4.286   3.517 -0.3253  0.1986 -0.2789
 7066SOL    HW224091   8.085   4.312   3.636 -0.3904  1.2860 -0.5507
 7067SOL     OW24092   9.024   4.340   3.906  0.1743  0.3953  0.0534
 7067SOL    HW124093   8.930   4.347   3.923  0.3253  1.3526  0.5373
 7067SOL    HW224094   9.053   4.429   3.889  0.9502  0.0711 -0.3933
 7068SOL     OW24095   0.298   7.903   8.338  0.0253 -0.5424 -0.2394
 7068SOL    HW124096   0.266   7.964   8.271 -0.9879  1.0225  1.5606
 7068SOL    HW224097   0.223   7.848   8.359 -0.2374  0.2263  0.9092
 7069SOL     OW24098   2.362   3.763   3.087 -0.4439 -0.0158  0.0763
 7069SOL    HW124099   2.381   3.844   3.041 -0.6653  0.4505  0.7912
 7069SOL    HW224100   2.282   3.730   3.045 -0.2801  0.0642 -0.3008
 7070SOL     OW24101   2.633   2.702   8.050  0.2902 -0.8311  0.1470
 7070SOL    HW124102   2.561   2.736   7.997  1.4460 -0.7577 -1.4832
 7070SOL    HW224103   2.593   2.636   8.107 -1.3653  0.5790  0.7157
 7071SOL     OW24104   3.868   9.507   9.570 -0.4688 -0.1663 -0.3285
 7071SOL    HW124105   3.842   9.459   9.491  0.1557 -1.2208  0.0820
 7071SOL    HW224106   3.850   9.599   9.549 -1.0533 -0.4994 -1.3986
 7072SOL     OW24107   1.656   1.070   7.319  0.0057 -0.1546  0.4533
 7072SOL    HW124108   1.670   0.987   7.274 -1.6110  0.3237 -1.0090
 7072SOL    HW224109   1.718   1.130   7.278 -0.4404 -0.0820 -0.1222
 7073SOL     OW24110   0.945   8.198   7.113 -0.1126  0.5449  0.5167
 7073SOL    HW124111   1.000   8.176   7.038  1.8481  1.3054  1.6415
 7073SOL    HW224112   0.881   8.260   7.079  1.2850  1.5472 -0.4030
 7074SOL     OW24113   1.423   2.046   9.589 -0.0080 -0.2546 -0.0472
 7074SOL    HW124114   1.347   2.083   9.545  1.4670  0.7663 -1.8583
 7074SOL    HW224115   1.478   2.012   9.518  1.4826 -0.4827  1.1714
 7075SOL     OW24116   2.552   3.174   2.253 -0.0788  0.2575 -0.2843
 7075SOL    HW124117   2.584   3.216   2.332  1.2531  1.5071 -1.4314
 7075SOL    HW224118   2.559   3.080   2.270  0.8287  0.5159  0.8132
 7076SOL     OW24119   9.473   7.242   7.713 -0.4650  0.6400 -0.2479
 7076SOL    HW124120   9.493   7.209   7.625 -0.8171 -0.1823 -0.0245
 7076SOL    HW224121   9.428   7.170   7.756  1.5957  0.2281  1.3481
 7077SOL     OW24122   0.520   8.911   7.194  0.3115 -0.3532  0.1706
 7077SOL    HW124123   0.553   8.950   7.275  1.2641 -1.9361  0.5799
 7077SOL    HW224124   0.590   8.924   7.131  0.1229 -0.3259 -0.0364
 7078SOL     OW24125   4.585   9.089   7.254 -0.1832 -1.3716  0.0114
 7078SOL    HW124126   4.606   9.044   7.172  0.9180 -0.3078 -0.3182
 7078SOL    HW224127   4.662   9.077   7.309  0.2971  0.3834 -0.2196
 7079SOL     OW24128   4.202   1.893   7.253 -0.0520 -0.3189 -0.2863
 7079SOL    HW124129   4.210   1.936   7.338  2.5837 -1.3864  0.1321
 7079SOL    HW224130   4.284   1.915   7.208 -1.6878  0.8004 -2.8822
 7080SOL     OW24131   6.375   0.772   4.213  0.4677  0.1370 -0.2884
 7080SOL    HW124132   6.340   0.772   4.301  1.7989  1.3599  0.2842
 7080SOL    HW224133   6.468   0.794   4.224  0.3526  1.7797 -2.0766
 7081SOL     OW24134   1.859   2.582   1.937  0.2837  0.5249 -0.0280
 7081SOL    HW124135   1.834   2.495   1.968  0.0525  0.5089 -0.2656
 7081SOL    HW224136   1.817   2.592   1.852  0.3561  0.8477 -0.0305
 7082SOL     OW24137   8.376   9.181   3.977 -0.7212  0.7594  0.2488
 7082SOL    HW124138   8.290   9.191   3.937  0.3738 -1.7935 -3.2005
 7082SOL    HW224139   8.437   9.209   3.909  1.2323 -0.7281  1.2977
 7083SOL     OW24140   1.584   3.314   6.804 -0.0048 -0.1298  0.1496
 7083SOL    HW124141   1.607   3.406   6.789  0.5178 -0.5076 -1.6780
 7083SOL    HW224142   1.532   3.314   6.884  1.6283  1.4999  1.2768
 7084SOL     OW24143   4.418   9.080   4.244  0.3355 -0.3753 -0.3880
 7084SOL    HW124144   4.405   9.013   4.177  0.5531  0.8122 -1.6774
 7084SOL    HW224145   4.334   9.087   4.288  0.6917 -2.4377  0.7176
 7085SOL     OW24146   8.256   9.371   9.075  0.2772 -0.1732  0.0487
 7085SOL    HW124147   8.253   9.293   9.131 -1.6122  1.2922  2.1915
 7085SOL    HW224148   8.318   9.430   9.120 -0.0956  0.4425 -0.2319
 7086SOL     OW24149   4.083   1.653   0.594 -0.1829  0.6307 -0.0446
 7086SOL    HW124150   4.104   1.589   0.662 -1.4868  0.1249 -0.0905
 7086SOL    HW224151   4.047   1.728   0.641 -1.9205 -0.0633 -0.1787
 7087SOL     OW24152   8.746   8.195   2.414 -0.3318 -0.1567 -0.0748
 7087SOL    HW124153   8.760   8.207   2.320 -1.1226 -1.7125 -0.4326
 7087SOL    HW224154   8.779   8.106   2.431 -0.0104  0.1796  1.1716
 7088SOL     OW24155   0.768   5.187   0.979 -0.5549  0.2072 -0.2093
 7088SOL    HW124156   0.728   5.107   0.946 -1.5360  0.5949 -0.0188
 7088SOL    HW224157   0.782   5.170   1.072 -3.4920  1.2180  0.5356
 7089SOL     OW24158   8.724   8.263   1.853  0.3426 -0.3479 -1.0947
 7089SOL    HW124159   8.786   8.271   1.925 -0.9353 -2.2918  0.3565
 7089SOL    HW224160   8.737   8.174   1.820 -2.2382 -1.2139 -0.0596
 7090SOL     OW24161   2.020   2.824   7.265 -0.1423 -0.4465  0.1923
 7090SOL    HW124162   1.990   2.819   7.175 -1.5464  0.5551  0.5727
 7090SOL    HW224163   1.955   2.774   7.315 -0.4990  0.6537  0.8720
 7091SOL     OW24164   5.803   8.923   8.848  0.7994 -0.4381 -0.4079
 7091SOL    HW124165   5.834   9.013   8.835  0.7230 -0.2804  0.4354
 7091SOL    HW224166   5.882   8.870   8.843  1.4512  0.0321  2.4887
 7092SOL     OW24167   2.731   8.470   3.338  0.1761 -0.1280 -0.3300
 7092SOL    HW124168   2.701   8.526   3.410  0.0593  2.0078 -1.9276
 7092SOL    HW224169   2.653   8.459   3.284  1.1093  1.6446 -2.1473
 7093SOL     OW24170   6.731   4.531   2.624  0.0355  0.4146  0.1867
 7093SOL    HW124171   6.679   4.567   2.696  0.7521  0.4626  0.6887
 7093SOL    HW224172   6.674   4.465   2.584 -0.2681  0.1867  0.9777
 7094SOL     OW24173   7.689   6.750   5.417 -0.0589  0.5726  0.1010
 7094SOL    HW124174   7.683   6.654   5.422 -1.2568  0.5796 -0.6691
 7094SOL    HW224175   7.764   6.766   5.360 -0.6303  0.0380 -0.8377
 7095SOL     OW24176   8.204   8.810   6.276 -0.3847  0.3254 -0.2569
 7095SOL    HW124177   8.298   8.827   6.279 -0.4151  1.2334 -2.4966
 7095SOL    HW224178   8.167   8.867   6.344  0.6344  0.2445  0.3846
 7096SOL     OW24179   6.308   0.172   8.829 -0.3085  0.5635  0.1781
 7096SOL    HW124180   6.311   0.264   8.805 -0.0364  0.5848  0.2872
 7096SOL    HW224181   6.348   0.126   8.755  2.6445  0.8160  1.4755
 7097SOL     OW24182   9.481   6.246   0.812  0.3685  0.4188 -0.2069
 7097SOL    HW124183   9.508   6.337   0.824 -0.7957  0.6033  1.4214
 7097SOL    HW224184   9.521   6.200   0.886 -1.1649  0.1386  0.4796
 7098SOL     OW24185   4.805   0.450   3.396  0.5477  0.0930  0.0045
 7098SOL    HW124186   4.720   0.455   3.440  0.4055 -0.6597 -0.1757
 7098SOL    HW224187   4.793   0.383   3.328  1.1071  0.4150 -0.4228
 7099SOL     OW24188   6.473   6.382   4.373 -0.4299 -0.2962 -0.3415
 7099SOL    HW124189   6.482   6.365   4.279  0.2141  0.7371 -0.4845
 7099SOL    HW224190   6.417   6.460   4.378 -1.3011 -0.9384  0.1825
 7100SOL     OW24191   1.649   4.399   1.743  0.0206  0.4760  0.1070
 7100SOL    HW124192   1.641   4.387   1.649  2.7936 -1.2818 -0.0431
 7100SOL    HW224193   1.563   4.375   1.778 -0.6031 -0.3828 -1.8778
 7101SOL     OW24194   8.798   0.393   6.921  0.4221  0.1246  0.3491
 7101SOL    HW124195   8.858   0.467   6.912  0.6036 -0.1318 -0.7107
 7101SOL    HW224196   8.741   0.416   6.994 -0.5135  2.0180 -0.8996
 7102SOL     OW24197   6.509   5.869   6.558  0.0666 -0.1102  0.0739
 7102SOL    HW124198   6.591   5.901   6.521  0.4047 -0.0225  0.8809
 7102SOL    HW224199   6.443   5.930   6.527  0.3640  0.0465 -0.2578
 7103SOL     OW24200   8.388   8.689   5.405  0.3337  0.1723  0.1076
 7103SOL    HW124201   8.313   8.711   5.461 -1.0250  0.5223 -1.7691
 7103SOL    HW224202   8.406   8.769   5.356  2.8659  0.5219  1.4413
 7104SOL     OW24203   7.840   5.434   7.522  0.4434  0.0963 -0.0773
 7104SOL    HW124204   7.858   5.430   7.428  1.2111  0.9933  0.0161
 7104SOL    HW224205   7.926   5.427   7.563  0.1578  0.1922  0.5490
 7105SOL     OW24206   2.403   1.814   7.560 -0.5893  0.5076  0.6727
 7105SOL    HW124207   2.320   1.770   7.539 -0.9513 -0.0283  2.9203
 7105SOL    HW224208   2.404   1.818   7.656  1.2693  1.9376  0.6515
 7106SOL     OW24209   1.077   0.528   0.882 -0.1411  0.0212  0.3090
 7106SOL    HW124210   1.063   0.596   0.948  3.3702  0.9231  0.3142
 7106SOL    HW224211   1.080   0.446   0.931  0.3309  0.4493  1.0083
 7107SOL     OW24212   4.618   1.715   5.829 -0.0295 -0.1008  0.8678
 7107SOL    HW124213   4.542   1.738   5.882  0.1634  2.4845  0.1428
 7107SOL    HW224214   4.607   1.765   5.748  1.9806 -0.3719  0.3687
 7108SOL     OW24215   6.366   3.973   3.081  0.3285  0.0583  0.1467
 7108SOL    HW124216   6.314   4.051   3.064  0.9211 -0.0991 -2.8672
 7108SOL    HW224217   6.449   3.988   3.036  1.0533 -1.6798  0.7918
 7109SOL     OW24218   7.676   7.046   3.071 -0.0626 -0.1218  0.7065
 7109SOL    HW124219   7.744   6.981   3.052 -0.2467 -1.0109  2.7672
 7109SOL    HW224220   7.705   7.125   3.026  1.2086 -1.0868 -0.2492
 7110SOL     OW24221   4.744   2.979   7.232 -0.0223  0.3538 -0.4904
 7110SOL    HW124222   4.773   2.898   7.190 -2.6028 -0.1409 -1.5074
 7110SOL    HW224223   4.675   2.951   7.292 -0.3927  1.7184 -0.2451
 7111SOL     OW24224   5.677   4.148   4.276 -0.1889 -0.2266  0.0331
 7111SOL    HW124225   5.768   4.160   4.303 -0.7793  0.3252  1.9706
 7111SOL    HW224226   5.664   4.210   4.204  0.5655  0.8292  0.7726
 7112SOL     OW24227   9.059   2.900   5.830 -0.0267 -0.2383 -0.1234
 7112SOL    HW124228   9.134   2.878   5.885 -2.8429 -0.5120  4.1390
 7112SOL    HW224229   9.055   2.831   5.764  3.1608 -0.3767 -0.3049
 7113SOL     OW24230   3.337   2.415   6.015 -0.0953  0.0267 -0.6084
 7113SOL    HW124231   3.408   2.441   5.956 -0.0512  1.5821  0.0903
 7113SOL    HW224232   3.284   2.494   6.026 -0.4501 -0.3939  0.9477
 7114SOL     OW24233   1.390   9.008   2.491  0.1490  0.2230 -0.1751
 7114SOL    HW124234   1.470   9.039   2.448  1.8876 -0.4638  2.3205
 7114SOL    HW224235   1.320   9.056   2.448  1.8165  0.5347 -2.7958
 7115SOL     OW24236   7.376   0.140   3.791 -0.1833  0.1198  0.3700
 7115SOL    HW124237   7.316   0.147   3.717  0.7449 -2.4956 -0.7688
 7115SOL    HW224238   7.425   0.221   3.791 -1.3676  0.8780 -0.8170
 7116SOL     OW24239   4.442   5.928   7.922 -0.7333  0.0139  0.4376
 7116SOL    HW124240   4.519   5.939   7.867 -1.8592  1.6866 -0.9135
 7116SOL    HW224241   4.411   5.839   7.903  0.1122 -0.1981  0.0083
 7117SOL     OW24242   7.416   7.151   9.377  0.2606 -0.3568  0.3303
 7117SOL    HW124243   7.497   7.177   9.420  0.7075 -2.3932  0.8494
 7117SOL    HW224244   7.398   7.220   9.313  1.1984  1.2375  1.7161
 7118SOL     OW24245   3.290   5.845   6.314  0.2073 -0.3173  0.2423
 7118SOL    HW124246   3.335   5.929   6.305 -0.3805 -0.0261 -0.0540
 7118SOL    HW224247   3.355   5.787   6.355  0.5994  0.2926  0.5053
 7119SOL     OW24248   0.568   1.625   8.985  0.5992 -0.2883 -0.0873
 7119SOL    HW124249   0.573   1.720   8.993  2.4930 -0.3231 -0.3431
 7119SOL    HW224250   0.539   1.610   8.895 -0.7294  0.0093  0.2579
 7120SOL     OW24251   4.763   3.033   1.933  0.0405  0.0599 -0.1231
 7120SOL    HW124252   4.719   2.982   2.000 -0.2765  0.9885  0.3926
 7120SOL    HW224253   4.856   3.023   1.953  0.0494 -1.1617 -0.6688
 7121SOL     OW24254   8.486   3.808   5.297  0.4286 -0.0218  0.0969
 7121SOL    HW124255   8.453   3.772   5.379 -2.6138  3.5636  0.7348
 7121SOL    HW224256   8.413   3.796   5.235  0.7070  1.7298 -0.6146
 7122SOL     OW24257   9.608   0.277   1.904  0.3230  0.3948 -0.5403
 7122SOL    HW124258   9.671   0.238   1.844  2.3245 -0.3444  1.8827
 7122SOL    HW224259   9.591   0.210   1.969 -0.3644  1.7289  0.7298
 7123SOL     OW24260   1.230   7.221   1.546  0.2434  0.0326  0.1938
 7123SOL    HW124261   1.214   7.199   1.637 -0.4649  3.8624  1.1891
 7123SOL    HW224262   1.142   7.221   1.506  0.2071  0.9799  0.2536
 7124SOL     OW24263   8.367   2.754   7.674 -0.1670  0.2182 -0.0192
 7124SOL    HW124264   8.343   2.661   7.677  1.4259 -0.2040  0.9840
 7124SOL    HW224265   8.462   2.754   7.667 -0.2454  1.8011 -1.9953
 7125SOL     OW24266   3.941   7.270   7.681  0.0934  0.3702  0.3764
 7125SOL    HW124267   3.902   7.194   7.724  0.5018 -1.0870 -1.6804
 7125SOL    HW224268   4.021   7.287   7.731 -0.1387 -0.3868  1.0276
 7126SOL     OW24269   7.284   4.002   2.010  0.0484 -0.4430 -0.4895
 7126SOL    HW124270   7.271   3.998   1.915  0.5993  0.0402 -0.5889
 7126SOL    HW224271   7.377   3.986   2.022 -0.0012 -0.3993 -0.0303
 7127SOL     OW24272   7.445   9.569   1.936  0.0222 -0.1956 -0.4275
 7127SOL    HW124273   7.500   9.647   1.935 -1.9241  1.2909  0.0747
 7127SOL    HW224274   7.388   9.582   2.012 -0.3092 -2.1649 -0.3000
 7128SOL     OW24275   4.203   0.637   4.564 -0.1578 -0.2596  0.3619
 7128SOL    HW124276   4.297   0.652   4.562 -0.4103  1.9325  1.6595
 7128SOL    HW224277   4.194   0.543   4.583  1.7104 -0.7842 -1.1224
 7129SOL     OW24278   3.149   3.078   3.485  0.4395  0.4490  0.1516
 7129SOL    HW124279   3.216   3.103   3.422 -0.0662  0.3382 -0.4453
 7129SOL    HW224280   3.157   2.983   3.493 -0.7666  0.1746 -1.2819
 7130SOL     OW24281   1.031   3.324   3.322  0.2359  0.1653 -0.0384
 7130SOL    HW124282   0.982   3.274   3.257  2.4306  0.2951 -1.9034
 7130SOL    HW224283   1.090   3.379   3.271 -0.0069  2.5022  2.0312
 7131SOL     OW24284   8.251   3.705   3.890  0.6182  0.0964 -0.2113
 7131SOL    HW124285   8.186   3.681   3.823  3.3155 -1.5548 -2.4737
 7131SOL    HW224286   8.249   3.801   3.892 -2.0195  0.0946  0.0407
 7132SOL     OW24287   2.422   4.770   0.393 -0.0722  0.3855  0.2799
 7132SOL    HW124288   2.376   4.849   0.363 -0.9167 -0.7793 -1.7003
 7132SOL    HW224289   2.491   4.756   0.328 -0.8064 -1.2280 -0.2142
 7133SOL     OW24290   4.805   8.535   3.619  0.2740 -0.0675  0.3078
 7133SOL    HW124291   4.874   8.472   3.596  1.3256  0.3043  2.1633
 7133SOL    HW224292   4.850   8.620   3.618 -0.1705  0.1920  1.4789
 7134SOL     OW24293   4.054   6.723   4.519  0.2427  0.2637 -0.3906
 7134SOL    HW124294   3.996   6.773   4.462  0.5044  1.4224  0.3353
 7134SOL    HW224295   4.009   6.719   4.603  0.8059  0.4095 -0.0748
 7135SOL     OW24296   4.934   1.562   7.531 -0.2828 -0.5885  0.4251
 7135SOL    HW124297   4.995   1.497   7.568  0.4333  0.0363  0.3665
 7135SOL    HW224298   4.981   1.645   7.538 -1.6886  0.1606  1.7122
 7136SOL     OW24299   7.212   2.858   1.077 -0.0265  0.3423 -0.4799
 7136SOL    HW124300   7.261   2.861   1.159 -1.7142 -0.5319  0.6333
 7136SOL    HW224301   7.266   2.906   1.014  1.9485 -0.1185  0.7848
 7137SOL     OW24302   0.130   7.382   1.147  0.6293  0.0626 -1.2970
 7137SOL    HW124303   0.215   7.393   1.104  0.0374  1.0529 -2.2791
 7137SOL    HW224304   0.108   7.470   1.178 -0.6201  0.1026 -2.2160
 7138SOL     OW24305   8.672   6.755   8.958 -0.3280  0.4500  0.6162
 7138SOL    HW124306   8.676   6.851   8.967 -1.5396  0.3879  2.1696
 7138SOL    HW224307   8.614   6.727   9.028 -0.2749 -1.4154 -0.0433
 7139SOL     OW24308   0.887   7.835   1.328  0.1709  0.4899 -0.5628
 7139SOL    HW124309   0.810   7.791   1.293 -0.3659 -1.4475  2.6041
 7139SOL    HW224310   0.928   7.769   1.384  3.5464  1.8240 -1.2110
 7140SOL     OW24311   5.398   2.147   6.957 -0.4630 -0.0716  0.2159
 7140SOL    HW124312   5.490   2.145   6.983 -0.8156  0.8084  1.6718
 7140SOL    HW224313   5.371   2.238   6.973 -1.6180 -0.3543 -0.0404
 7141SOL     OW24314   1.672   3.420   0.723 -0.5167 -0.0006  0.5287
 7141SOL    HW124315   1.697   3.373   0.802 -1.4845 -1.3703  0.0584
 7141SOL    HW224316   1.751   3.467   0.697 -0.0456  0.0751  2.0113
 7142SOL     OW24317   5.073   0.199   6.634 -0.0308  0.3361 -0.3999
 7142SOL    HW124318   5.165   0.185   6.657  0.5496  1.3735 -1.9272
 7142SOL    HW224319   5.066   0.165   6.545 -0.8730  1.1869 -0.6651
 7143SOL     OW24320   2.921   3.286   1.696  0.0699 -0.4356  0.0516
 7143SOL    HW124321   2.974   3.307   1.620  0.0928 -1.9064 -0.3734
 7143SOL    HW224322   2.951   3.346   1.764  1.0456 -0.0760 -0.6802
 7144SOL     OW24323   4.501   5.543   4.354  0.3502  0.1139  0.7269
 7144SOL    HW124324   4.549   5.465   4.326 -0.3968  0.0654 -0.4736
 7144SOL    HW224325   4.547   5.573   4.432  1.4366 -0.7790  0.4463
 7145SOL     OW24326   4.021   4.878   7.240  0.0116 -0.2325 -0.6475
 7145SOL    HW124327   4.083   4.933   7.193  0.6047 -0.3437 -0.0226
 7145SOL    HW224328   3.951   4.938   7.268  0.8169  0.2822  0.3122
 7146SOL     OW24329   1.801   5.365   5.166 -0.0066  0.1655  0.6184
 7146SOL    HW124330   1.834   5.279   5.139  0.9097  0.4805  0.7107
 7146SOL    HW224331   1.857   5.389   5.240 -0.3249  0.7985  0.6508
 7147SOL     OW24332   5.428   8.545   9.609  0.3998  0.2977  0.2876
 7147SOL    HW124333   5.429   8.631   9.567  0.7598 -0.7656 -1.9825
 7147SOL    HW224334   5.439   8.564   9.702  1.2340  2.6607 -0.2426
 7148SOL     OW24335   0.555   3.530   1.393 -0.4159 -0.3582  0.4003
 7148SOL    HW124336   0.570   3.528   1.299 -1.2088 -0.1869  0.2613
 7148SOL    HW224337   0.465   3.498   1.404 -0.5391  0.1800  1.0452
 7149SOL     OW24338   1.592   3.143   9.064  0.4956  0.2061 -0.2508
 7149SOL    HW124339   1.640   3.060   9.064  1.2777  0.6421 -0.2744
 7149SOL    HW224340   1.602   3.176   9.153 -0.4694 -0.0900 -0.0311
 7150SOL     OW24341   3.383   3.651   9.584  0.0884 -0.0227  0.1328
 7150SOL    HW124342   3.306   3.704   9.563 -0.7531 -1.3755 -0.3149
 7150SOL    HW224343   3.443   3.712   9.626 -0.5277  1.4613 -1.0339
 7151SOL     OW24344   1.544   1.830   4.277  0.1917 -0.2104  0.3758
 7151SOL    HW124345   1.577   1.908   4.321 -0.4159 -0.3930  1.1891
 7151SOL    HW224346   1.488   1.864   4.207  1.6574  0.0902 -0.6898
 7152SOL     OW24347   5.165   5.921   2.975 -0.2770 -0.4656 -0.7082
 7152SOL    HW124348   5.194   5.925   2.884  0.1079 -0.5363 -0.5922
 7152SOL    HW224349   5.195   6.003   3.014  2.1124 -1.6140  0.0775
 7153SOL     OW24350   4.058   3.188   4.579 -0.6435 -0.6179 -0.4160
 7153SOL    HW124351   3.970   3.218   4.598 -1.2237 -1.2758 -1.8946
 7153SOL    HW224352   4.114   3.263   4.600 -1.6195  0.0566 -0.1428
 7154SOL     OW24353   7.350   0.479   7.094  0.2612 -0.1287  0.2371
 7154SOL    HW124354   7.305   0.394   7.091  0.7062 -0.5615  2.8559
 7154SOL    HW224355   7.435   0.462   7.055 -0.4589 -0.2620 -1.3476
 7155SOL     OW24356   3.948   3.659   2.623 -0.2664 -0.2219 -0.5354
 7155SOL    HW124357   3.900   3.589   2.668  1.4278 -1.0983 -0.0023
 7155SOL    HW224358   3.880   3.713   2.584 -1.7017 -1.1184  0.6016
 7156SOL     OW24359   7.261   9.461   6.637  0.2312  0.3585 -0.0574
 7156SOL    HW124360   7.220   9.430   6.717 -0.7616  1.2641 -0.1937
 7156SOL    HW224361   7.353   9.437   6.646 -0.0826 -0.5883  0.8206
 7157SOL     OW24362   2.575   8.726   2.008  0.3383  0.3764  0.4321
 7157SOL    HW124363   2.583   8.636   1.976  0.4488  1.0246 -1.5174
 7157SOL    HW224364   2.514   8.767   1.947  2.1453  2.2522 -0.2526
 7158SOL     OW24365   1.740   2.312   7.613 -0.7115  0.2187 -0.7002
 7158SOL    HW124366   1.791   2.339   7.689 -1.4382 -0.3231  0.0046
 7158SOL    HW224367   1.800   2.257   7.562 -0.3699  0.1666 -0.2485
 7159SOL     OW24368   9.111   6.725   6.273 -0.1523  0.3972 -0.0830
 7159SOL    HW124369   9.026   6.735   6.314  0.1179 -1.1059  0.9195
 7159SOL    HW224370   9.118   6.799   6.213 -1.5573  1.3119  0.8482
 7160SOL     OW24371   9.138   3.460   0.460 -0.1947  0.1202  0.7031
 7160SOL    HW124372   9.214   3.405   0.444  0.3618  0.5352  1.7626
 7160SOL    HW224373   9.087   3.457   0.379  0.9283 -0.2020 -0.0058
 7161SOL     OW24374   2.352   0.689   4.912 -0.3357  0.1926 -0.0872
 7161SOL    HW124375   2.330   0.626   4.980 -3.5007  0.6083 -0.5750
 7161SOL    HW224376   2.445   0.673   4.894 -0.2174 -2.1325  1.9836
 7162SOL     OW24377   4.908   0.454   2.041 -0.1502  0.2311 -0.4144
 7162SOL    HW124378   4.822   0.415   2.057 -1.1454  2.4571 -0.0049
 7162SOL    HW224379   4.899   0.496   1.955  1.0665 -0.8275 -1.0940
 7163SOL     OW24380   0.668   1.855   0.496  0.0161 -0.2581 -0.1590
 7163SOL    HW124381   0.593   1.798   0.512  1.0754 -1.6658  0.0087
 7163SOL    HW224382   0.658   1.926   0.560 -1.0204 -0.5705  0.0414
 7164SOL     OW24383   5.074   4.127   4.802 -0.2299  0.3116 -0.0207
 7164SOL    HW124384   5.039   4.137   4.714  0.3513 -2.0425 -0.5785
 7164SOL    HW224385   5.082   4.033   4.815  3.5594  0.6084  0.9843
 7165SOL     OW24386   2.838   7.674   6.450  0.0369 -0.6089 -0.2609
 7165SOL    HW124387   2.826   7.654   6.543  0.5354 -0.7913 -0.2346
 7165SOL    HW224388   2.749   7.677   6.415 -0.2868  1.1913  0.5727
 7166SOL     OW24389   8.923   3.854   2.844  0.0868 -0.4791 -0.4308
 7166SOL    HW124390   8.895   3.912   2.773 -1.4417 -1.0223 -0.3124
 7166SOL    HW224391   8.862   3.780   2.840  0.3711 -0.8302  1.0443
 7167SOL     OW24392   4.005   7.513   6.581 -0.0724  0.4085 -0.1827
 7167SOL    HW124393   3.962   7.459   6.515  0.9525 -0.4633 -0.1446
 7167SOL    HW224394   4.098   7.507   6.561  0.2472  0.2781  1.2290
 7168SOL     OW24395   9.523   3.228   7.830 -0.1592  0.2369  0.6352
 7168SOL    HW124396   9.607   3.200   7.793  0.1457 -1.2844  2.3541
 7168SOL    HW224397   9.459   3.206   7.762  0.6099 -0.4531  0.1140
 7169SOL     OW24398   4.917   2.863   7.601 -0.4878  0.8840 -0.0288
 7169SOL    HW124399   4.917   2.856   7.696 -0.8719  1.1741 -0.0061
 7169SOL    HW224400   4.891   2.776   7.571 -0.9470  0.9623  0.1442
 7170SOL     OW24401   3.954   8.723   2.669 -0.2977  0.0691  0.4406
 7170SOL    HW124402   4.018   8.727   2.741  1.1382 -1.6954 -0.6508
 7170SOL    HW224403   3.872   8.698   2.711  0.1691  0.4498  1.6364
 7171SOL     OW24404   3.517   4.356   7.903  0.0941 -0.1831  0.5110
 7171SOL    HW124405   3.602   4.392   7.929  0.9749 -2.4794  1.0294
 7171SOL    HW224406   3.453   4.414   7.943  1.3822  1.4590  0.3268
 7172SOL     OW24407   2.399   7.754   9.544  0.2135  0.1225  0.0345
 7172SOL    HW124408   2.381   7.735   9.636  0.7866 -0.8237 -0.0457
 7172SOL    HW224409   2.370   7.676   9.497  0.4935  0.3546 -0.5329
 7173SOL     OW24410   5.436   9.004   5.825 -0.6132 -0.2131 -0.4143
 7173SOL    HW124411   5.434   8.928   5.766 -1.4586  0.2708 -1.0210
 7173SOL    HW224412   5.344   9.020   5.846 -0.4041  0.3690  0.0778
 7174SOL     OW24413   7.118   3.856   6.991  0.3620  0.1075 -0.0600
 7174SOL    HW124414   7.071   3.829   6.913 -1.3347 -1.1790  1.3342
 7174SOL    HW224415   7.066   3.927   7.028  1.0916  0.6362 -0.0198
 7175SOL     OW24416   2.432   0.730   0.133 -0.0051  0.0341 -0.0778
 7175SOL    HW124417   2.513   0.767   0.168  1.1137 -1.7826 -0.6207
 7175SOL    HW224418   2.440   0.636   0.147 -0.6499 -0.5154 -2.7895
 7176SOL     OW24419   2.953   4.558   2.534 -0.4821 -0.2669  0.3649
 7176SOL    HW124420   2.998   4.638   2.560  1.2189 -1.2980  0.7785
 7176SOL    HW224421   2.924   4.574   2.445 -0.2992  0.8521  0.4886
 7177SOL     OW24422   2.919   2.688   8.149 -0.2202  0.2368 -0.4430
 7177SOL    HW124423   2.850   2.700   8.083 -0.2209  1.2340 -0.2780
 7177SOL    HW224424   3.000   2.711   8.104 -0.1406  0.2630 -0.2879
 7178SOL     OW24425   2.400   0.154   0.813 -0.5813  0.0139 -0.1765
 7178SOL    HW124426   2.442   0.230   0.854  0.4683 -0.7816  0.2800
 7178SOL    HW224427   2.365   0.188   0.730 -1.3595  1.2908  0.6363
 7179SOL     OW24428   0.976   3.571   1.299 -0.2725  0.3090 -0.7020
 7179SOL    HW124429   0.930   3.535   1.223 -0.9399 -0.0758 -0.1281
 7179SOL    HW224430   1.003   3.495   1.350 -0.6641  0.5797 -0.0770
 7180SOL     OW24431   2.936   0.764   7.648  0.2842  0.3457 -0.1845
 7180SOL    HW124432   2.948   0.808   7.732  3.7042 -0.8235  0.0909
 7180SOL    HW224433   2.925   0.672   7.670 -1.2995  0.3075 -0.9779
 7181SOL     OW24434   6.559   2.329   2.564 -0.2389 -0.0926 -0.0333
 7181SOL    HW124435   6.533   2.419   2.545  0.0035  0.1137  0.5960
 7181SOL    HW224436   6.624   2.337   2.634  0.5197 -0.6952 -0.6610
 7182SOL     OW24437   8.091   4.771   0.266  0.1375  0.5590  0.3460
 7182SOL    HW124438   8.018   4.749   0.323 -0.9459 -0.3706 -1.3356
 7182SOL    HW224439   8.069   4.858   0.230  0.9101  1.2296  1.4331
 7183SOL     OW24440   4.661   2.994   7.764  0.0321 -0.4769  0.2587
 7183SOL    HW124441   4.673   2.904   7.797  1.4591 -0.3944 -0.0041
 7183SOL    HW224442   4.740   3.040   7.792 -0.0888  0.3580 -0.7529
 7184SOL     OW24443   9.181   9.188   9.256  0.2572 -0.4255 -0.1218
 7184SOL    HW124444   9.254   9.126   9.260  1.5797  1.0326 -0.5689
 7184SOL    HW224445   9.182   9.230   9.342  1.4397  1.1757 -0.8726
 7185SOL     OW24446   1.951   9.220   1.036  0.8832  0.0857  0.2252
 7185SOL    HW124447   1.985   9.146   0.985 -1.5543 -0.3799 -0.8654
 7185SOL    HW224448   1.876   9.184   1.083 -1.1845  2.0778 -1.3585
 7186SOL     OW24449   0.544   9.621   2.454 -0.4360  0.3765 -0.2357
 7186SOL    HW124450   0.542   9.697   2.396 -0.4808 -0.7874 -1.8292
 7186SOL    HW224451   0.609   9.643   2.520  0.8974  1.0850 -1.7131
 7187SOL     OW24452   8.277   8.539   1.938  0.4692  0.6513 -0.2569
 7187SOL    HW124453   8.228   8.531   2.020 -0.7870 -1.1913 -1.1156
 7187SOL    HW224454   8.367   8.552   1.966 -0.3350  3.6417  1.3858
 7188SOL     OW24455   2.272   1.242   5.596  0.2447  0.0152 -0.2084
 7188SOL    HW124456   2.336   1.172   5.608 -0.1743 -0.3860 -0.2778
 7188SOL    HW224457   2.262   1.251   5.502 -0.0262 -0.1338 -0.1951
 7189SOL     OW24458   2.283   5.853   3.486  0.4288  0.5132 -0.4448
 7189SOL    HW124459   2.269   5.910   3.562  0.1244 -0.8630  0.5656
 7189SOL    HW224460   2.370   5.878   3.453  1.4063 -0.1414  1.5139
 7190SOL     OW24461   6.554   4.735   3.373  0.3672 -0.1503  0.0142
 7190SOL    HW124462   6.489   4.691   3.427 -0.4375 -1.2746 -1.7859
 7190SOL    HW224463   6.519   4.824   3.361 -0.8422 -0.7106 -0.8558
 7191SOL     OW24464   7.367   7.452   7.145  0.5892 -0.7837 -0.0474
 7191SOL    HW124465   7.322   7.537   7.147 -0.0935 -1.1297 -0.3253
 7191SOL    HW224466   7.452   7.469   7.186  0.0567 -0.1922  0.8653
 7192SOL     OW24467   1.958   6.512   2.895  0.8503  0.2560 -0.4881
 7192SOL    HW124468   1.882   6.516   2.953  0.9084  1.4633 -0.4697
 7192SOL    HW224469   2.029   6.480   2.951  0.3089 -1.1542 -0.5794
 7193SOL     OW24470   1.299   2.329   8.608 -0.1817 -0.7222 -0.1738
 7193SOL    HW124471   1.294   2.234   8.623 -1.1288 -0.6132  0.2657
 7193SOL    HW224472   1.228   2.347   8.546 -0.3232 -0.2234  0.1340
 7194SOL     OW24473   4.131   8.199   4.858  0.1185 -0.6122  0.3884
 7194SOL    HW124474   4.219   8.169   4.834  0.3765  0.6357 -0.3158
 7194SOL    HW224475   4.145   8.256   4.934  0.2566  1.4973 -1.1416
 7195SOL     OW24476   4.207   7.084   1.116  0.0979 -0.3954 -0.0564
 7195SOL    HW124477   4.215   6.998   1.075  0.8001 -0.8474  0.9788
 7195SOL    HW224478   4.225   7.068   1.209  1.1251  0.9962  0.0241
 7196SOL     OW24479   4.816   4.993   5.322  0.2544 -0.0830  0.1915
 7196SOL    HW124480   4.807   4.990   5.227  0.0360  2.0144  0.0911
 7196SOL    HW224481   4.728   4.979   5.355 -0.4602  2.9269 -0.1298
 7197SOL     OW24482   7.731   2.943   4.818  0.8314 -0.1288  1.0985
 7197SOL    HW124483   7.728   2.874   4.752  0.0596  0.1792  0.7909
 7197SOL    HW224484   7.816   2.933   4.859  1.9667  0.5917 -0.9325
 7198SOL     OW24485   3.725   2.574   7.425  0.1301  0.1771  0.4204
 7198SOL    HW124486   3.684   2.504   7.376  1.0618 -0.3045  0.3072
 7198SOL    HW224487   3.819   2.555   7.421  0.3287  0.9103  1.1765
 7199SOL     OW24488   5.910   2.867   3.096 -0.2898  0.0604 -0.1148
 7199SOL    HW124489   5.876   2.955   3.082 -0.7098 -0.1754 -0.6086
 7199SOL    HW224490   5.836   2.819   3.134 -0.8582 -0.7011 -2.0374
 7200SOL     OW24491   9.134   4.359   9.322 -0.4881  0.0300 -0.3434
 7200SOL    HW124492   9.084   4.440   9.322 -0.5347  0.1820  3.5245
 7200SOL    HW224493   9.116   4.319   9.407  1.4013 -2.8683 -1.1352
 7201SOL     OW24494   9.560   7.998   0.763  0.1928  0.0284 -0.1545
 7201SOL    HW124495   9.617   7.940   0.813  0.2833  0.6584  0.4998
 7201SOL    HW224496   9.484   7.944   0.740 -0.6723  0.1506  2.1598
 7202SOL     OW24497   2.716   6.000   7.729 -0.1116  0.1398  0.1085
 7202SOL    HW124498   2.727   5.923   7.783 -1.3871  0.3089  0.6472
 7202SOL    HW224499   2.650   5.975   7.664 -0.5404  0.7682  0.2897
 7203SOL     OW24500   7.602   6.657   2.962  0.0789  0.4538 -0.2547
 7203SOL    HW124501   7.622   6.626   2.874 -0.7252 -0.3636 -0.1609
 7203SOL    HW224502   7.509   6.681   2.959 -0.6293 -1.8488  0.9659
 7204SOL     OW24503   2.781   5.599   4.013 -0.4722  0.0903 -0.7453
 7204SOL    HW124504   2.811   5.635   4.096 -0.3477  4.0424 -2.2747
 7204SOL    HW224505   2.691   5.570   4.029 -0.1001 -0.2184  0.9541
 7205SOL     OW24506   3.247   4.804   7.463  0.0412  0.5192  0.1304
 7205SOL    HW124507   3.187   4.853   7.407 -1.0605 -0.5892  0.2940
 7205SOL    HW224508   3.196   4.728   7.492  1.3320 -0.1372  0.7739
 7206SOL     OW24509   0.303   8.051   4.492  0.6950 -0.0791  0.2611
 7206SOL    HW124510   0.274   8.142   4.485  1.3983  0.0700 -1.4053
 7206SOL    HW224511   0.399   8.057   4.484  0.6287 -1.0718 -1.8637
 7207SOL     OW24512   3.041   0.090   2.205 -0.4108 -0.0410 -0.9438
 7207SOL    HW124513   3.019   0.022   2.268 -0.5075 -1.9678 -2.9663
 7207SOL    HW224514   3.130   0.116   2.228  0.0975 -1.7428 -0.8575
 7208SOL     OW24515   6.102   1.581   9.028 -0.7026 -0.4361  0.1207
 7208SOL    HW124516   6.054   1.505   9.062  0.1793 -0.5596  1.1300
 7208SOL    HW224517   6.185   1.545   8.997 -1.1355 -0.1866 -1.4076
 7209SOL     OW24518   3.939   1.412   5.723 -0.3168 -0.3023  0.1319
 7209SOL    HW124519   4.021   1.363   5.728 -0.1445 -0.3250 -2.0234
 7209SOL    HW224520   3.916   1.411   5.630 -2.0729  0.8451  0.5074
 7210SOL     OW24521   6.521   3.585   4.486 -0.5321 -0.0079  0.3105
 7210SOL    HW124522   6.493   3.626   4.405 -2.9426 -0.7543  0.6867
 7210SOL    HW224523   6.442   3.582   4.540  0.5123 -1.4015  1.8663
 7211SOL     OW24524   3.353   7.945   0.911  0.0383  0.2114 -0.2389
 7211SOL    HW124525   3.371   7.934   1.005 -0.5514 -0.2177 -0.1772
 7211SOL    HW224526   3.431   7.990   0.878  0.6315 -0.4007  0.2924
 7212SOL     OW24527   2.381   4.422   9.529  0.1465  0.1440 -0.2453
 7212SOL    HW124528   2.342   4.386   9.608  0.5709  0.2607  0.0206
 7212SOL    HW224529   2.409   4.510   9.554  0.1284  0.2453 -0.5748
 7213SOL     OW24530   4.671   8.187   6.366 -0.1218 -0.0509 -0.2174
 7213SOL    HW124531   4.730   8.203   6.292 -1.0746  0.3049 -0.9263
 7213SOL    HW224532   4.723   8.211   6.443  0.7201  0.0657 -0.8023
 7214SOL     OW24533   5.407   8.712   1.296  0.0716  0.1847 -0.2621
 7214SOL    HW124534   5.383   8.802   1.317 -0.1527  0.3475 -1.2146
 7214SOL    HW224535   5.483   8.719   1.239 -1.5055 -0.1003 -2.5428
 7215SOL     OW24536   0.311   2.335   8.520  0.0639 -0.3716  0.8459
 7215SOL    HW124537   0.260   2.408   8.555  0.4224 -0.7785  2.3131
 7215SOL    HW224538   0.263   2.306   8.443  0.2419  1.7756 -0.1259
 7216SOL     OW24539   1.884   7.828   9.503 -0.2506 -0.2077 -0.2179
 7216SOL    HW124540   1.859   7.750   9.552 -0.7788  0.7247  1.0566
 7216SOL    HW224541   1.828   7.826   9.425  0.2176 -1.4280 -0.5473
 7217SOL     OW24542   6.484   7.670   0.601  0.1361  0.0358  0.3922
 7217SOL    HW124543   6.520   7.603   0.543  2.0351  0.1877  1.3183
 7217SOL    HW224544   6.418   7.714   0.548  0.9579 -0.6106 -1.2577
 7218SOL     OW24545   8.243   7.077   0.078 -0.0535  0.1976 -0.3755
 7218SOL    HW124546   8.225   7.162   0.039 -0.5417 -0.2353 -1.1261
 7218SOL    HW224547   8.197   7.015   0.022 -0.2572 -0.5017  0.5488
 7219SOL     OW24548   6.523   1.535   8.720 -0.4044  0.1020 -0.0995
 7219SOL    HW124549   6.432   1.510   8.703 -0.6072  0.7228  0.0534
 7219SOL    HW224550   6.523   1.631   8.716  0.0418  0.1562  0.8501
 7220SOL     OW24551   5.209   2.873   4.820 -0.7021  0.4861  0.6739
 7220SOL    HW124552   5.285   2.872   4.878 -0.7991  2.9460  0.9527
 7220SOL    HW224553   5.194   2.781   4.798  2.9051 -0.0436 -0.1817
 7221SOL     OW24554   7.512   7.142   2.050  0.2210  0.0210 -0.7035
 7221SOL    HW124555   7.536   7.231   2.024  1.2756  0.2004  0.7638
 7221SOL    HW224556   7.571   7.122   2.123 -1.4712 -1.0567  0.4258
 7222SOL     OW24557   6.220   6.566   7.130  0.0156 -0.4552  0.3790
 7222SOL    HW124558   6.172   6.603   7.056 -0.4359 -0.5862  0.5997
 7222SOL    HW224559   6.256   6.642   7.176 -2.3462 -0.0970  1.8201
 7223SOL     OW24560   5.648   1.393   0.971 -0.5672  0.5893 -0.8131
 7223SOL    HW124561   5.582   1.334   1.008 -0.0347  0.1693 -0.5053
 7223SOL    HW224562   5.696   1.426   1.048  1.3552 -1.2487 -1.1321
 7224SOL     OW24563   5.568   8.439   1.619 -0.1588 -0.4333  0.2748
 7224SOL    HW124564   5.597   8.441   1.710 -0.4155  0.0995  0.3479
 7224SOL    HW224565   5.488   8.493   1.617 -0.5393 -0.9907 -0.1320
 7225SOL     OW24566   3.088   0.101   0.057 -0.2622 -0.1576 -0.1886
 7225SOL    HW124567   3.070   0.118   0.149  2.8607  0.6827  0.3837
 7225SOL    HW224568   3.068   0.183   0.013  1.8349  0.7676  0.4351
 7226SOL     OW24569   6.829   8.950   3.124 -0.1496 -0.4158  0.0214
 7226SOL    HW124570   6.864   8.902   3.200 -0.6059 -0.5263  0.1644
 7226SOL    HW224571   6.777   9.020   3.163 -2.2948 -1.8312 -0.1489
 7227SOL     OW24572   4.602   0.488   5.889  0.1819 -0.0680 -0.0478
 7227SOL    HW124573   4.567   0.432   5.820  0.0845 -0.0510 -0.0108
 7227SOL    HW224574   4.635   0.427   5.955  2.6532 -0.1779 -1.2619
 7228SOL     OW24575   9.620   1.827   7.259 -0.1191  0.2048 -0.0872
 7228SOL    HW124576   9.577   1.776   7.190 -0.9038  0.6049  0.0931
 7228SOL    HW224577   9.665   1.897   7.212  0.9982 -0.6415 -0.3408
 7229SOL     OW24578   8.359   6.939   3.957 -0.7048 -0.0261  0.2845
 7229SOL    HW124579   8.443   6.900   3.933  0.0828  1.1728  1.0235
 7229SOL    HW224580   8.307   6.865   3.990  0.6746 -0.5097  1.4729
 7230SOL     OW24581   8.607   5.284   0.459  0.6605 -0.2362 -0.2369
 7230SOL    HW124582   8.678   5.337   0.423  1.9021  0.0306  2.3268
 7230SOL    HW224583   8.643   5.195   0.462  0.3264 -0.3746 -0.3165
 7231SOL     OW24584   1.578   3.992   0.987  0.6312  0.0013 -0.0394
 7231SOL    HW124585   1.653   3.959   1.035 -0.4722  1.0928  2.5913
 7231SOL    HW224586   1.525   4.038   1.052 -0.4585  2.5356 -2.4891
 7232SOL     OW24587   3.318   0.623   2.176  0.2284 -0.1907  0.1433
 7232SOL    HW124588   3.285   0.713   2.174  0.2341 -0.1927 -1.4453
 7232SOL    HW224589   3.243   0.571   2.204  0.0664  0.2520  0.5430
 7233SOL     OW24590   4.373   0.398   1.059  0.5308  0.1725 -0.0382
 7233SOL    HW124591   4.349   0.320   1.109 -0.7520  1.5746  1.6560
 7233SOL    HW224592   4.350   0.376   0.969  2.1621 -2.1416 -0.0040
 7234SOL     OW24593   7.677   3.397   9.011  0.0770 -0.7330 -0.3235
 7234SOL    HW124594   7.626   3.442   8.943 -0.7860 -3.1958 -1.4317
 7234SOL    HW224595   7.671   3.454   9.087 -1.2709  0.8047 -1.5085
 7235SOL     OW24596   2.211   1.759   7.203  0.3600  0.2453  0.2902
 7235SOL    HW124597   2.202   1.700   7.128 -0.9679  1.3809 -0.4979
 7235SOL    HW224598   2.281   1.820   7.177  1.3959 -0.6293  0.9071
 7236SOL     OW24599   3.920   6.623   2.120  0.4758  0.0662 -0.0930
 7236SOL    HW124600   3.941   6.714   2.141 -1.0148  0.1146  1.3871
 7236SOL    HW224601   3.894   6.584   2.204  0.8139 -1.6594 -0.7386
 7237SOL     OW24602   9.610   5.264   0.330  0.3449  0.0312  0.2206
 7237SOL    HW124603   9.555   5.186   0.338  0.8116 -0.2102  1.3621
 7237SOL    HW224604   9.692   5.232   0.292 -0.7016  0.6161 -2.7556
 7238SOL     OW24605   2.629   8.821   3.599 -0.1721  0.4287 -0.1376
 7238SOL    HW124606   2.661   8.754   3.659  0.3681 -0.0576 -0.9469
 7238SOL    HW224607   2.545   8.849   3.636 -0.4483 -0.7499  0.1782
 7239SOL     OW24608   4.996   7.764   9.118 -0.2748  0.6173 -0.1162
 7239SOL    HW124609   5.032   7.851   9.137  2.1196 -0.4906  0.7526
 7239SOL    HW224610   5.071   7.705   9.123 -1.8140 -1.5083 -0.8072
 7240SOL     OW24611   2.190   5.464   6.845  0.6862 -1.0956  0.0317
 7240SOL    HW124612   2.153   5.445   6.759  0.3029 -0.0222 -0.0540
 7240SOL    HW224613   2.284   5.478   6.828  0.4702 -0.0170 -0.3733
 7241SOL     OW24614   9.020   5.975   1.828  0.2337  0.3933  0.0097
 7241SOL    HW124615   8.942   5.921   1.824  0.8330 -0.4206 -1.2324
 7241SOL    HW224616   8.988   6.062   1.849 -0.7227 -0.4598  2.5642
 7242SOL     OW24617   6.070   1.442   3.506  0.6686  1.1192  0.7820
 7242SOL    HW124618   5.980   1.440   3.540  0.4873 -1.1271  0.3295
 7242SOL    HW224619   6.063   1.492   3.425 -0.1428  1.1439  0.8555
 7243SOL     OW24620   0.919   6.622   0.946  0.9685 -0.4275  0.4522
 7243SOL    HW124621   0.872   6.574   0.877  0.3336 -0.7003  1.0680
 7243SOL    HW224622   0.854   6.682   0.982  1.3477 -0.1666  0.7109
 7244SOL     OW24623   3.085   4.420   0.121 -0.0052 -0.3531 -0.1126
 7244SOL    HW124624   3.103   4.510   0.092  1.0433 -0.8608 -1.1564
 7244SOL    HW224625   3.169   4.390   0.158 -0.2728 -0.9774  0.0014
 7245SOL     OW24626   0.270   8.540   4.174  0.7227 -0.1354  0.5382
 7245SOL    HW124627   0.192   8.513   4.224 -1.3739  1.3690 -1.7251
 7245SOL    HW224628   0.305   8.615   4.222 -1.1413  1.1633 -0.0263
 7246SOL     OW24629   6.267   3.000   6.041  0.0113 -0.6041  0.0129
 7246SOL    HW124630   6.194   3.059   6.058  1.8984  2.1519 -0.6465
 7246SOL    HW224631   6.279   3.002   5.946  1.8775  0.3488  0.2108
 7247SOL     OW24632   2.245   2.062   4.998 -0.0879 -0.1914 -0.4418
 7247SOL    HW124633   2.238   2.091   5.090  0.9548 -0.1700 -0.3626
 7247SOL    HW224634   2.336   2.037   4.988 -0.6426 -2.2040 -0.8980
 7248SOL     OW24635   5.082   0.749   2.985  0.6269 -0.2426 -0.2337
 7248SOL    HW124636   5.118   0.771   2.899 -0.8267 -0.0092 -0.8123
 7248SOL    HW224637   5.106   0.824   3.040  0.7587  0.0527 -0.6834
 7249SOL     OW24638   8.073   5.299   3.390  0.2071 -0.1509  0.3160
 7249SOL    HW124639   8.166   5.280   3.378 -0.5385 -2.7801 -2.7281
 7249SOL    HW224640   8.030   5.214   3.386 -2.4396  1.0674  0.6067
 7250SOL     OW24641   5.849   5.799   9.495 -0.1433 -0.0745  0.7552
 7250SOL    HW124642   5.856   5.889   9.527 -1.3287  0.0376  0.7240
 7250SOL    HW224643   5.840   5.746   9.574  0.8962 -0.2140  0.7926
 7251SOL     OW24644   2.054   8.522   4.307 -0.0204  0.2965 -0.5734
 7251SOL    HW124645   2.104   8.593   4.347 -0.5692 -0.5988  1.8590
 7251SOL    HW224646   1.967   8.558   4.293 -0.0733  0.3579 -0.1024
 7252SOL     OW24647   8.983   6.657   4.433  0.3178 -0.3497 -0.2519
 7252SOL    HW124648   8.897   6.670   4.473  0.9150  3.6043  0.0747
 7252SOL    HW224649   8.966   6.596   4.361 -2.2210 -1.6127  1.2706
 7253SOL     OW24650   4.235   3.519   3.363 -0.0668  0.4105  0.5391
 7253SOL    HW124651   4.298   3.487   3.427 -1.9033  0.2261  2.3596
 7253SOL    HW224652   4.168   3.451   3.358 -0.8740  1.2244 -0.2306
 7254SOL     OW24653   1.141   0.691   8.674 -0.1678 -0.9031  0.5151
 7254SOL    HW124654   1.133   0.625   8.743 -2.4130 -1.1523  0.0798
 7254SOL    HW224655   1.189   0.647   8.604  1.8037 -0.7691  1.7040
 7255SOL     OW24656   8.074   8.407   4.460 -0.3584 -0.0607  0.0165
 7255SOL    HW124657   7.982   8.384   4.449 -0.6060  0.9263 -0.0168
 7255SOL    HW224658   8.118   8.323   4.471 -1.4624 -0.4781  1.5525
 7256SOL     OW24659   2.495   0.570   7.100 -0.3829  0.0055 -0.0882
 7256SOL    HW124660   2.523   0.649   7.146 -0.9354 -0.1396  0.5233
 7256SOL    HW224661   2.544   0.571   7.018  1.4474 -0.2685  0.9422
 7257SOL     OW24662   1.125   8.909   0.146  0.1170  0.0293 -0.0623
 7257SOL    HW124663   1.150   8.904   0.054 -2.5002  0.8471 -0.9046
 7257SOL    HW224664   1.199   8.952   0.189  1.3083 -0.1970 -1.7946
 7258SOL     OW24665   1.919   5.663   4.565  0.5131  0.0457 -0.5852
 7258SOL    HW124666   1.875   5.731   4.616 -0.0078  0.8514 -2.0285
 7258SOL    HW224667   1.868   5.584   4.581  0.4032  0.2681  0.1881
 7259SOL     OW24668   4.090   5.042   2.072  0.2567 -0.5095 -0.0484
 7259SOL    HW124669   4.166   5.088   2.036 -0.2829 -0.6686 -1.4852
 7259SOL    HW224670   4.075   4.970   2.010  0.2129 -1.7682  1.3780
 7260SOL     OW24671   4.441   5.257   0.043 -0.5456  0.5489  0.0636
 7260SOL    HW124672   4.388   5.323  -0.002 -0.1052  0.7784 -0.1205
 7260SOL    HW224673   4.377   5.204   0.091 -0.8367  1.7406  1.0517
 7261SOL     OW24674   6.785   8.084   4.601 -0.0880 -0.1112  0.4960
 7261SOL    HW124675   6.815   8.107   4.689  0.7422  1.6945 -0.2227
 7261SOL    HW224676   6.715   8.145   4.581  0.6261  0.3952 -0.5942
 7262SOL     OW24677   4.830   5.990   5.478 -0.2080 -0.4277  0.8528
 7262SOL    HW124678   4.861   5.939   5.403  0.4343  0.3318  0.5895
 7262SOL    HW224679   4.801   6.073   5.440 -0.3740 -0.2376  1.3856
 7263SOL     OW24680   3.323   4.154   8.380  0.0109 -0.3202 -0.2427
 7263SOL    HW124681   3.379   4.101   8.437  0.5463  0.3516 -0.1237
 7263SOL    HW224682   3.384   4.211   8.333 -0.5658  0.3860 -0.1590
 7264SOL     OW24683   4.093   4.365   7.399  0.3886 -0.0097 -0.7367
 7264SOL    HW124684   4.115   4.452   7.364 -3.1999  1.2907 -0.2447
 7264SOL    HW224685   4.079   4.311   7.321 -1.8752  1.2658 -1.3313
 7265SOL     OW24686   0.944   3.393   2.926  0.1010  0.3806 -0.4110
 7265SOL    HW124687   0.978   3.344   2.852  1.5883  0.1930  0.3426
 7265SOL    HW224688   0.955   3.335   3.001 -2.6876  0.0102 -0.1892
 7266SOL     OW24689   9.548   3.210   9.456  0.0248  0.2052 -0.3187
 7266SOL    HW124690   9.541   3.132   9.511  0.5411 -0.0591 -0.6126
 7266SOL    HW224691   9.546   3.283   9.517  0.5207 -0.0827  0.0491
 7267SOL     OW24692   1.729   8.673   4.426  0.2024  0.4588 -0.5645
 7267SOL    HW124693   1.791   8.718   4.370  0.3067  0.2949 -0.5824
 7267SOL    HW224694   1.751   8.700   4.515  0.7609 -0.1498 -0.5087
 7268SOL     OW24695   6.584   3.819   0.098  0.3613 -0.1923 -0.0925
 7268SOL    HW124696   6.578   3.723   0.106  0.8114 -0.1060  1.6384
 7268SOL    HW224697   6.563   3.852   0.186 -0.4083  1.3447 -0.8172
 7269SOL     OW24698   7.127   4.620   1.389  0.1284  0.3684 -0.3502
 7269SOL    HW124699   7.103   4.529   1.373 -1.4118  0.7635 -0.4470
 7269SOL    HW224700   7.063   4.651   1.453  1.4561  1.0228  0.7181
 7270SOL     OW24701   3.084   9.378   4.623 -0.1173  0.2534  0.1473
 7270SOL    HW124702   3.067   9.285   4.642  1.3376 -0.0777 -0.0805
 7270SOL    HW224703   3.035   9.395   4.542  2.1111 -1.2295 -1.6306
 7271SOL     OW24704   5.850   4.564   9.605  0.3565  0.1491  0.0629
 7271SOL    HW124705   5.776   4.503   9.596  0.1855  0.6155 -2.1778
 7271SOL    HW224706   5.880   4.551   9.695 -2.1166 -0.4264  0.8981
 7272SOL     OW24707   3.439   0.767   8.942  1.1286 -0.3649 -0.1879
 7272SOL    HW124708   3.431   0.860   8.961  3.0152 -0.0808 -0.5625
 7272SOL    HW224709   3.533   0.753   8.930  0.7017 -1.8862 -2.2734
 7273SOL     OW24710   2.499   4.114   0.608 -0.3439  0.0120  0.2541
 7273SOL    HW124711   2.590   4.146   0.616  0.6615 -1.8224 -2.4746
 7273SOL    HW224712   2.501   4.027   0.646  0.7601 -2.5268 -4.7622
 7274SOL     OW24713   2.983   5.510   5.472  0.1883 -0.3992  0.1810
 7274SOL    HW124714   2.913   5.444   5.478  0.6684 -0.8182  1.9053
 7274SOL    HW224715   3.035   5.496   5.551  1.6939  0.5212 -0.6064
 7275SOL     OW24716   8.080   8.953   5.068 -0.1286  0.3735 -0.2485
 7275SOL    HW124717   8.100   8.867   5.030  0.8013  0.6886 -0.5092
 7275SOL    HW224718   8.018   8.992   5.007  0.4399  0.3955 -0.8285
 7276SOL     OW24719   7.701   8.606   6.194 -0.1201  0.0644 -0.0674
 7276SOL    HW124720   7.785   8.588   6.151 -0.9754  1.0664 -2.2908
 7276SOL    HW224721   7.705   8.700   6.216 -0.0300 -0.2515  1.3607
 7277SOL     OW24722   2.333   5.369   3.402 -0.1165  0.9330  0.2574
 7277SOL    HW124723   2.246   5.390   3.436 -0.6388  0.4214 -0.7076
 7277SOL    HW224724   2.382   5.339   3.478 -0.5173  2.0178  0.9722
 7278SOL     OW24725   1.597   6.474   8.994  0.6204 -0.4539  0.2928
 7278SOL    HW124726   1.583   6.529   9.071  0.6833 -2.8605  2.1345
 7278SOL    HW224727   1.510   6.442   8.971  0.4616  0.9691 -1.2977
 7279SOL     OW24728   1.417   5.740   5.092  0.0896  0.6237  0.0045
 7279SOL    HW124729   1.455   5.677   5.153 -1.0440 -0.1954 -0.1028
 7279SOL    HW224730   1.486   5.805   5.079  2.1380 -1.7160 -1.6205
 7280SOL     OW24731   0.065   0.021   3.232 -0.1410 -0.3859  0.4575
 7280SOL    HW124732   0.002   0.024   3.160  0.7968  0.9720 -0.3590
 7280SOL    HW224733   0.147   0.052   3.193  1.0550 -2.1202  1.4800
 7281SOL     OW24734   1.906   1.286   3.307  0.2058 -0.4849  0.0874
 7281SOL    HW124735   1.964   1.275   3.231  0.8724 -1.5318  0.7266
 7281SOL    HW224736   1.819   1.269   3.273  0.6457 -2.4826 -0.1563
 7282SOL     OW24737   5.565   5.895   5.363 -0.3859 -0.8685 -0.3744
 7282SOL    HW124738   5.612   5.918   5.282 -0.8062 -0.1415 -0.4147
 7282SOL    HW224739   5.503   5.827   5.336  0.1730 -1.3579 -0.4541
 7283SOL     OW24740   1.694   3.760   4.435 -0.2081 -0.4148  0.2334
 7283SOL    HW124741   1.773   3.762   4.382 -0.3233  1.8717  0.0299
 7283SOL    HW224742   1.629   3.808   4.384 -1.1525 -0.5538  1.2448
 7284SOL     OW24743   4.420   4.058   7.809  0.8096 -0.0754 -0.1624
 7284SOL    HW124744   4.462   4.123   7.752  1.2404  0.5107  0.8050
 7284SOL    HW224745   4.436   3.974   7.765 -1.1415  0.5490 -2.2949
 7285SOL     OW24746   4.700   2.387   1.604  0.1474  0.0471 -0.1163
 7285SOL    HW124747   4.621   2.391   1.658 -0.2797  0.5098 -0.7593
 7285SOL    HW224748   4.769   2.426   1.659 -0.6681  2.2436 -0.5495
 7286SOL     OW24749   7.156   0.051   6.260  0.4766  0.0573  0.1553
 7286SOL    HW124750   7.202  -0.029   6.233  0.3720  0.2317 -0.5739
 7286SOL    HW224751   7.204   0.122   6.215  0.2610  0.3533  0.3904
 7287SOL     OW24752   2.398   3.843   7.206 -0.0230  0.1332 -0.0880
 7287SOL    HW124753   2.487   3.878   7.205  0.0892 -0.1240 -1.3081
 7287SOL    HW224754   2.342   3.920   7.194  0.0333  0.2752  0.5219
 7288SOL     OW24755   6.371   9.602   2.681 -0.0276 -0.3058 -0.2815
 7288SOL    HW124756   6.449   9.655   2.695  0.7781 -1.5920  0.3180
 7288SOL    HW224757   6.389   9.552   2.601 -0.1978 -0.6616 -0.1045
 7289SOL     OW24758   9.388   8.719   3.051  0.1741 -0.4737  0.1103
 7289SOL    HW124759   9.428   8.692   3.133  1.7183 -0.0745 -0.4694
 7289SOL    HW224760   9.427   8.662   2.985  0.2153  0.3054 -0.5561
 7290SOL     OW24761   8.431   3.719   7.203 -0.4815  0.5102 -0.0884
 7290SOL    HW124762   8.490   3.751   7.134  0.2396 -1.3298 -0.3995
 7290SOL    HW224763   8.373   3.658   7.158 -0.2203 -0.4624  0.8597
 7291SOL     OW24764   4.530   3.650   1.283  0.4601  0.1383  0.0542
 7291SOL    HW124765   4.542   3.628   1.191 -1.4169  0.4618 -0.3141
 7291SOL    HW224766   4.619   3.667   1.315  1.2965 -1.3751 -1.3015
 7292SOL     OW24767   8.017   8.904   8.453  0.3769  0.0926  0.2817
 7292SOL    HW124768   7.946   8.955   8.492  0.9995  0.1315  1.4273
 7292SOL    HW224769   8.096   8.955   8.472  0.7368  0.0086 -0.9009
 7293SOL     OW24770   8.580   3.287   0.491 -0.2158  0.1157  0.1238
 7293SOL    HW124771   8.531   3.257   0.415  0.3419 -0.3132 -0.0678
 7293SOL    HW224772   8.659   3.328   0.455 -0.4802  0.9222  0.4234
 7294SOL     OW24773   8.798   1.536   2.585 -0.2610  0.6950  0.2225
 7294SOL    HW124774   8.734   1.465   2.592  1.4221 -0.8641  0.4952
 7294SOL    HW224775   8.804   1.573   2.674  0.3139 -0.1635  0.5458
 7295SOL     OW24776   9.408   7.213   4.716 -0.6398 -0.2387  0.1770
 7295SOL    HW124777   9.380   7.122   4.712  3.4458 -1.8591  2.3150
 7295SOL    HW224778   9.425   7.237   4.625 -4.7117 -0.3547 -0.7798
 7296SOL     OW24779   4.793   0.744   2.175 -0.0412  0.0565 -0.3794
 7296SOL    HW124780   4.861   0.716   2.113 -0.5571  0.5948 -1.2141
 7296SOL    HW224781   4.762   0.827   2.139  2.1431  2.3632  2.5631
 7297SOL     OW24782   6.471   3.278   0.569 -0.6840 -0.2445  0.1166
 7297SOL    HW124783   6.465   3.183   0.572 -1.7423 -0.1567  1.3932
 7297SOL    HW224784   6.405   3.309   0.630 -0.6994  1.3344 -0.6319
 7298SOL     OW24785   6.014   4.320   8.191  0.0779 -0.0961 -0.4145
 7298SOL    HW124786   5.944   4.346   8.130 -0.9382  0.0585  0.7848
 7298SOL    HW224787   6.032   4.229   8.169 -0.6281 -0.1919 -0.6121
 7299SOL     OW24788   9.365   2.185   8.258  0.3483 -0.5005  0.1376
 7299SOL    HW124789   9.313   2.235   8.321  1.7137  0.7830  0.3137
 7299SOL    HW224790   9.380   2.101   8.302 -0.5500 -0.4311  0.5929
 7300SOL     OW24791   4.076   9.439   2.836 -0.1756  0.6489  0.2452
 7300SOL    HW124792   4.058   9.423   2.744  0.8224  0.0470  0.1396
 7300SOL    HW224793   4.170   9.424   2.845 -0.0152  1.9753  1.1048
 7301SOL     OW24794   7.856   9.322   6.098  0.4887  0.0336 -0.0253
 7301SOL    HW124795   7.942   9.316   6.056  0.0042 -0.8831 -0.9344
 7301SOL    HW224796   7.861   9.400   6.152  0.5029  2.5310 -3.3578
 7302SOL     OW24797   2.761   5.123   2.799 -0.8772  0.2918 -0.0293
 7302SOL    HW124798   2.851   5.094   2.783 -1.0974 -0.3030 -0.2101
 7302SOL    HW224799   2.719   5.049   2.841 -1.7627 -0.0807 -1.5097
 7303SOL     OW24800   4.176   8.721   2.866  0.4793  0.1455 -0.1529
 7303SOL    HW124801   4.194   8.765   2.949  0.3459 -1.5719  0.8266
 7303SOL    HW224802   4.261   8.690   2.837  0.5596  0.9416 -0.7963
 7304SOL     OW24803   7.010   9.601   3.835  0.1110  0.2738 -0.2981
 7304SOL    HW124804   7.042   9.572   3.750 -0.5097 -0.2031 -0.3763
 7304SOL    HW224805   6.915   9.585   3.832  0.2298 -0.7404  0.8677
 7305SOL     OW24806   3.148   8.566   4.486  0.2927 -0.0069  0.3940
 7305SOL    HW124807   3.114   8.503   4.550  1.2482 -0.0831  0.8507
 7305SOL    HW224808   3.116   8.651   4.517 -2.2318 -0.3254 -1.0220
 7306SOL     OW24809   6.647   1.927   1.126 -0.1010 -0.0225 -0.3185
 7306SOL    HW124810   6.659   1.836   1.153 -0.3259 -0.3869 -1.4119
 7306SOL    HW224811   6.675   1.978   1.202  0.3698 -0.9945  0.1785
 7307SOL     OW24812   4.747   2.973   0.093 -0.2357  0.9045  0.1397
 7307SOL    HW124813   4.810   2.956   0.163  0.3019 -1.5267 -0.8256
 7307SOL    HW224814   4.799   2.967   0.012 -1.5470 -0.5814 -0.6524
 7308SOL     OW24815   5.787   7.058   4.719 -0.5547 -0.0042 -0.4977
 7308SOL    HW124816   5.750   6.975   4.686 -0.0354 -0.6629  0.5328
 7308SOL    HW224817   5.711   7.106   4.753 -0.8233 -0.1763 -0.8453
 7309SOL     OW24818   6.391   2.188   1.278  0.3248  0.2527  0.7181
 7309SOL    HW124819   6.376   2.097   1.302  0.5889  0.5858  2.3153
 7309SOL    HW224820   6.476   2.188   1.233 -0.0355 -0.3785  0.0240
 7310SOL     OW24821   0.812   1.358   8.100 -0.0785 -0.3912  0.1270
 7310SOL    HW124822   0.814   1.385   8.008  0.9836 -2.2156 -0.4336
 7310SOL    HW224823   0.844   1.435   8.148 -3.9641  1.9104 -0.5599
 7311SOL     OW24824   8.319   6.183   6.106  0.0767 -0.0587 -0.6227
 7311SOL    HW124825   8.232   6.221   6.099 -0.2472  0.3511  3.3230
 7311SOL    HW224826   8.310   6.093   6.074 -1.0973  0.7131 -2.6000
 7312SOL     OW24827   7.710   7.694   4.772 -0.4464 -0.6154  0.2069
 7312SOL    HW124828   7.677   7.781   4.752 -0.2094 -0.6879 -0.5449
 7312SOL    HW224829   7.792   7.709   4.818 -0.3074 -0.4367 -0.0951
 7313SOL     OW24830   1.237   6.725   2.948 -0.0488 -0.3755  0.1768
 7313SOL    HW124831   1.269   6.803   2.993 -1.2330 -0.4998  1.2903
 7313SOL    HW224832   1.195   6.758   2.869  0.5351 -0.0043  0.0135
 7314SOL     OW24833   6.060   8.951   4.578 -0.1789 -1.0520  0.3158
 7314SOL    HW124834   6.073   8.937   4.672 -0.4565 -2.9663  0.1221
 7314SOL    HW224835   6.118   8.886   4.537 -0.5598 -0.6900 -0.8136
 7315SOL     OW24836   8.380   4.691   6.277 -0.2418 -0.4838 -0.0375
 7315SOL    HW124837   8.285   4.698   6.276 -0.5985 -2.6168  3.0721
 7315SOL    HW224838   8.398   4.602   6.247  0.7128 -0.3614  0.1292
 7316SOL     OW24839   1.385   0.259   2.068 -0.2983 -0.0514 -0.2573
 7316SOL    HW124840   1.391   0.338   2.121 -1.5674 -0.0072 -0.1576
 7316SOL    HW224841   1.396   0.288   1.978 -0.9487  0.2700 -0.2353
 7317SOL     OW24842   4.711   0.579   7.883 -0.0040 -0.6642  0.0800
 7317SOL    HW124843   4.732   0.666   7.848  1.0282 -0.5273  0.9756
 7317SOL    HW224844   4.785   0.524   7.858 -1.8100 -2.0278 -2.7528
 7318SOL     OW24845   5.655   7.000   8.283 -0.3930 -0.0258 -0.0267
 7318SOL    HW124846   5.619   6.914   8.303  1.2251 -1.0295 -1.1768
 7318SOL    HW224847   5.687   6.992   8.194 -1.2940  2.1821 -0.6146
 7319SOL     OW24848   1.139   3.974   4.165  0.0460 -0.1470  0.4305
 7319SOL    HW124849   1.161   4.062   4.133 -0.9172 -0.3871 -1.0101
 7319SOL    HW224850   1.146   3.918   4.087  0.4767 -1.3275  1.2888
 7320SOL     OW24851   2.163   4.840   6.176  0.3798  0.0624 -0.2068
 7320SOL    HW124852   2.090   4.868   6.120 -0.2441 -2.4092 -0.7207
 7320SOL    HW224853   2.240   4.848   6.120  0.3639  1.3787 -0.0911
 7321SOL     OW24854   2.442   5.262   6.856 -0.1341  0.1150  0.3625
 7321SOL    HW124855   2.363   5.220   6.821 -0.3109  1.4471 -0.9657
 7321SOL    HW224856   2.484   5.300   6.779  0.0876  2.2040  1.4509
 7322SOL     OW24857   6.704   6.776   0.805  0.4902  0.8945  0.5915
 7322SOL    HW124858   6.784   6.722   0.803  1.8129  2.6492 -2.5912
 7322SOL    HW224859   6.722   6.842   0.872  1.6624  1.1077  0.1038
 7323SOL     OW24860   4.297   2.228   5.510 -0.2413  0.4409  0.0453
 7323SOL    HW124861   4.235   2.255   5.578 -0.2401 -0.1288  0.2769
 7323SOL    HW224862   4.291   2.296   5.444  0.8191  1.7839  1.2630
 7324SOL     OW24863   8.520   1.219   3.636 -0.2429 -0.0555 -0.1115
 7324SOL    HW124864   8.593   1.281   3.632 -0.8887  0.6569 -1.4856
 7324SOL    HW224865   8.551   1.141   3.591 -1.4222  1.5041 -3.9960
 7325SOL     OW24866   4.504   6.395   5.062  0.1033 -0.0187 -0.3625
 7325SOL    HW124867   4.507   6.391   5.158  0.8860 -2.4724 -0.4105
 7325SOL    HW224868   4.578   6.450   5.038 -2.1169  3.6464  0.4245
 7326SOL     OW24869   8.415   2.240   4.524  0.3477 -0.2649 -0.0951
 7326SOL    HW124870   8.408   2.211   4.615  1.9450 -1.3265 -0.2623
 7326SOL    HW224871   8.496   2.199   4.492 -0.5843 -0.5813 -2.2368
 7327SOL     OW24872   2.219   4.711   6.907 -0.0841  0.3255  0.5156
 7327SOL    HW124873   2.263   4.743   6.828  0.6187 -1.0558  0.3290
 7327SOL    HW224874   2.239   4.777   6.973  0.3834  0.8581 -0.1403
 7328SOL     OW24875   1.332   1.873   5.875  0.5591  0.2300 -0.1495
 7328SOL    HW124876   1.280   1.835   5.945  1.5397 -0.0584  0.4453
 7328SOL    HW224877   1.300   1.831   5.795 -0.0979  0.0527  0.2060
 7329SOL     OW24878   6.533   1.633   7.338  0.1641  0.7560  0.4171
 7329SOL    HW124879   6.489   1.687   7.272  0.7771 -0.7346 -1.2945
 7329SOL    HW224880   6.528   1.544   7.303  1.6318  0.0884  1.7857
 7330SOL     OW24881   0.318   9.501   0.519 -0.3026  0.2404 -0.3063
 7330SOL    HW124882   0.279   9.416   0.497  1.6120 -0.4787 -1.2242
 7330SOL    HW224883   0.263   9.566   0.476 -0.9033 -0.6583 -0.9197
 7331SOL     OW24884   0.286   4.531   5.775  0.1728  0.2560 -0.6195
 7331SOL    HW124885   0.257   4.441   5.761  2.4127 -0.5415 -0.5675
 7331SOL    HW224886   0.237   4.583   5.711 -2.1142 -0.7582  0.2321
 7332SOL     OW24887   3.908   4.785   1.282 -0.4574  0.6304 -0.8380
 7332SOL    HW124888   3.895   4.873   1.316 -1.7176  0.3140 -0.4396
 7332SOL    HW224889   3.933   4.733   1.358  1.9201  0.9150 -1.3343
 7333SOL     OW24890   4.239   7.312   3.898 -0.1833 -0.3029 -0.1970
 7333SOL    HW124891   4.320   7.347   3.936  0.3054 -0.2825 -1.2151
 7333SOL    HW224892   4.169   7.361   3.941  0.3577 -0.0891  0.4636
 7334SOL     OW24893   6.787   0.291   3.450 -0.4965  0.2697  0.7511
 7334SOL    HW124894   6.808   0.314   3.541  5.0857  1.3380 -0.4798
 7334SOL    HW224895   6.745   0.369   3.414  0.3941  1.1423  1.5665
 7335SOL     OW24896   5.739   5.037   3.608  0.0550 -0.1596  0.2668
 7335SOL    HW124897   5.701   5.067   3.526 -0.6899  0.9253  0.9883
 7335SOL    HW224898   5.787   5.113   3.642 -0.1166 -0.4140  1.1010
 7336SOL     OW24899   6.801   9.525   5.426  0.0452  0.2459 -0.2131
 7336SOL    HW124900   6.767   9.589   5.488  1.3272  1.2834 -0.5417
 7336SOL    HW224901   6.724   9.481   5.392 -0.8260  1.2455  0.4181
 7337SOL     OW24902   1.930   6.030   7.165 -0.2467 -0.1765 -0.0384
 7337SOL    HW124903   1.879   5.959   7.204 -0.9745  0.3080 -0.0853
 7337SOL    HW224904   1.875   6.062   7.093  0.9448 -0.8779 -1.3191
 7338SOL     OW24905   6.500   3.244   8.851  0.1507 -0.1384  0.4068
 7338SOL    HW124906   6.582   3.215   8.892  0.1496 -0.4916  0.1639
 7338SOL    HW224907   6.519   3.246   8.758  0.0675  0.3920  0.3991
 7339SOL     OW24908   1.101   1.338   6.617 -0.1241  0.1885  0.2179
 7339SOL    HW124909   1.073   1.390   6.692 -2.4085 -0.2676 -0.2340
 7339SOL    HW224910   1.078   1.390   6.540  0.7672 -0.0025 -0.1896
 7340SOL     OW24911   3.369   1.959   4.441 -0.4021  0.6424  0.2338
 7340SOL    HW124912   3.274   1.963   4.441 -0.4953 -0.4601 -1.9231
 7340SOL    HW224913   3.390   1.874   4.480 -0.4151 -0.0223 -1.1534
 7341SOL     OW24914   0.837   4.938   4.471  0.0581 -0.0721 -0.0814
 7341SOL    HW124915   0.796   4.999   4.532  0.2001 -0.8081  0.7633
 7341SOL    HW224916   0.894   4.994   4.417 -0.1662  0.6085  0.3673
 7342SOL     OW24917   0.749   1.799   9.304 -0.1285  0.6895 -0.0848
 7342SOL    HW124918   0.700   1.877   9.278  2.0908  1.5399 -2.1097
 7342SOL    HW224919   0.810   1.784   9.232  2.9023 -0.0086  2.4267
 7343SOL     OW24920   4.119   9.276   4.613 -0.0065  0.3589  0.1213
 7343SOL    HW124921   4.035   9.307   4.580  0.9803  0.3996 -2.6266
 7343SOL    HW224922   4.172   9.355   4.621  0.5063  0.1037 -0.6027
 7344SOL     OW24923   3.791   5.188   2.362  0.1199  0.0741  0.3557
 7344SOL    HW124924   3.748   5.231   2.436  0.8835  0.3794  0.6327
 7344SOL    HW224925   3.884   5.190   2.384  0.3546  0.1500 -0.6117
 7345SOL     OW24926   0.932   0.537   7.717  0.3121  0.0123  0.2223
 7345SOL    HW124927   0.873   0.587   7.773  0.5627  1.1994 -0.5398
 7345SOL    HW224928   1.011   0.525   7.769 -0.1465 -0.5565  0.8097
 7346SOL     OW24929   3.424   4.197   8.866  0.6515 -0.0185 -0.1327
 7346SOL    HW124930   3.368   4.265   8.902  1.7419  0.8481 -0.0295
 7346SOL    HW224931   3.445   4.227   8.777  1.5270  0.0461  0.0814
 7347SOL     OW24932   8.393   6.885   6.657  0.2967 -0.3304 -0.0739
 7347SOL    HW124933   8.454   6.939   6.707  0.0419  2.0998 -2.2178
 7347SOL    HW224934   8.312   6.887   6.709  0.3940  1.1009  0.0630
 7348SOL     OW24935   2.119   4.965   4.275 -0.0742  0.1823  0.1755
 7348SOL    HW124936   2.132   5.023   4.350 -0.6942  0.2201  0.2643
 7348SOL    HW224937   2.206   4.932   4.254  0.4300  1.7925 -0.4069
 7349SOL     OW24938   4.117   3.061   2.375 -0.3263 -1.0943  0.1383
 7349SOL    HW124939   4.072   3.078   2.457 -1.2067  0.8234 -0.7016
 7349SOL    HW224940   4.057   3.006   2.325 -1.2993  0.5315 -0.5319
 7350SOL     OW24941   4.157   3.855   2.623 -0.5478 -0.3515  0.3205
 7350SOL    HW124942   4.082   3.796   2.629  0.4200 -1.5828  0.6484
 7350SOL    HW224943   4.169   3.888   2.712 -0.9865  0.2473  0.1694
 7351SOL     OW24944   0.444   1.566   1.512  0.7039  0.3945 -0.2488
 7351SOL    HW124945   0.476   1.650   1.546 -0.2277 -0.0318  1.8363
 7351SOL    HW224946   0.523   1.516   1.494  1.2533  1.1669 -0.0568
 7352SOL     OW24947   2.180   1.758   1.888 -0.3126 -0.2502 -0.1672
 7352SOL    HW124948   2.162   1.825   1.954  0.1869  2.0758 -2.2435
 7352SOL    HW224949   2.103   1.760   1.831  0.7669  0.3546 -1.6402
 7353SOL     OW24950   2.274   8.361   2.696 -0.0127  0.2767  0.2613
 7353SOL    HW124951   2.330   8.341   2.621 -0.1185  0.7700  0.0438
 7353SOL    HW224952   2.227   8.280   2.713  0.5934 -0.0706  0.2970
 7354SOL     OW24953   2.996   1.516   3.222  0.3466  0.2154  0.0480
 7354SOL    HW124954   2.990   1.424   3.246 -1.4453 -0.1522 -1.5652
 7354SOL    HW224955   3.049   1.516   3.142  0.2011  0.5793 -0.0492
 7355SOL     OW24956   0.790   6.402   5.483 -0.3614 -0.5904  0.1869
 7355SOL    HW124957   0.755   6.318   5.453  1.2310 -0.8594 -1.0638
 7355SOL    HW224958   0.833   6.382   5.566  2.9003 -1.8703 -1.5966
 7356SOL     OW24959   2.747   4.565   8.320 -0.0578 -0.1078 -0.0612
 7356SOL    HW124960   2.674   4.521   8.364 -1.1559  2.5123  0.9829
 7356SOL    HW224961   2.716   4.580   8.231 -0.7910  0.8721  0.3406
 7357SOL     OW24962   2.131   9.012   2.002 -0.5274  0.2809  0.4200
 7357SOL    HW124963   2.120   8.938   1.943 -0.7110  2.0155 -1.8834
 7357SOL    HW224964   2.051   9.062   1.993 -0.0300  1.2594  1.1937
 7358SOL     OW24965   3.930   1.004   5.652  0.1843 -0.2629 -0.0238
 7358SOL    HW124966   4.015   1.001   5.609  0.0680 -0.8516 -0.2256
 7358SOL    HW224967   3.870   1.038   5.586 -0.1815 -2.0866 -0.6761
 7359SOL     OW24968   8.445   3.192   0.233 -0.5899  0.1181 -0.1173
 7359SOL    HW124969   8.447   3.236   0.148 -1.4762 -0.0441 -0.2414
 7359SOL    HW224970   8.365   3.139   0.230  1.7621 -3.7005 -1.0491
 7360SOL     OW24971   4.687   4.440   5.563  0.1121 -0.3944  0.6203
 7360SOL    HW124972   4.615   4.455   5.624  0.6226  1.4204  0.8356
 7360SOL    HW224973   4.659   4.366   5.510 -0.6774 -1.5242  2.5351
 7361SOL     OW24974   5.838   1.870   2.166 -0.6383 -0.2829  0.3555
 7361SOL    HW124975   5.783   1.792   2.165 -0.2275 -0.5844 -1.1375
 7361SOL    HW224976   5.918   1.843   2.121 -0.6894  1.1361 -0.6520
 7362SOL     OW24977   7.299   2.211   2.465 -0.1043 -0.2333 -0.1257
 7362SOL    HW124978   7.252   2.249   2.539 -1.1186 -0.2687 -0.7327
 7362SOL    HW224979   7.239   2.219   2.391  0.6478 -0.7472 -0.8180
 7363SOL     OW24980   5.467   8.147   6.371 -0.6652  0.3575 -0.4571
 7363SOL    HW124981   5.449   8.240   6.389 -1.7797 -0.2703  2.0513
 7363SOL    HW224982   5.521   8.118   6.444  1.3868 -0.5588 -2.2297
 7364SOL     OW24983   9.191   8.678   9.070  0.5191 -0.5444 -0.2112
 7364SOL    HW124984   9.165   8.621   9.142  0.3478  0.7225  0.7518
 7364SOL    HW224985   9.183   8.623   8.992 -0.0919 -1.6899  0.6326
 7365SOL     OW24986   8.359   4.292   3.473 -0.5180 -0.4885 -0.2161
 7365SOL    HW124987   8.386   4.218   3.418 -0.3446 -0.9614  0.4943
 7365SOL    HW224988   8.375   4.369   3.418  1.1881 -0.8241 -0.2647
 7366SOL     OW24989   1.554   5.044   3.939 -0.2527 -0.4036 -0.6167
 7366SOL    HW124990   1.506   5.057   4.021 -0.3620  1.0773 -0.8738
 7366SOL    HW224991   1.494   4.994   3.884 -1.6077  1.4397 -0.9411
 7367SOL     OW24992   6.373   1.295   2.579  0.0382  0.7010 -0.4858
 7367SOL    HW124993   6.467   1.312   2.572  0.1225  0.0374 -1.1771
 7367SOL    HW224994   6.361   1.260   2.667  0.2300  1.9926  0.0685
 7368SOL     OW24995   0.361   2.476   4.496 -0.1618  0.1090 -0.0171
 7368SOL    HW124996   0.369   2.381   4.499  1.5847  0.1733 -1.3201
 7368SOL    HW224997   0.303   2.492   4.421 -0.1566  0.0847 -0.0267
 7369SOL     OW24998   7.364   9.363   8.382 -0.4575 -0.2498 -0.1950
 7369SOL    HW124999   7.378   9.439   8.440  1.7185 -0.4869 -0.3426
 7369SOL    HW225000   7.450   9.325   8.371 -1.1958 -1.5877 -1.7770
 7370SOL     OW25001   0.807   2.490   5.558  0.1795  0.2005 -0.6440
 7370SOL    HW125002   0.847   2.404   5.565  0.4428  0.3083 -0.8126
 7370SOL    HW225003   0.725   2.483   5.607 -0.7872 -0.7353 -2.3361
 7371SOL     OW25004   1.833   1.749   8.316 -0.9511  0.1071 -0.1006
 7371SOL    HW125005   1.894   1.679   8.291 -2.0151 -1.2376  0.8911
 7371SOL    HW225006   1.878   1.796   8.386 -0.3452  0.2298 -0.5663
 7372SOL     OW25007   0.938   1.960   4.937  0.1419 -0.7065 -0.0270
 7372SOL    HW125008   0.977   1.981   4.853  1.0586  1.8792  0.9224
 7372SOL    HW225009   0.867   1.899   4.917  1.6038 -1.7508 -2.3762
 7373SOL     OW25010   5.684   8.364   1.189 -0.4017 -0.7091  0.3571
 7373SOL    HW125011   5.762   8.402   1.149 -1.4615  2.8896  1.3082
 7373SOL    HW225012   5.629   8.339   1.114 -0.4520  1.6340 -0.4586
 7374SOL     OW25013   2.249   3.885   1.088 -0.2882  0.0098 -0.1453
 7374SOL    HW125014   2.281   3.961   1.136 -0.2082 -0.6817  0.9202
 7374SOL    HW225015   2.169   3.915   1.045 -1.2166  0.2404  1.6674
 7375SOL     OW25016   4.438   7.941   2.547 -0.1417 -0.3203  0.0578
 7375SOL    HW125017   4.465   7.969   2.459 -0.6342 -0.3100 -0.0933
 7375SOL    HW225018   4.383   7.864   2.532 -1.8262  0.8048  0.2068
 7376SOL     OW25019   2.673   4.311   5.798  0.2068 -0.0665  0.3176
 7376SOL    HW125020   2.676   4.366   5.721  2.0658 -0.0172  0.3712
 7376SOL    HW225021   2.626   4.363   5.864  0.8027  0.9287 -0.0254
 7377SOL     OW25022   2.112   1.170   2.581  0.0385 -0.2936 -0.0509
 7377SOL    HW125023   2.178   1.194   2.516 -0.1621  0.0602 -0.1295
 7377SOL    HW225024   2.093   1.252   2.627 -2.3252  0.2678 -1.8255
 7378SOL     OW25025   1.389   7.839   4.087 -0.0523  0.2858 -0.4613
 7378SOL    HW125026   1.343   7.760   4.113  0.9744 -0.0061  0.5400
 7378SOL    HW225027   1.458   7.807   4.027 -0.3742  0.5711 -0.9913
 7379SOL     OW25028   8.237   1.714   2.369 -0.2578 -0.0114 -0.3345
 7379SOL    HW125029   8.249   1.677   2.281  0.2169  0.9784 -0.7033
 7379SOL    HW225030   8.314   1.770   2.382 -0.4399  0.0254  0.6216
 7380SOL     OW25031   6.800   4.928   7.123 -0.1137 -0.0315  0.5785
 7380SOL    HW125032   6.817   4.884   7.206 -0.7694  2.1423  1.9609
 7380SOL    HW225033   6.884   4.969   7.101 -0.2421  0.3467  0.7881
 7381SOL     OW25034   8.669   3.504   8.144 -0.0641  0.2312  0.1313
 7381SOL    HW125035   8.738   3.571   8.147  0.0443  0.1033  0.5480
 7381SOL    HW225036   8.715   3.422   8.162 -0.1340 -0.0116 -0.7337
 7382SOL     OW25037   7.298   1.233   5.514  0.3807  0.2362  0.4339
 7382SOL    HW125038   7.267   1.220   5.424  1.7205 -1.0143  0.1235
 7382SOL    HW225039   7.312   1.328   5.521  1.4564  0.2278 -1.1084
 7383SOL     OW25040   7.133   4.775   9.222  0.5449  0.4053  0.1258
 7383SOL    HW125041   7.076   4.698   9.218 -0.2660  0.9625  0.6199
 7383SOL    HW225042   7.074   4.849   9.213  1.3009  0.9793 -0.1954
 7384SOL     OW25043   5.101   5.118   6.043 -0.6219 -0.2965 -0.3920
 7384SOL    HW125044   5.058   5.175   5.980 -0.6305 -0.5865 -0.6479
 7384SOL    HW225045   5.116   5.174   6.119 -0.0083  0.2368 -0.8966
 7385SOL     OW25046   9.448   4.058   7.026  0.1304  0.2939 -0.3194
 7385SOL    HW125047   9.505   4.127   6.992  0.9681 -0.6617 -0.9210
 7385SOL    HW225048   9.509   3.990   7.055 -0.5509  0.8533  2.7629
 7386SOL     OW25049   2.153   3.674   0.762 -0.4477  0.7571  0.5050
 7386SOL    HW125050   2.135   3.760   0.724 -1.0446  0.6765  0.6048
 7386SOL    HW225051   2.161   3.616   0.687  1.2876  1.1326  0.3588
 7387SOL     OW25052   8.515   4.718   8.451  0.6229 -0.1561 -0.1811
 7387SOL    HW125053   8.607   4.743   8.454  0.4983  0.2640  0.0932
 7387SOL    HW225054   8.467   4.800   8.439  0.3177 -0.4286 -0.9145
 7388SOL     OW25055   0.922   8.150   4.024 -0.7846 -0.1809 -0.2301
 7388SOL    HW125056   1.012   8.182   4.031 -0.6921  0.0884 -2.0622
 7388SOL    HW225057   0.870   8.210   4.078 -0.2340  1.5026 -1.4821
 7389SOL     OW25058   4.173   6.494   4.461  0.2173  0.8985  0.0689
 7389SOL    HW125059   4.123   6.574   4.480 -0.7897 -0.0412  1.5940
 7389SOL    HW225060   4.185   6.453   4.547  1.5131 -0.1453 -0.5820
 7390SOL     OW25061   7.631   0.195   4.929 -0.2220  0.2658  0.6084
 7390SOL    HW125062   7.630   0.132   4.858 -0.8649  0.1125  0.7432
 7390SOL    HW225063   7.713   0.178   4.976 -0.2546 -0.2696  0.4697
 7391SOL     OW25064   3.881   8.774   7.361  0.0111  0.3903  0.0719
 7391SOL    HW125065   3.841   8.745   7.443  0.4774  2.0818  0.9534
 7391SOL    HW225066   3.865   8.703   7.299 -0.8536 -0.6773  1.4734
 7392SOL     OW25067   8.816   0.925   5.462  0.2614  0.3950  0.1053
 7392SOL    HW125068   8.798   0.834   5.438 -3.4421  0.5433  1.7137
 7392SOL    HW225069   8.833   0.923   5.556 -0.1016  1.3657  0.2110
 7393SOL     OW25070   9.276   1.263   3.812  0.4530  0.4310  0.0779
 7393SOL    HW125071   9.203   1.307   3.769  1.0540  0.3839 -1.0537
 7393SOL    HW225072   9.287   1.182   3.762  1.5752  0.6692 -0.0872
 7394SOL     OW25073   0.874   6.247   2.773  0.2779  0.3559 -0.1231
 7394SOL    HW125074   0.876   6.209   2.861 -0.1855 -0.6701 -0.5443
 7394SOL    HW225075   0.949   6.307   2.772 -0.8552  1.9161  1.6187
 7395SOL     OW25076   9.552   2.984   3.032 -0.6216  0.4085  0.1964
 7395SOL    HW125077   9.550   2.900   2.988 -1.0313 -0.3270  1.5637
 7395SOL    HW225078   9.596   3.043   2.970 -0.2174 -0.8252 -0.7187
 7396SOL     OW25079   6.411   1.616   7.678 -0.6453  0.0941 -0.0618
 7396SOL    HW125080   6.450   1.702   7.693 -0.9392 -0.2835  4.1095
 7396SOL    HW225081   6.485   1.555   7.682 -0.2897  0.0531 -4.0123
 7397SOL     OW25082   3.730   4.743   5.368  0.3014  0.4519 -0.1814
 7397SOL    HW125083   3.713   4.652   5.393  1.2574  0.1743 -0.5079
 7397SOL    HW225084   3.797   4.772   5.430  0.8970  0.5364 -0.8567
 7398SOL     OW25085   5.221   7.060   0.546  0.2490  0.0408  0.3407
 7398SOL    HW125086   5.306   7.097   0.523  0.0136 -0.5087 -1.6041
 7398SOL    HW225087   5.241   6.995   0.614  1.1976  0.7187  0.7476
 7399SOL     OW25088   6.080   8.530   3.039  0.4955 -0.5332 -0.5195
 7399SOL    HW125089   6.024   8.459   3.073 -0.1028  0.5048  0.7545
 7399SOL    HW225090   6.022   8.581   2.983  0.6040 -0.3787 -0.4909
 7400SOL     OW25091   0.071   3.558   8.504 -0.1241  0.2438  0.1450
 7400SOL    HW125092   0.052   3.643   8.465 -0.4049  0.7790  1.4016
 7400SOL    HW225093   0.131   3.578   8.577 -1.0086 -0.4920  1.1092
 7401SOL     OW25094   2.436   0.765   4.149 -0.1267 -0.4040  0.6440
 7401SOL    HW125095   2.385   0.689   4.176  1.5195 -1.6951  0.3344
 7401SOL    HW225096   2.504   0.773   4.216  1.0027 -0.5590 -0.4442
 7402SOL     OW25097   5.204   0.899   7.705  0.3425  0.0325 -0.1316
 7402SOL    HW125098   5.211   0.895   7.800  0.6039  0.4029 -0.1314
 7402SOL    HW225099   5.290   0.871   7.673  0.6698  1.0729 -0.2236
 7403SOL     OW25100   7.993   9.604   6.998 -0.1981  0.4712 -0.0030
 7403SOL    HW125101   7.955   9.669   6.939 -0.7219 -0.1744 -0.3900
 7403SOL    HW225102   8.080   9.587   6.963  0.4247  1.8355  0.7939
 7404SOL     OW25103   2.520   0.188   9.003  0.4444  0.4826 -0.6604
 7404SOL    HW125104   2.573   0.152   8.932 -0.9009  0.0802 -1.4998
 7404SOL    HW225105   2.504   0.114   9.062  0.7617  0.5893 -0.4393
 7405SOL     OW25106   1.808   9.339   7.852  0.3363 -0.1780  0.7337
 7405SOL    HW125107   1.774   9.313   7.937 -2.3216 -0.0849 -0.2065
 7405SOL    HW225108   1.812   9.258   7.801 -0.5146  0.0978  0.2012
 7406SOL     OW25109   6.251   0.057   0.385  0.6723  0.3754 -0.4335
 7406SOL    HW125110   6.330   0.033   0.337 -0.2925 -1.3217 -1.2428
 7406SOL    HW225111   6.245  -0.009   0.454  0.6641  1.2984  0.4726
 7407SOL     OW25112   9.189   8.796   1.770 -0.4889  0.3103  0.3816
 7407SOL    HW125113   9.252   8.729   1.746 -0.2726  0.3390  0.8528
 7407SOL    HW225114   9.131   8.754   1.834 -1.5803 -0.0250 -0.7790
 7408SOL     OW25115   0.276   0.599   8.994  0.1865 -0.0841 -0.2515
 7408SOL    HW125116   0.227   0.653   8.932 -0.0163  0.5906  0.4735
 7408SOL    HW225117   0.209   0.542   9.033  0.0264  0.5557  0.4431
 7409SOL     OW25118   6.739   9.261   0.696  0.3046  0.0388  0.3899
 7409SOL    HW125119   6.653   9.244   0.737  0.2434 -2.0856 -0.4934
 7409SOL    HW225120   6.729   9.347   0.655 -0.6119  0.8849  2.2443
 7410SOL     OW25121   1.342   8.132   4.232 -0.2496  0.1083  0.3943
 7410SOL    HW125122   1.395   8.189   4.177 -0.6948 -0.7344 -0.9469
 7410SOL    HW225123   1.252   8.152   4.208 -0.6920  2.1593  3.2684
 7411SOL     OW25124   6.376   7.693   6.923  0.5587  0.1779  0.5737
 7411SOL    HW125125   6.444   7.636   6.888  0.8332  0.5518  0.4929
 7411SOL    HW225126   6.423   7.757   6.976  0.2400  0.2424  0.7830
 7412SOL     OW25127   8.015   2.991   4.546 -0.2633 -0.1514  0.7627
 7412SOL    HW125128   7.975   2.904   4.557 -0.8983  0.0510  0.1321
 7412SOL    HW225129   8.041   3.015   4.635 -0.9189 -0.6012  1.0964
 7413SOL     OW25130   0.143   9.219   6.926  0.5042  0.4845 -0.2385
 7413SOL    HW125131   0.156   9.232   7.019 -0.2041 -1.4055  0.1714
 7413SOL    HW225132   0.230   9.199   6.891  0.6849  0.6838  0.0992
 7414SOL     OW25133   8.582   5.195   6.385  0.2669  0.4085 -0.1528
 7414SOL    HW125134   8.590   5.243   6.467 -2.2707  0.8856 -0.1224
 7414SOL    HW225135   8.489   5.200   6.362  0.7153 -0.5795 -2.5380
 7415SOL     OW25136   8.428   4.870   3.466  0.3958 -0.0771 -0.5863
 7415SOL    HW125137   8.389   4.808   3.528 -1.7359  1.3550 -0.3910
 7415SOL    HW225138   8.520   4.875   3.492 -0.3843  0.3900  2.4435
 7416SOL     OW25139   0.130   6.834   4.576  0.0368 -0.4804  0.2989
 7416SOL    HW125140   0.181   6.910   4.605 -0.1920 -0.2784  0.1769
 7416SOL    HW225141   0.166   6.812   4.490 -0.5655  0.1218 -0.1186
 7417SOL     OW25142   4.723   3.725   2.629 -0.1232  0.0316 -0.0362
 7417SOL    HW125143   4.775   3.673   2.690  1.9458  0.2060 -1.5642
 7417SOL    HW225144   4.685   3.794   2.684  0.5178 -0.6337  1.2943
 7418SOL     OW25145   3.769   5.691   1.138 -0.2769  0.5142 -0.0322
 7418SOL    HW125146   3.782   5.598   1.122  1.0628  0.5299  0.7707
 7418SOL    HW225147   3.711   5.721   1.068  0.1791 -0.6900 -0.9413
 7419SOL     OW25148   0.319   1.295   0.638 -0.2153  0.5304  0.1035
 7419SOL    HW125149   0.311   1.209   0.677 -0.9154  0.7045  0.3619
 7419SOL    HW225150   0.356   1.350   0.707  1.2569  0.2136 -0.3987
 7420SOL     OW25151   5.180   4.119   6.530 -0.1931  0.2089 -0.3063
 7420SOL    HW125152   5.125   4.040   6.521  0.6808 -0.1477 -3.7964
 7420SOL    HW225153   5.269   4.086   6.526  0.1930  1.2968 -0.8417
 7421SOL     OW25154   1.975   8.745   4.674 -0.2073 -0.3013  0.0144
 7421SOL    HW125155   1.978   8.650   4.665  1.3025 -0.3465  0.6733
 7421SOL    HW225156   2.066   8.773   4.672 -0.4378  0.8814  2.0971
 7422SOL     OW25157   6.837   7.045   8.465 -0.0149  0.1032  0.2000
 7422SOL    HW125158   6.826   7.139   8.475 -2.0357  0.1215 -1.4475
 7422SOL    HW225159   6.749   7.009   8.476  0.7507 -1.6584  1.0829
 7423SOL     OW25160   2.022   2.377   3.375  0.6781 -0.5982 -0.2475
 7423SOL    HW125161   2.078   2.311   3.416  1.6574 -0.0155 -0.6194
 7423SOL    HW225162   1.933   2.351   3.398  1.1688 -0.6252  1.7517
 7424SOL     OW25163   3.028   4.652   7.555  0.4984 -0.6374  0.3802
 7424SOL    HW125164   3.013   4.738   7.594  0.5625 -0.0901 -0.7666
 7424SOL    HW225165   3.072   4.602   7.624  0.9035  0.4023  0.8981
 7425SOL     OW25166   8.589   4.752   0.798 -0.4030 -0.2455  0.6347
 7425SOL    HW125167   8.584   4.837   0.841 -0.4901 -0.4411  1.0200
 7425SOL    HW225168   8.554   4.767   0.710  0.1507  0.2454  0.4986
 7426SOL     OW25169   6.320   1.348   3.588 -0.5579 -0.0394  0.2268
 7426SOL    HW125170   6.237   1.390   3.566 -0.6530  0.1237  0.8575
 7426SOL    HW225171   6.361   1.409   3.650  1.2215  1.1776 -1.9877
 7427SOL     OW25172   2.296   4.737   5.419 -0.0813 -0.4392 -0.0996
 7427SOL    HW125173   2.383   4.697   5.413 -0.1160 -0.7078  0.9015
 7427SOL    HW225174   2.265   4.743   5.329  0.8486 -0.6293 -0.4395
 7428SOL     OW25175   9.353   6.616   8.378  0.1101  0.3199 -0.2587
 7428SOL    HW125176   9.384   6.609   8.469 -0.8097  0.7064  0.0952
 7428SOL    HW225177   9.333   6.526   8.353 -2.4648  0.4485  0.9753
 7429SOL     OW25178   4.920   1.761   4.067 -0.3020  0.3647 -0.1240
 7429SOL    HW125179   4.868   1.695   4.021 -0.7985  0.6381  0.0457
 7429SOL    HW225180   4.903   1.744   4.160  0.4287  0.0351 -0.0382
 7430SOL     OW25181   2.100   3.725   6.353 -0.5976 -0.1999  0.0754
 7430SOL    HW125182   2.105   3.652   6.292 -1.6184 -0.9445  0.8567
 7430SOL    HW225183   2.058   3.795   6.303  1.9294  0.5109 -1.2360
 7431SOL     OW25184   5.592   2.352   4.392  0.6460  0.0906  0.0286
 7431SOL    HW125185   5.645   2.431   4.408  0.8917  0.2163 -1.3174
 7431SOL    HW225186   5.632   2.312   4.315 -0.3324 -0.6202 -0.1207
 7432SOL     OW25187   8.035   7.311   3.312 -0.2284  0.5346 -0.5789
 7432SOL    HW125188   8.119   7.280   3.345 -0.1839  2.5489  1.4189
 7432SOL    HW225189   8.034   7.286   3.220  2.2908 -0.0633 -0.4916
 7433SOL     OW25190   7.610   3.850   1.221  0.5697 -0.2914 -0.0582
 7433SOL    HW125191   7.591   3.838   1.314 -0.4275  0.1188 -0.1975
 7433SOL    HW225192   7.536   3.809   1.175 -0.2068  1.6008 -0.6112
 7434SOL     OW25193   3.358   7.488   1.555  0.1446  0.2668 -0.1752
 7434SOL    HW125194   3.329   7.500   1.645  0.8385  1.9141 -0.1356
 7434SOL    HW225195   3.454   7.495   1.560  0.1729  0.6328 -1.0661
 7435SOL     OW25196   0.552   1.702   2.755 -0.5332  0.4715  0.2364
 7435SOL    HW125197   0.492   1.765   2.796 -0.1219  0.8055  0.3291
 7435SOL    HW225198   0.545   1.624   2.810 -0.6074  0.6357  0.4642
 7436SOL     OW25199   3.224   2.997   0.744  0.3148  0.5727  0.2948
 7436SOL    HW125200   3.302   3.053   0.743 -0.1056  1.1800  0.4858
 7436SOL    HW225201   3.218   2.963   0.654  2.0687 -1.3274  0.8330
 7437SOL     OW25202   7.193   7.465   1.612 -0.1858  0.0730  0.4329
 7437SOL    HW125203   7.167   7.537   1.668 -0.1692  0.7597 -0.4133
 7437SOL    HW225204   7.116   7.447   1.558 -0.3061 -0.7789  0.8707
 7438SOL     OW25205   9.066   2.448   3.634 -0.8097  0.1234  0.2167
 7438SOL    HW125206   9.085   2.459   3.727 -1.1981  1.6650  0.1448
 7438SOL    HW225207   9.055   2.538   3.601  0.5203 -0.3157 -1.5717
 7439SOL     OW25208   2.302   0.508   9.149  0.0259 -0.0055  0.7525
 7439SOL    HW125209   2.222   0.457   9.167  1.0014 -2.0606 -0.3727
 7439SOL    HW225210   2.316   0.498   9.055  0.7988  1.6334  0.6622
 7440SOL     OW25211   4.804   5.438   7.009 -0.7657  0.0375 -0.5671
 7440SOL    HW125212   4.840   5.513   6.963  0.1790  0.3538  0.6374
 7440SOL    HW225213   4.864   5.366   6.989 -1.5200 -0.3506 -1.5011
 7441SOL     OW25214   5.685   5.115   2.724  0.2248  0.1455 -0.3302
 7441SOL    HW125215   5.657   5.148   2.809  0.2444  1.5717 -0.8455
 7441SOL    HW225216   5.706   5.023   2.739 -1.8534 -0.2136  0.7388
 7442SOL     OW25217   2.274   3.969   5.011 -0.0069 -0.7273 -0.0812
 7442SOL    HW125218   2.211   3.901   5.033  0.8201 -0.8627  2.1970
 7442SOL    HW225219   2.231   4.051   5.035 -0.0594 -0.6555 -0.4172
 7443SOL     OW25220   3.403   1.933   3.561 -0.8261 -0.5959 -0.1783
 7443SOL    HW125221   3.477   1.957   3.617  0.6346 -0.9196 -1.8643
 7443SOL    HW225222   3.339   1.895   3.621  0.7054 -1.0354  1.2671
 7444SOL     OW25223   0.417   0.093   7.686 -0.2963  0.5257  0.6559
 7444SOL    HW125224   0.407  -0.003   7.687  1.7115  0.2409 -0.7148
 7444SOL    HW225225   0.493   0.110   7.741  0.2983  1.1654 -0.3356
 7445SOL     OW25226   5.671   8.073   7.219 -0.1579 -0.2936  0.3776
 7445SOL    HW125227   5.706   8.007   7.279 -0.8981  1.4489  2.8635
 7445SOL    HW225228   5.742   8.137   7.211 -0.4664  0.0299  0.2505
 7446SOL     OW25229   5.522   4.415   3.208  0.5191 -0.6140  0.0229
 7446SOL    HW125230   5.558   4.500   3.236 -0.1011 -0.3674  0.0868
 7446SOL    HW225231   5.581   4.351   3.246 -0.2397 -0.2891  1.8509
 7447SOL     OW25232   8.738   4.045   6.116  1.0196  0.4663  0.5264
 7447SOL    HW125233   8.803   3.994   6.166  0.2460 -1.3806 -0.2492
 7447SOL    HW225234   8.654   4.020   6.154  0.5526  0.4241 -0.5108
 7448SOL     OW25235   2.250   2.709   2.485 -0.3870  0.4654 -0.6458
 7448SOL    HW125236   2.304   2.649   2.535 -0.3626 -0.0068 -1.2275
 7448SOL    HW225237   2.192   2.653   2.433 -0.8014  0.9500 -0.7199
 7449SOL     OW25238   6.580   6.074   5.745 -0.1858 -0.1931 -0.2628
 7449SOL    HW125239   6.637   6.032   5.810 -1.5528  1.6705  2.3271
 7449SOL    HW225240   6.501   6.020   5.745 -0.0623 -0.3735 -0.6222
 7450SOL     OW25241   8.677   0.239   6.282 -0.0779 -0.4312  0.3043
 7450SOL    HW125242   8.737   0.286   6.224 -0.0090 -1.3867 -0.4197
 7450SOL    HW225243   8.631   0.178   6.225 -1.3323 -0.1152  0.9541
 7451SOL     OW25244   5.838   0.244   8.363  0.4151  0.3637 -0.0316
 7451SOL    HW125245   5.930   0.221   8.350  0.2999  0.6246 -1.3622
 7451SOL    HW225246   5.791   0.190   8.300 -0.2306  1.1368 -0.2178
 7452SOL     OW25247   4.270   0.401   4.679  0.1855 -0.4274  0.2226
 7452SOL    HW125248   4.341   0.392   4.742  2.3104 -0.0318 -1.9651
 7452SOL    HW225249   4.280   0.325   4.621 -3.0000 -1.9426  1.4235
 7453SOL     OW25250   5.736   3.536   6.826  0.2199 -0.4837  0.3219
 7453SOL    HW125251   5.733   3.443   6.846  1.6809 -1.0992 -1.9017
 7453SOL    HW225252   5.826   3.562   6.846 -0.0058  0.3008  0.3390
 7454SOL     OW25253   7.481   0.701   9.620 -0.6277 -0.1973  0.3346
 7454SOL    HW125254   7.569   0.708   9.584 -1.1953  1.7048 -0.7699
 7454SOL    HW225255   7.484   0.750   9.702 -0.6773 -0.0428  0.2446
 7455SOL     OW25256   7.333   7.988   5.364  0.7354  0.4279 -0.0988
 7455SOL    HW125257   7.305   8.001   5.273  0.6529 -0.2043 -0.1691
 7455SOL    HW225258   7.299   7.902   5.387  1.1499  0.3909  0.3866
 7456SOL     OW25259   1.449   2.206   5.501  0.2490 -0.2163  0.5313
 7456SOL    HW125260   1.502   2.145   5.450 -1.5072 -1.9126  0.6145
 7456SOL    HW225261   1.463   2.180   5.592  2.4950  2.0786  0.9432
 7457SOL     OW25262   4.183   2.836   8.007 -0.5051 -0.6232 -0.0217
 7457SOL    HW125263   4.238   2.809   8.080 -0.2491  0.4260  0.1850
 7457SOL    HW225264   4.110   2.881   8.047 -0.8619 -0.8867 -0.3699
 7458SOL     OW25265   4.000   5.239   6.810 -0.9286 -0.5606 -0.5429
 7458SOL    HW125266   4.018   5.149   6.783  0.0251 -0.1056 -1.4712
 7458SOL    HW225267   3.988   5.287   6.728 -2.7375 -0.0756 -0.0390
 7459SOL     OW25268   4.850   6.437   5.557  0.1193 -0.1749 -0.3958
 7459SOL    HW125269   4.926   6.378   5.554  1.0601  1.0351 -1.2352
 7459SOL    HW225270   4.863   6.497   5.484 -2.1463 -0.4817 -1.1430
 7460SOL     OW25271   7.579   2.133   3.109 -0.1283 -0.3251  0.2629
 7460SOL    HW125272   7.547   2.164   3.193 -2.2226  2.0104 -1.2295
 7460SOL    HW225273   7.649   2.195   3.087  0.3256 -0.8495  0.2283
 7461SOL     OW25274   1.394   9.397   2.895  0.1472 -0.5541 -0.4191
 7461SOL    HW125275   1.373   9.373   2.805  1.3959 -2.0748 -0.3406
 7461SOL    HW225276   1.317   9.370   2.946 -0.6103  0.4174 -1.0156
 7462SOL     OW25277   7.530   2.794   6.856  0.1022 -0.1604 -0.4422
 7462SOL    HW125278   7.504   2.719   6.802 -0.4223 -0.8071  0.6829
 7462SOL    HW225279   7.448   2.840   6.874  0.3104  0.1962 -0.3851
 7463SOL     OW25280   4.246   6.064   2.870 -1.0173  0.4514  0.0869
 7463SOL    HW125281   4.285   6.077   2.957 -0.5629  1.7599 -0.2874
 7463SOL    HW225282   4.302   5.998   2.828 -0.4817  0.7456  0.3301
 7464SOL     OW25283   0.845   0.126   1.671 -0.2956  0.0501  0.4290
 7464SOL    HW125284   0.871   0.119   1.763  0.0082 -1.5148  0.2387
 7464SOL    HW225285   0.928   0.122   1.623 -0.4817  0.5185  0.0584
 7465SOL     OW25286   6.122   1.427   1.879 -0.2161 -0.1846 -0.3361
 7465SOL    HW125287   6.170   1.346   1.899  0.7429  1.0244  2.8885
 7465SOL    HW225288   6.189   1.486   1.844 -0.2124  0.1976  0.3053
 7466SOL     OW25289   0.467   0.055   5.460 -0.0636 -0.3350 -0.1901
 7466SOL    HW125290   0.514   0.007   5.392 -1.0811  0.8753 -1.8035
 7466SOL    HW225291   0.414  -0.012   5.504 -1.4661 -0.7775 -2.4019
 7467SOL     OW25292   9.013   9.025   7.586 -0.1927 -0.0472 -0.6086
 7467SOL    HW125293   9.092   9.043   7.637  0.0081 -0.7512 -0.6531
 7467SOL    HW225294   9.026   9.072   7.504  0.5246 -0.7563 -0.9110
 7468SOL     OW25295   4.072   0.992   4.400  0.5513  0.2334  0.0467
 7468SOL    HW125296   4.063   0.900   4.375  2.2909  0.3388 -1.1109
 7468SOL    HW225297   4.141   0.992   4.466  0.5365  0.7073  0.0648
 7469SOL     OW25298   9.156   6.573   0.147 -0.5515 -0.0708 -0.5585
 7469SOL    HW125299   9.127   6.572   0.239 -0.3066 -0.5392 -0.4836
 7469SOL    HW225300   9.082   6.536   0.099 -0.6957  0.2123 -0.5579
 7470SOL     OW25301   1.710   3.014   4.136 -0.3838  0.2291 -0.3929
 7470SOL    HW125302   1.802   3.015   4.163 -0.6037  0.2408  0.3717
 7470SOL    HW225303   1.696   2.924   4.104  0.1620  0.5199 -1.5038
 7471SOL     OW25304   9.597   3.033   7.464  0.3749 -0.4521  0.0771
 7471SOL    HW125305   9.530   2.973   7.498  0.0019 -0.1474 -0.1074
 7471SOL    HW225306   9.597   3.017   7.370  1.0829 -0.9694  0.1563
 7472SOL     OW25307   2.589   5.124   5.765 -0.7152  0.3412 -0.0541
 7472SOL    HW125308   2.537   5.101   5.688 -1.5896 -1.4419  1.0119
 7472SOL    HW225309   2.668   5.165   5.729 -1.0382 -0.5644 -1.9114
 7473SOL     OW25310   6.870   7.188   1.339  0.4511  0.3179 -0.2133
 7473SOL    HW125311   6.940   7.130   1.310  1.1911  0.1114  1.8360
 7473SOL    HW225312   6.834   7.145   1.416 -0.3335  1.6013  0.1632
 7474SOL     OW25313   6.866   8.718   5.019  0.5176  0.0696  0.3223
 7474SOL    HW125314   6.790   8.753   5.066  0.6546 -0.3424  0.8595
 7474SOL    HW225315   6.859   8.623   5.030 -0.3724 -0.1728 -1.9233
 7475SOL     OW25316   4.168   3.921   7.626 -0.4118  1.2525  0.4635
 7475SOL    HW125317   4.132   3.856   7.565 -0.8399  1.9193 -0.0114
 7475SOL    HW225318   4.200   3.869   7.700 -2.2741  0.5981  0.8707
 7476SOL     OW25319   1.499   7.420   7.063  0.1883 -0.3740 -0.1278
 7476SOL    HW125320   1.560   7.349   7.085  1.0292  0.5239  0.5002
 7476SOL    HW225321   1.503   7.425   6.967 -0.5567 -1.7347 -0.2674
 7477SOL     OW25322   5.627   5.217   6.726 -0.1254  0.0254  0.1192
 7477SOL    HW125323   5.563   5.148   6.707 -0.0854  0.2287 -0.7848
 7477SOL    HW225324   5.596   5.256   6.808  0.2032 -1.4716  0.9965
 7478SOL     OW25325   2.535   6.978   9.500 -0.1492  0.1367 -0.0435
 7478SOL    HW125326   2.501   7.018   9.420 -0.5500 -0.6220 -0.2552
 7478SOL    HW225327   2.567   6.892   9.473  0.1989  0.0782  0.5182
 7479SOL     OW25328   7.095   6.675   2.436  0.4475  0.2602 -0.3670
 7479SOL    HW125329   7.169   6.734   2.423 -0.7910  1.7458 -0.9878
 7479SOL    HW225330   7.054   6.668   2.350 -0.1998 -0.4334 -0.0151
 7480SOL     OW25331   3.575   8.673   1.237  0.4164  0.7362  0.2507
 7480SOL    HW125332   3.644   8.716   1.187  0.3535  0.5017 -0.0370
 7480SOL    HW225333   3.598   8.580   1.236  0.1843  0.6770  0.2950
 7481SOL     OW25334   5.401   1.545   5.239 -0.7984 -0.2735 -0.3524
 7481SOL    HW125335   5.306   1.559   5.239 -0.8014 -0.2827 -0.6328
 7481SOL    HW225336   5.424   1.537   5.331 -0.7690  1.9032 -0.1091
 7482SOL     OW25337   5.202   2.052   6.800  0.2249 -0.3547 -0.5251
 7482SOL    HW125338   5.241   1.965   6.805  1.3221  0.1182 -0.7316
 7482SOL    HW225339   5.264   2.109   6.845 -1.6198 -0.0278  1.8623
 7483SOL     OW25340   0.936   1.780   1.496 -0.4844 -0.0445 -0.6457
 7483SOL    HW125341   0.932   1.773   1.592  1.8876 -0.4314 -0.5235
 7483SOL    HW225342   0.849   1.812   1.471 -1.2545 -0.1972  1.5995
 7484SOL     OW25343   8.230   0.622   4.821 -0.7439  0.1999  0.4649
 7484SOL    HW125344   8.318   0.617   4.785 -1.0488 -3.1110 -0.1426
 7484SOL    HW225345   8.178   0.666   4.754  0.0688  0.5094  0.0272
 7485SOL     OW25346   9.044   4.110   1.892 -0.1941 -0.0081  0.1033
 7485SOL    HW125347   9.002   4.027   1.914 -1.6291  0.5875 -0.2760
 7485SOL    HW225348   9.008   4.134   1.807 -0.0459  1.1557  0.3475
 7486SOL     OW25349   1.103   7.101   2.164  0.1663  0.2321  0.5990
 7486SOL    HW125350   1.172   7.080   2.101  0.1323  0.2663  0.5494
 7486SOL    HW225351   1.130   7.183   2.204  0.5111 -0.1219  1.1031
 7487SOL     OW25352   8.246   4.360   6.868  0.4450  0.1372 -0.2414
 7487SOL    HW125353   8.282   4.442   6.902  3.8896 -0.7210 -1.4529
 7487SOL    HW225354   8.228   4.308   6.946  0.0656  1.2907  0.4691
 7488SOL     OW25355   4.192   4.065   9.078 -0.2616  0.2797 -0.1028
 7488SOL    HW125356   4.228   4.151   9.056 -0.4098  1.0117  2.3028
 7488SOL    HW225357   4.097   4.076   9.069 -0.3243  0.5879  0.8835
 7489SOL     OW25358   7.274   2.307   2.100 -0.1564  0.1723  0.2586
 7489SOL    HW125359   7.201   2.259   2.139 -1.0116  0.0649 -1.3875
 7489SOL    HW225360   7.254   2.309   2.006  1.4971  0.9528 -0.1095
 7490SOL     OW25361   8.979   5.236   0.180  0.2227 -0.2216 -0.2878
 7490SOL    HW125362   9.037   5.295   0.133  1.6678 -0.3819  1.2171
 7490SOL    HW225363   8.894   5.280   0.178  1.0954  1.5692  0.1895
 7491SOL     OW25364   4.885   3.984   3.887 -0.5708  0.5383  0.9730
 7491SOL    HW125365   4.806   4.037   3.882 -0.9990 -0.2453 -1.5029
 7491SOL    HW225366   4.926   3.993   3.801 -0.2429 -2.5024  0.7292
 7492SOL     OW25367   7.610   4.819   0.826  0.0428 -0.1620  0.3008
 7492SOL    HW125368   7.531   4.866   0.800 -0.0013 -0.7814 -0.7846
 7492SOL    HW225369   7.580   4.753   0.888 -0.8655 -2.3762 -2.3150
 7493SOL     OW25370   7.600   0.788   6.856 -0.4859  0.1911  0.2511
 7493SOL    HW125371   7.694   0.800   6.839 -0.2954 -2.9020 -1.8043
 7493SOL    HW225372   7.559   0.865   6.818  1.1311  0.7745 -0.4201
 7494SOL     OW25373   7.271   1.050   4.209 -0.1696  0.5058  0.0238
 7494SOL    HW125374   7.352   1.033   4.160  0.4494  1.5407  0.6533
 7494SOL    HW225375   7.289   1.016   4.297 -1.6012 -2.1908 -0.6187
 7495SOL     OW25376   5.314   5.172   8.981 -0.3617 -0.1699  0.3921
 7495SOL    HW125377   5.299   5.247   8.924  0.2022 -0.1675  0.2353
 7495SOL    HW225378   5.315   5.097   8.922 -1.4929 -0.3793  0.6175
 7496SOL     OW25379   5.374   5.071   6.047  0.1477 -0.1076  0.6455
 7496SOL    HW125380   5.401   5.085   5.956  1.5414 -2.7789  0.5403
 7496SOL    HW225381   5.279   5.070   6.044  0.1465  0.9897 -0.5585
 7497SOL     OW25382   0.312   7.985   1.379 -0.5021 -0.2331  0.3164
 7497SOL    HW125383   0.266   8.046   1.321  0.0808  1.2791  1.3922
 7497SOL    HW225384   0.242   7.949   1.434 -0.9137 -0.9276 -0.6184
 7498SOL     OW25385   7.652   2.373   7.051  0.2577 -0.2550 -0.1839
 7498SOL    HW125386   7.583   2.425   7.092 -0.6062  0.1243 -2.0397
 7498SOL    HW225387   7.610   2.332   6.976  1.7994 -0.8641 -0.7463
 7499SOL     OW25388   4.950   6.835   5.179  0.3024  0.2212 -0.6901
 7499SOL    HW125389   4.855   6.841   5.177  0.1296 -1.6474 -0.2534
 7499SOL    HW225390   4.968   6.741   5.183  2.1552  0.5476 -0.2861
 7500SOL     OW25391   8.489   1.086   0.439 -0.4001 -0.4966 -0.3752
 7500SOL    HW125392   8.508   1.134   0.520  0.3755 -2.5079  0.7164
 7500SOL    HW225393   8.566   1.100   0.385 -0.4570  0.0057 -0.3283
 7501SOL     OW25394   6.123   5.660   7.700  0.6794  0.8081 -0.3338
 7501SOL    HW125395   6.198   5.641   7.645  1.5461  0.3339  0.9475
 7501SOL    HW225396   6.159   5.664   7.789 -0.9567 -0.5343  0.4515
 7502SOL     OW25397   3.924   4.631   0.688  0.4228 -0.2752  0.2342
 7502SOL    HW125398   3.944   4.669   0.603  0.5870 -2.3038 -0.6861
 7502SOL    HW225399   3.871   4.698   0.732  0.3857  0.8462 -1.4179
 7503SOL     OW25400   0.204   2.767   1.426  0.3369  0.5943 -0.2385
 7503SOL    HW125401   0.189   2.693   1.366  0.7793 -0.7494  1.2312
 7503SOL    HW225402   0.297   2.761   1.448  0.0608  0.7012  1.0118
 7504SOL     OW25403   1.511   3.406   3.667 -0.0686 -0.6770 -0.5525
 7504SOL    HW125404   1.592   3.423   3.716  0.5383 -0.4763 -1.5952
 7504SOL    HW225405   1.520   3.458   3.588  0.1728 -2.9345 -2.1067
 7505SOL     OW25406   8.253   0.780   0.963 -0.3587  1.0457  0.2068
 7505SOL    HW125407   8.185   0.744   0.906 -0.5294 -0.1312  1.1258
 7505SOL    HW225408   8.329   0.789   0.906 -1.1240  1.9488 -0.7284
 7506SOL     OW25409   5.088   7.321   5.231 -0.0474 -0.2928  0.1780
 7506SOL    HW125410   5.096   7.237   5.184 -0.5230  0.6444 -1.6882
 7506SOL    HW225411   5.003   7.356   5.203 -0.1400  0.5452  1.4220
 7507SOL     OW25412   7.129   6.440   9.588  0.2651 -0.2785  0.2214
 7507SOL    HW125413   7.199   6.490   9.548 -1.4142  1.9463 -0.1611
 7507SOL    HW225414   7.084   6.503   9.645 -2.2395 -1.1276 -0.6452
 7508SOL     OW25415   1.569   8.953   5.688 -0.1840  0.4009  0.0504
 7508SOL    HW125416   1.539   8.944   5.778 -1.4986  1.1795 -0.2874
 7508SOL    HW225417   1.609   9.040   5.685 -0.3066  0.4504 -0.1595
 7509SOL     OW25418   4.341   3.304   7.366  0.6582  0.2123  0.1166
 7509SOL    HW125419   4.352   3.334   7.456 -1.2956 -0.3266  0.5799
 7509SOL    HW225420   4.255   3.336   7.340  1.4635  0.9728 -1.8448
 7510SOL     OW25421   9.624   9.415   4.736  0.0193  0.0355  0.2622
 7510SOL    HW125422   9.641   9.371   4.819  1.6354  1.4897  0.7527
 7510SOL    HW225423   9.539   9.459   4.750 -1.8952 -3.1301 -0.4181
 7511SOL     OW25424   4.671   9.311   8.669 -0.1883  0.2563  0.5810
 7511SOL    HW125425   4.633   9.244   8.613  0.7223 -0.1559  0.4250
 7511SOL    HW225426   4.617   9.311   8.747 -0.4158 -0.4177  0.4324
 7512SOL     OW25427   6.248   4.716   7.668 -0.3643  0.5906  0.1795
 7512SOL    HW125428   6.235   4.639   7.723 -0.5237  1.2498  1.0888
 7512SOL    HW225429   6.343   4.724   7.660 -0.2800  1.3000  1.5643
 7513SOL     OW25430   0.644   8.270   2.009  0.5078 -0.3243 -0.7020
 7513SOL    HW125431   0.706   8.234   1.945  2.0558  2.1328 -0.7106
 7513SOL    HW225432   0.596   8.337   1.960 -0.7928 -0.7962 -0.1374
 7514SOL     OW25433   6.412   8.697   5.844 -0.1178 -0.0562  0.1695
 7514SOL    HW125434   6.412   8.670   5.752  2.2617 -1.0452  0.3968
 7514SOL    HW225435   6.501   8.728   5.861 -0.8412  1.2963  1.8479
 7515SOL     OW25436   7.364   3.335   5.802 -0.2740  0.8578 -0.7196
 7515SOL    HW125437   7.360   3.248   5.760  0.3685  0.8343 -0.7361
 7515SOL    HW225438   7.336   3.319   5.892 -2.1658  0.9937 -1.2338
 7516SOL     OW25439   3.459   6.205   5.085  0.0412  0.0506 -0.3134
 7516SOL    HW125440   3.366   6.191   5.103  0.1927 -0.3557  0.1732
 7516SOL    HW225441   3.503   6.132   5.129  0.6731  0.8163  0.3669
 7517SOL     OW25442   3.266   6.802   5.837 -0.7009 -0.4767 -0.0562
 7517SOL    HW125443   3.335   6.758   5.887 -0.6732 -1.5410 -0.9730
 7517SOL    HW225444   3.291   6.894   5.838 -1.1464 -0.3005  2.5610
 7518SOL     OW25445   0.209   2.316   3.201  0.3360 -0.2034 -0.3413
 7518SOL    HW125446   0.136   2.351   3.150  1.0236  1.1520 -0.4626
 7518SOL    HW225447   0.277   2.383   3.193  0.1639  0.5897  3.1807
 7519SOL     OW25448   6.888   9.398   2.939 -0.8066  0.1558 -0.2957
 7519SOL    HW125449   6.904   9.474   2.994 -2.3751 -0.0764  0.5530
 7519SOL    HW225450   6.974   9.358   2.926 -0.4223 -0.0532  2.4026
 7520SOL     OW25451   5.351   1.619   0.312  0.2349 -0.0651  0.2368
 7520SOL    HW125452   5.358   1.617   0.407 -0.7236 -0.6814  0.3040
 7520SOL    HW225453   5.390   1.703   0.287  1.8593 -0.5399  1.0391
 7521SOL     OW25454   1.269   0.638   1.316  0.2544 -0.6542 -0.2221
 7521SOL    HW125455   1.295   0.579   1.245 -1.1441  0.4810 -1.7556
 7521SOL    HW225456   1.351   0.680   1.342  1.0969 -2.4148  0.1507
 7522SOL     OW25457   1.863   5.046   7.263  0.0712  0.0457 -0.1015
 7522SOL    HW125458   1.772   5.042   7.290  0.0657 -0.2145 -0.1570
 7522SOL    HW225459   1.913   5.057   7.344 -0.0310  0.4806 -0.0995
 7523SOL     OW25460   8.416   4.136   2.873  0.3952 -0.7933  0.0458
 7523SOL    HW125461   8.488   4.163   2.816 -0.2323  0.3955 -0.2127
 7523SOL    HW225462   8.458   4.084   2.941  2.3861  3.6537  2.6531
 7524SOL     OW25463   5.851   4.815   4.134  0.4761 -0.1321 -0.2590
 7524SOL    HW125464   5.760   4.837   4.115 -0.1001 -2.1921 -0.0501
 7524SOL    HW225465   5.848   4.771   4.219  1.6038 -0.6243 -0.4644
 7525SOL     OW25466   7.492   2.954   3.329 -0.3403  0.5168  0.3918
 7525SOL    HW125467   7.436   3.023   3.292  0.1375  0.3914 -0.5779
 7525SOL    HW225468   7.444   2.925   3.407  0.2959  3.1869  1.9055
 7526SOL     OW25469   5.338   6.085   7.249 -0.3514  0.1202 -0.1119
 7526SOL    HW125470   5.372   6.007   7.205  0.0223  0.1022  0.2094
 7526SOL    HW225471   5.408   6.150   7.240  0.2712 -0.2740  1.5700
 7527SOL     OW25472   4.653   5.884   0.456  0.4511  0.5522 -0.6808
 7527SOL    HW125473   4.638   5.846   0.370 -1.1224 -2.4169  0.7857
 7527SOL    HW225474   4.674   5.976   0.438 -0.6291  0.2463 -4.1390
 7528SOL     OW25475   5.796   0.907   7.935  0.3141 -0.1912  0.3598
 7528SOL    HW125476   5.863   0.951   7.988  2.2696 -1.8832 -0.5390
 7528SOL    HW225477   5.762   0.838   7.993  0.1863 -0.0611  0.4398
 7529SOL     OW25478   1.404   8.625   2.298  0.0210  0.1965 -0.1363
 7529SOL    HW125479   1.325   8.644   2.347  2.2113  0.8534  3.5244
 7529SOL    HW225480   1.426   8.535   2.320 -0.3133 -0.4621 -2.2217
 7530SOL     OW25481   6.105   7.301   7.167  0.5388  0.1529  0.1664
 7530SOL    HW125482   6.184   7.274   7.214  0.5718 -2.2700 -1.1115
 7530SOL    HW225483   6.045   7.227   7.176 -1.1387  1.4432  0.0836
 7531SOL     OW25484   9.048   1.907   7.847 -0.2131 -0.1722 -0.1385
 7531SOL    HW125485   9.018   1.984   7.799  0.1318  0.2176  0.2629
 7531SOL    HW225486   9.140   1.925   7.867  0.1349 -1.0854 -0.8263
 7532SOL     OW25487   4.739   1.672   9.304 -0.1932  0.1699  0.2937
 7532SOL    HW125488   4.705   1.729   9.373  0.0536 -0.7976  1.2495
 7532SOL    HW225489   4.806   1.619   9.348  1.3377  0.8321 -1.1316
 7533SOL     OW25490   6.284   3.530   8.228 -0.0490 -0.0513 -0.6761
 7533SOL    HW125491   6.194   3.561   8.218 -1.3470 -2.7107  1.3061
 7533SOL    HW225492   6.275   3.442   8.264  3.3899  0.2517  1.3889
 7534SOL     OW25493   9.560   4.376   4.813  0.9769  0.1687  0.2168
 7534SOL    HW125494   9.606   4.374   4.897 -0.5583  0.4628  1.0973
 7534SOL    HW225495   9.474   4.413   4.834  1.4762  2.9275 -1.9476
 7535SOL     OW25496   5.363   0.636   1.028  0.5145  0.0129  0.2395
 7535SOL    HW125497   5.430   0.660   0.964  1.4409  0.1480  1.2325
 7535SOL    HW225498   5.322   0.719   1.052 -0.9843 -0.2090 -1.3721
 7536SOL     OW25499   7.535   1.898   8.581 -0.3800 -0.1944 -0.0853
 7536SOL    HW125500   7.546   1.945   8.499 -1.0888  0.1827  0.0338
 7536SOL    HW225501   7.546   1.806   8.558  0.1145 -0.0393 -0.4747
 7537SOL     OW25502   3.937   3.475   6.984  0.4486 -0.6888 -0.2880
 7537SOL    HW125503   3.997   3.407   6.955 -0.8647 -2.0820  0.1408
 7537SOL    HW225504   3.895   3.506   6.903  2.5334  1.1618 -0.7478
 7538SOL     OW25505   3.991   5.575   3.789  0.1870  0.1819  0.1189
 7538SOL    HW125506   4.028   5.499   3.834  2.0637  0.4663 -0.8738
 7538SOL    HW225507   3.916   5.538   3.740  0.9193 -0.9959 -0.1654
 7539SOL     OW25508   7.290   7.209   7.485  0.2934  0.1015 -0.5035
 7539SOL    HW125509   7.252   7.122   7.496  2.5084 -1.2134 -2.3247
 7539SOL    HW225510   7.354   7.217   7.556 -0.7040  0.7694  0.3482
 7540SOL     OW25511   0.401   7.175   0.880  0.2319  0.4367  0.1458
 7540SOL    HW125512   0.355   7.102   0.922  0.3022  0.7519  0.7910
 7540SOL    HW225513   0.404   7.242   0.948  1.2222  0.5968 -0.0494
 7541SOL     OW25514   7.357   6.965   8.062  0.4431 -0.7114  0.6699
 7541SOL    HW125515   7.422   6.982   8.130 -0.6357 -1.3821  1.9289
 7541SOL    HW225516   7.291   6.911   8.105 -1.4471  0.7234 -0.2743
 7542SOL     OW25517   5.179   3.332   9.049  0.0613 -0.0833  0.3920
 7542SOL    HW125518   5.158   3.278   9.125  0.5418 -0.4860  0.2441
 7542SOL    HW225519   5.147   3.420   9.073  0.6175 -0.0979  1.2582
 7543SOL     OW25520   7.304   8.588   3.215 -0.5246 -0.0625 -0.3216
 7543SOL    HW125521   7.352   8.514   3.252 -0.2622  0.5373  0.5486
 7543SOL    HW225522   7.369   8.633   3.160 -0.7018 -0.4981 -0.9046
 7544SOL     OW25523   9.350   4.321   4.404 -0.5462 -0.2633  0.7663
 7544SOL    HW125524   9.418   4.303   4.469 -0.6693 -0.5985  0.7996
 7544SOL    HW225525   9.362   4.414   4.383 -0.7814 -0.0340  1.5925
 7545SOL     OW25526   5.867   6.043   9.618  0.0221 -0.1715  0.0463
 7545SOL    HW125527   5.810   6.055   9.693 -0.8716 -0.6311 -0.5351
 7545SOL    HW225528   5.888   6.132   9.588 -0.2652  0.0005  0.3588
 7546SOL     OW25529   9.210   6.312   0.876 -0.0743  0.1796  0.1624
 7546SOL    HW125530   9.290   6.260   0.862 -0.7869 -0.4877 -1.7804
 7546SOL    HW225531   9.162   6.262   0.942 -0.9673 -2.0547 -1.9969
 7547SOL     OW25532   2.935   3.152   2.908  0.6897  0.5873  0.0419
 7547SOL    HW125533   2.947   3.247   2.910 -0.3304  0.7545 -0.9312
 7547SOL    HW225534   2.981   3.121   2.986  2.0269  1.7521 -0.2254
 7548SOL     OW25535   0.994   3.270   5.346  0.0441  0.1590  0.5129
 7548SOL    HW125536   1.048   3.196   5.373  0.2742  0.2861  0.4000
 7548SOL    HW225537   0.911   3.257   5.392 -0.7967 -1.4430 -1.3218
 7549SOL     OW25538   3.858   3.956   4.913 -0.3563  0.5673 -0.3250
 7549SOL    HW125539   3.822   3.985   4.997  0.1435  1.6041 -0.4471
 7549SOL    HW225540   3.794   3.987   4.848 -0.3779  0.4072 -0.3805
 7550SOL     OW25541   1.636   1.242   6.257 -0.2828 -0.3713 -0.2674
 7550SOL    HW125542   1.571   1.268   6.322  0.0882 -1.0506  0.3861
 7550SOL    HW225543   1.685   1.323   6.238 -1.9374  0.3884 -1.5222
 7551SOL     OW25544   8.833   2.937   9.593  0.1226  0.0814  0.7127
 7551SOL    HW125545   8.852   2.844   9.606  0.3554  0.0896  0.4410
 7551SOL    HW225546   8.919   2.978   9.582  0.0424  0.3834  1.1843
 7552SOL     OW25547   5.431   1.099   4.955 -1.0818 -0.4881  0.1782
 7552SOL    HW125548   5.414   1.130   5.044 -0.4598  0.0268  0.1206
 7552SOL    HW225549   5.509   1.045   4.963 -1.1418 -0.6056 -0.0224
 7553SOL     OW25550   0.786   6.953   2.437  0.3834 -0.3816 -0.0778
 7553SOL    HW125551   0.779   6.861   2.461  0.8204 -0.5164 -0.4375
 7553SOL    HW225552   0.853   6.988   2.496 -2.6824  0.7801  3.0213
 7554SOL     OW25553   7.708   4.390   9.195 -0.5911 -0.2095 -0.0980
 7554SOL    HW125554   7.629   4.337   9.187 -1.2197  0.6981 -0.1443
 7554SOL    HW225555   7.745   4.392   9.107 -0.5084 -0.6477 -0.0736
 7555SOL     OW25556   5.778   2.740   2.531  0.0469 -0.6174  0.8007
 7555SOL    HW125557   5.698   2.706   2.570 -0.8971  0.6142  0.0266
 7555SOL    HW225558   5.766   2.727   2.437 -0.0266  1.0941  0.5437
 7556SOL     OW25559   8.545   6.093   4.564 -0.4389 -0.1877  0.7577
 7556SOL    HW125560   8.579   6.111   4.652  0.5014  0.4190  0.2789
 7556SOL    HW225561   8.485   6.166   4.546  0.1326  0.2258  0.5048
 7557SOL     OW25562   4.301   8.846   0.226  0.1322 -0.4676  0.6210
 7557SOL    HW125563   4.309   8.941   0.213  0.7578 -0.6482 -0.3867
 7557SOL    HW225564   4.307   8.834   0.321  4.2587  0.1571  0.6052
 7558SOL     OW25565   7.295   1.186   0.297 -0.2948  0.1345  0.0590
 7558SOL    HW125566   7.253   1.133   0.230  1.3852  0.3493 -1.2452
 7558SOL    HW225567   7.297   1.131   0.375  1.3179 -1.7568 -1.2187
 7559SOL     OW25568   1.945   4.868   5.328 -0.4728  0.1262  0.5307
 7559SOL    HW125569   1.966   4.831   5.414  0.0709  0.2599  0.4597
 7559SOL    HW225570   1.852   4.851   5.317 -0.4597 -0.2579  0.9705
 7560SOL     OW25571   3.120   6.939   0.564 -1.1122  0.1895 -0.1082
 7560SOL    HW125572   3.200   6.907   0.606  0.9476  1.2813 -2.8823
 7560SOL    HW225573   3.051   6.921   0.628  1.4612  0.3075  2.9830
 7561SOL     OW25574   5.526   6.569   3.778 -0.1984 -0.2424 -0.2664
 7561SOL    HW125575   5.567   6.483   3.775 -3.5227 -2.0038 -2.8833
 7561SOL    HW225576   5.437   6.551   3.811 -1.2382  2.0201 -1.6517
 7562SOL     OW25577   8.976   4.826   6.574 -0.5283 -0.2016  0.0061
 7562SOL    HW125578   8.935   4.899   6.527  1.7446  0.6569 -0.7704
 7562SOL    HW225579   8.998   4.862   6.660 -0.2819 -0.2695 -0.0280
 7563SOL     OW25580   9.555   0.126   8.394 -0.1539  0.2732  0.1288
 7563SOL    HW125581   9.540   0.059   8.327  0.8462 -1.1851  1.2988
 7563SOL    HW225582   9.564   0.077   8.475 -1.2676  1.9954  1.3641
 7564SOL     OW25583   9.229   0.992   7.756  0.0029 -0.2308  0.6262
 7564SOL    HW125584   9.179   1.034   7.687 -0.0894  3.1974  2.5339
 7564SOL    HW225585   9.316   0.978   7.718 -0.3492  0.5576 -0.5051
 7565SOL     OW25586   1.415   0.550   6.061  0.5941  0.0713  0.3646
 7565SOL    HW125587   1.464   0.588   6.134 -1.8506  0.2694  2.0469
 7565SOL    HW225588   1.380   0.468   6.095 -0.8492  0.3158 -0.4104
 7566SOL     OW25589   1.088   4.765   1.222  0.1624 -0.3158  0.1943
 7566SOL    HW125590   1.083   4.837   1.160  0.2563 -0.6515 -0.2086
 7566SOL    HW225591   0.999   4.727   1.222 -0.9264  1.8952  2.9829
 7567SOL     OW25592   9.068   0.092   8.241  0.3892 -0.4734  0.0008
 7567SOL    HW125593   9.138   0.119   8.182  0.1979  0.4754  0.1858
 7567SOL    HW225594   9.098   0.010   8.279  2.1354  0.7039  1.2690
 7568SOL     OW25595   7.956   6.744   0.790 -0.2048  0.1163  0.1928
 7568SOL    HW125596   7.951   6.648   0.792  2.0152 -0.1893 -2.4598
 7568SOL    HW225597   8.047   6.764   0.810 -0.9964  1.8928  2.4862
 7569SOL     OW25598   9.624   8.823   5.933 -0.4426  0.0330 -0.1532
 7569SOL    HW125599   9.581   8.895   5.886 -0.3157 -0.3338 -0.8585
 7569SOL    HW225600   9.717   8.844   5.927 -0.4878  0.5976  0.9833
 7570SOL     OW25601   5.392   8.690   7.196 -0.1702 -0.8494 -0.1851
 7570SOL    HW125602   5.331   8.659   7.263 -0.7611 -0.7001 -0.6446
 7570SOL    HW225603   5.445   8.614   7.174  1.1051 -0.5381  1.5678
 7571SOL     OW25604   2.395   7.922   2.285  0.3785  0.0175 -0.1971
 7571SOL    HW125605   2.368   7.915   2.194  2.8121 -1.2381 -0.9343
 7571SOL    HW225606   2.314   7.923   2.335 -1.0063 -0.1464 -2.3234
 7572SOL     OW25607   7.797   2.306   4.040  0.4808  0.4069 -0.2687
 7572SOL    HW125608   7.763   2.390   4.069  2.1671  1.1197 -0.2767
 7572SOL    HW225609   7.744   2.284   3.964  0.4791  1.8146 -0.7007
 7573SOL     OW25610   2.340   3.421   4.206  0.1896  0.4469  0.1348
 7573SOL    HW125611   2.382   3.497   4.166  0.6590  0.2121  0.1705
 7573SOL    HW225612   2.302   3.372   4.133  1.8964 -0.5073 -0.1748
 7574SOL     OW25613   6.935   5.448   7.264 -0.4073  0.1175  0.3316
 7574SOL    HW125614   6.841   5.429   7.253 -0.8156  1.1687  1.7132
 7574SOL    HW225615   6.961   5.395   7.339  0.6418 -1.7202 -1.2474
 7575SOL     OW25616   8.364   7.372   9.236 -0.3862 -0.0774  0.1319
 7575SOL    HW125617   8.309   7.303   9.272  2.4374 -1.0856  2.9888
 7575SOL    HW225618   8.440   7.326   9.200  1.9152  1.3551  2.7221
 7576SOL     OW25619   8.827   1.254   4.839 -0.3449  0.4484  0.4500
 7576SOL    HW125620   8.761   1.277   4.905  1.0605  1.0579  1.6918
 7576SOL    HW225621   8.911   1.267   4.883  0.6861  1.7269 -1.7104
 7577SOL     OW25622   6.361   0.219   7.387 -0.2705 -0.7725  0.4467
 7577SOL    HW125623   6.383   0.127   7.369  0.3178 -0.7156  0.8071
 7577SOL    HW225624   6.286   0.214   7.446 -0.7243 -1.0001 -0.1360
 7578SOL     OW25625   5.455   4.838   8.903 -0.0910 -0.2285  0.5846
 7578SOL    HW125626   5.454   4.900   8.831 -2.3484  1.6841  2.0992
 7578SOL    HW225627   5.527   4.866   8.959  0.5588 -0.6498 -0.0240
 7579SOL     OW25628   7.350   3.442   4.145  0.0504 -0.2517  0.3916
 7579SOL    HW125629   7.360   3.361   4.195 -0.9032 -0.7566 -0.2233
 7579SOL    HW225630   7.406   3.431   4.069  1.2498  0.3861  1.1422
 7580SOL     OW25631   5.414   2.698   6.955  0.6233 -0.0675  0.0405
 7580SOL    HW125632   5.398   2.611   6.992  0.5094 -0.5788 -1.1519
 7580SOL    HW225633   5.337   2.749   6.979  0.1408 -0.6505 -0.2383
 7581SOL     OW25634   8.887   8.208   2.848  0.3291 -0.0329  0.0024
 7581SOL    HW125635   8.885   8.113   2.840  0.5452 -0.2482  1.9381
 7581SOL    HW225636   8.917   8.224   2.938  0.6227  1.8662 -0.3842
 7582SOL     OW25637   7.151   3.023   3.653 -0.4879  0.7089  0.5368
 7582SOL    HW125638   7.085   2.991   3.592  0.4256 -0.2236  0.0006
 7582SOL    HW225639   7.235   2.998   3.613  0.1295 -0.2903  2.3525
 7583SOL     OW25640   3.844   4.438   1.219  0.1149  0.3624  0.3895
 7583SOL    HW125641   3.927   4.401   1.249  1.1938  0.6174 -2.0259
 7583SOL    HW225642   3.856   4.451   1.125 -3.3649 -1.4544 -0.4958
 7584SOL     OW25643   2.782   9.605   2.094 -0.7407 -0.1642  0.2853
 7584SOL    HW125644   2.691   9.588   2.071 -1.3276 -0.4114  2.5990
 7584SOL    HW225645   2.788   9.586   2.187  1.9658 -1.2159  0.0018
 7585SOL     OW25646   6.587   5.724   4.470  0.0355  0.5708 -0.8560
 7585SOL    HW125647   6.651   5.674   4.418 -0.3986 -0.8609 -0.0525
 7585SOL    HW225648   6.502   5.694   4.438 -0.2428 -0.3209  0.6132
 7586SOL     OW25649   5.635   5.298   4.913  0.2280  0.1623 -0.4385
 7586SOL    HW125650   5.646   5.257   4.998  0.0422  0.7542 -0.1186
 7586SOL    HW225651   5.661   5.390   4.927 -0.9246  0.5462 -0.7257
 7587SOL     OW25652   4.315   2.471   2.634  0.1534 -0.3189 -0.4334
 7587SOL    HW125653   4.383   2.412   2.667 -0.4405 -1.4304 -1.1281
 7587SOL    HW225654   4.286   2.520   2.711 -0.1856 -1.8185  0.4394
 7588SOL     OW25655   3.338   2.160   6.969 -0.1329 -0.5840  0.4970
 7588SOL    HW125656   3.366   2.134   7.056  1.7153  0.4213  0.2589
 7588SOL    HW225657   3.419   2.170   6.919 -0.9084  1.8292 -0.4711
 7589SOL     OW25658   1.613   8.696   6.637  0.2803 -0.2419  0.2511
 7589SOL    HW125659   1.548   8.671   6.703  1.0604 -4.0102 -0.1957
 7589SOL    HW225660   1.583   8.653   6.557  2.1472 -0.2254 -0.5000
 7590SOL     OW25661   3.196   3.224   8.412 -0.8379  0.0199  0.3993
 7590SOL    HW125662   3.115   3.258   8.374 -1.0470  0.2997  1.0752
 7590SOL    HW225663   3.215   3.284   8.484 -0.9252 -0.9887  1.2845
 7591SOL     OW25664   6.087   0.239   0.096  0.1305  0.5579  0.3306
 7591SOL    HW125665   6.036   0.238   0.015  1.6365 -2.2807 -0.7402
 7591SOL    HW225666   6.033   0.192   0.159  0.9230 -1.6391 -0.5390
 7592SOL     OW25667   4.856   0.895   9.399 -0.1495 -0.0851 -0.4159
 7592SOL    HW125668   4.908   0.877   9.478  0.6088 -1.9423 -1.2652
 7592SOL    HW225669   4.766   0.880   9.427  0.0500 -0.0097  0.2916
 7593SOL     OW25670   1.508   1.777   7.048 -0.0531  0.1767 -0.3450
 7593SOL    HW125671   1.551   1.790   6.963 -0.0791 -2.4511 -0.8500
 7593SOL    HW225672   1.416   1.763   7.027 -0.1854  0.2263  0.1817
 7594SOL     OW25673   2.340   0.672   2.636 -0.4097 -0.1028  0.1861
 7594SOL    HW125674   2.260   0.676   2.687 -0.3273  1.0777  0.2419
 7594SOL    HW225675   2.311   0.669   2.545 -0.5302 -0.9141  0.2443
 7595SOL     OW25676   6.892   2.492   0.301  0.1911 -0.4618  0.0529
 7595SOL    HW125677   6.884   2.587   0.294 -0.2541 -0.4677  0.4794
 7595SOL    HW225678   6.922   2.465   0.214 -0.9122 -0.0639 -0.4695
 7596SOL     OW25679   0.718   8.603   1.982  0.0530 -0.4047 -0.4752
 7596SOL    HW125680   0.804   8.620   2.019  0.6614  0.4130 -2.1430
 7596SOL    HW225681   0.656   8.634   2.048  0.9552 -2.0532  1.2551
 7597SOL     OW25682   7.986   8.807   3.978 -0.5555  0.0549  0.0448
 7597SOL    HW125683   8.065   8.844   3.939 -1.7609  3.6967  0.6401
 7597SOL    HW225684   8.014   8.772   4.062  0.5642  0.5967 -0.0832
 7598SOL     OW25685   4.951   2.389   0.558  0.0520  0.0267 -0.3385
 7598SOL    HW125686   4.908   2.424   0.480  0.8925  1.5317 -0.1555
 7598SOL    HW225687   5.044   2.406   0.544  0.4515 -1.6096  0.0567
 7599SOL     OW25688   6.336   9.267   6.510  0.4851  1.2161 -0.1927
 7599SOL    HW125689   6.286   9.207   6.564 -0.0471  1.2279 -0.6569
 7599SOL    HW225690   6.427   9.256   6.538  0.5092 -0.4147 -0.8362
 7600SOL     OW25691   5.502   0.712   0.443  0.2468  0.9784  0.4001
 7600SOL    HW125692   5.513   0.736   0.351  1.7775  0.4887  0.4349
 7600SOL    HW225693   5.413   0.679   0.449  0.6591 -0.5487 -1.2685
 7601SOL     OW25694   5.493   4.979   4.905  0.3005  0.3726 -0.4734
 7601SOL    HW125695   5.428   4.919   4.941  0.6945  0.8602  1.1204
 7601SOL    HW225696   5.469   5.065   4.940  3.4360  0.1810  2.7458
 7602SOL     OW25697   8.727   7.444   5.555  0.0113 -0.1519 -0.2268
 7602SOL    HW125698   8.792   7.425   5.623  0.5802  1.4130 -0.2923
 7602SOL    HW225699   8.758   7.396   5.478  1.1151  0.5941 -0.2680
 7603SOL     OW25700   5.947   2.806   6.514 -0.3384 -0.0102 -0.1881
 7603SOL    HW125701   6.027   2.854   6.492 -0.9688  1.9181  1.4712
 7603SOL    HW225702   5.965   2.767   6.600 -0.5524 -1.1953 -0.6511
 7604SOL     OW25703   2.642   7.401   3.477 -0.1309  0.2158 -0.0754
 7604SOL    HW125704   2.733   7.433   3.477 -0.7119  2.3893  2.9354
 7604SOL    HW225705   2.611   7.415   3.388  1.4468  2.9920 -0.3126
 7605SOL     OW25706   6.892   9.446   4.439  0.2576  0.4657  0.3895
 7605SOL    HW125707   6.928   9.534   4.428  0.8393  0.2307  0.3954
 7605SOL    HW225708   6.825   9.456   4.507  1.5196  0.5854  1.6433
 7606SOL     OW25709   4.643   3.919   2.137  0.2065  0.1270 -0.1716
 7606SOL    HW125710   4.653   3.869   2.218  0.0332 -0.4818 -0.5177
 7606SOL    HW225711   4.575   3.873   2.088 -2.1289  2.3867  0.7643
 7607SOL     OW25712   7.316   8.428   5.712  0.2271  0.5199 -0.1314
 7607SOL    HW125713   7.247   8.448   5.649  0.3816  1.9235  0.1102
 7607SOL    HW225714   7.271   8.389   5.787 -0.2234  0.9108 -0.2031
 7608SOL     OW25715   2.722   7.986   3.809  1.0052 -0.3346 -0.0274
 7608SOL    HW125716   2.659   7.994   3.737  1.3433 -0.9127 -0.3880
 7608SOL    HW225717   2.740   8.077   3.834 -0.6181 -0.1664  0.6529
 7609SOL     OW25718   0.229   6.388   7.815  0.5790 -0.1323  0.5891
 7609SOL    HW125719   0.138   6.412   7.800  0.4478 -0.8987  0.1527
 7609SOL    HW225720   0.278   6.436   7.748  0.5230  0.3860  0.9076
 7610SOL     OW25721   9.047   2.668   6.200 -0.5235 -0.0430 -0.3332
 7610SOL    HW125722   9.031   2.585   6.245  0.1771 -1.1954 -2.1047
 7610SOL    HW225723   9.141   2.681   6.207 -0.8346  1.6286  1.5498
 7611SOL     OW25724   5.493   1.021   6.842  0.1143  0.4087 -0.3993
 7611SOL    HW125725   5.465   1.108   6.813  0.8849  0.7940 -0.0150
 7611SOL    HW225726   5.572   1.037   6.894 -0.1568 -0.4505  0.3028
 7612SOL     OW25727   8.106   5.867   8.117  0.2165 -0.5936  0.0968
 7612SOL    HW125728   8.076   5.795   8.060 -0.5310 -0.0092 -0.2649
 7612SOL    HW225729   8.034   5.929   8.117  1.1215  0.4865 -0.1428
 7613SOL     OW25730   3.213   4.877   6.391  0.2123 -0.1561  0.4250
 7613SOL    HW125731   3.126   4.837   6.396  0.3890 -0.4177  2.4932
 7613SOL    HW225732   3.196   4.971   6.391 -0.0996 -0.1673  2.1782
 7614SOL     OW25733   6.583   0.392   7.376 -0.4252 -0.0987  0.0738
 7614SOL    HW125734   6.504   0.360   7.333 -0.0054 -0.4104 -0.4924
 7614SOL    HW225735   6.587   0.485   7.355 -1.1453  0.1337  0.9181
 7615SOL     OW25736   5.313   2.278   3.165 -0.1301  0.5149 -0.0298
 7615SOL    HW125737   5.257   2.355   3.153  0.1821  0.8175  0.4088
 7615SOL    HW225738   5.401   2.314   3.177 -0.1175  0.1380  1.1034
 7616SOL     OW25739   7.945   8.788   5.656 -0.4289 -0.3307 -0.7902
 7616SOL    HW125740   7.935   8.772   5.749  0.1957 -0.8205 -0.7997
 7616SOL    HW225741   7.898   8.716   5.614 -0.2501 -0.4168 -0.8459
 7617SOL     OW25742   5.190   9.111   5.886  0.2340  0.0894 -0.1721
 7617SOL    HW125743   5.169   9.082   5.975 -0.4925 -0.5325 -0.5330
 7617SOL    HW225744   5.209   9.204   5.895 -1.0515  0.3190  0.4566
 7618SOL     OW25745   4.933   8.078   5.404 -0.2522 -0.3325  0.5327
 7618SOL    HW125746   4.974   8.057   5.320 -1.2745 -1.6195  0.3171
 7618SOL    HW225747   5.002   8.061   5.469  0.8134  1.4692 -0.0510
 7619SOL     OW25748   6.212   4.208   5.183 -0.0667 -0.1806 -0.0516
 7619SOL    HW125749   6.215   4.294   5.141 -4.2131  0.3690  0.3675
 7619SOL    HW225750   6.301   4.196   5.219  2.1808  1.5625 -4.3208
 7620SOL     OW25751   2.079   5.662   1.505  0.2284 -0.1655 -0.3494
 7620SOL    HW125752   2.103   5.681   1.596  0.3328  0.0910 -0.4280
 7620SOL    HW225753   2.001   5.606   1.511 -0.8438  1.2963 -0.1097
 7621SOL     OW25754   4.434   3.186   4.284 -0.5144 -0.1862 -0.1177
 7621SOL    HW125755   4.491   3.155   4.355 -1.3419  0.6470  0.9502
 7621SOL    HW225756   4.364   3.121   4.279  0.4845 -1.2426 -1.4710
 7622SOL     OW25757   7.836   7.458   9.227 -0.2325  0.0192  0.6907
 7622SOL    HW125758   7.902   7.458   9.296  0.7296  1.8821 -0.1425
 7622SOL    HW225759   7.859   7.532   9.171 -2.7465  0.4628  0.0754
 7623SOL     OW25760   4.799   8.647   9.583  0.0360 -0.3354  0.2111
 7623SOL    HW125761   4.862   8.588   9.623  0.3666 -0.7890 -0.9445
 7623SOL    HW225762   4.837   8.670   9.498 -0.5456  0.7602  0.2194
 7624SOL     OW25763   6.794   2.478   0.552  0.2568  0.2427  0.4888
 7624SOL    HW125764   6.841   2.469   0.469 -0.6560  1.1749 -0.1614
 7624SOL    HW225765   6.702   2.466   0.529 -0.0882  1.3247  1.2143
 7625SOL     OW25766   0.302   3.963   8.378  0.4976  0.2813 -0.1405
 7625SOL    HW125767   0.388   3.926   8.394  0.8345  1.1777  0.2097
 7625SOL    HW225768   0.309   4.004   8.291 -0.9297 -3.4313 -2.2099
 7626SOL     OW25769   0.220   6.458   2.795  0.3681  0.2240  0.5288
 7626SOL    HW125770   0.218   6.483   2.703  0.2035 -0.6067  0.2957
 7626SOL    HW225771   0.152   6.512   2.836  0.4900  0.6469  0.1804
 7627SOL     OW25772   9.589   6.895   8.617  0.1732  0.0667 -0.1904
 7627SOL    HW125773   9.567   6.829   8.682  0.7713  0.3774  0.3490
 7627SOL    HW225774   9.563   6.978   8.657 -0.1189  0.2039 -0.6533
 7628SOL     OW25775   7.456   2.295   0.464 -0.0956  0.0524  0.3027
 7628SOL    HW125776   7.383   2.342   0.422  0.1464 -2.3171 -3.2071
 7628SOL    HW225777   7.413   2.233   0.523 -0.6108  1.7267  1.7518
 7629SOL     OW25778   4.797   2.272   4.501  0.2169  0.1471  0.2401
 7629SOL    HW125779   4.864   2.277   4.433 -1.2437 -2.2933 -1.5294
 7629SOL    HW225780   4.715   2.289   4.455 -0.8147 -1.4472  1.3947
 7630SOL     OW25781   4.385   3.539   0.821 -0.7232  0.1964  0.0946
 7630SOL    HW125782   4.321   3.583   0.764  1.0227  1.2180 -1.1598
 7630SOL    HW225783   4.331   3.498   0.889 -2.8059  0.1505 -1.4473
 7631SOL     OW25784   8.068   6.935   4.957 -0.2786 -0.2072 -0.2672
 7631SOL    HW125785   8.139   6.888   4.912  0.1784 -0.4999  0.7393
 7631SOL    HW225786   8.053   6.885   5.037 -1.1673  0.2433 -0.1395
 7632SOL     OW25787   8.694   6.245   1.451  0.0065 -0.0834  0.3959
 7632SOL    HW125788   8.714   6.160   1.411  1.1873  0.2484  0.2261
 7632SOL    HW225789   8.690   6.227   1.545 -0.1683 -0.4060  0.3276
 7633SOL     OW25790   6.961   1.851   6.373  0.7035  0.2031 -0.0659
 7633SOL    HW125791   6.971   1.878   6.282 -0.4928 -1.9851 -0.9150
 7633SOL    HW225792   6.870   1.820   6.379  1.0678 -0.6299  1.6062
 7634SOL     OW25793   4.377   7.942   8.579  0.1907  0.1873  0.2754
 7634SOL    HW125794   4.400   7.866   8.633  1.5582  0.3935  0.0160
 7634SOL    HW225795   4.456   7.961   8.529 -0.0715  1.8894  0.4439
 7635SOL     OW25796   3.866   4.995   5.654  0.1809  0.2140  0.2275
 7635SOL    HW125797   3.889   4.969   5.743 -0.2281 -0.4570  0.1525
 7635SOL    HW225798   3.870   5.090   5.654 -0.6896  0.2695  1.2155
 7636SOL     OW25799   8.369   0.432   6.803 -0.1074  0.1223 -0.2159
 7636SOL    HW125800   8.336   0.503   6.857 -0.3732 -0.3257  0.2211
 7636SOL    HW225801   8.299   0.414   6.741  0.3038  0.8156 -0.8912
 7637SOL     OW25802   0.704   0.619   0.194  0.0187 -0.2316  0.5744
 7637SOL    HW125803   0.696   0.674   0.272  0.9054 -0.1810  0.6489
 7637SOL    HW225804   0.642   0.656   0.131 -0.0012  0.3327  0.9199
 7638SOL     OW25805   8.271   2.110   7.862  0.3312 -0.1055 -0.5005
 7638SOL    HW125806   8.306   2.039   7.915 -1.8876  1.1223  2.9556
 7638SOL    HW225807   8.182   2.082   7.839  0.4882  0.3329 -1.7142
 7639SOL     OW25808   3.061   8.440   2.839  0.2740  0.5097  0.1398
 7639SOL    HW125809   3.007   8.432   2.917 -2.0207  0.5749 -1.3547
 7639SOL    HW225810   3.122   8.366   2.844 -1.1526 -0.6668  1.0190
 7640SOL     OW25811   6.098   0.743   1.508  0.1147 -0.2163 -0.5160
 7640SOL    HW125812   6.142   0.710   1.430 -0.1546  0.8773 -1.1539
 7640SOL    HW225813   6.134   0.831   1.521  0.7675 -0.6823  1.0969
 7641SOL     OW25814   7.824   3.409   1.468  0.3837 -0.0366  0.1412
 7641SOL    HW125815   7.735   3.381   1.486  0.5088 -0.5991 -0.0720
 7641SOL    HW225816   7.844   3.371   1.382  0.3631  1.2167 -0.4276
 7642SOL     OW25817   3.717   1.633   8.078  0.7837  0.4192 -0.1201
 7642SOL    HW125818   3.681   1.557   8.123  1.0137  1.3627  1.7932
 7642SOL    HW225819   3.750   1.599   7.995 -2.6232 -0.8617 -1.1425
 7643SOL     OW25820   4.060   6.325   2.984 -0.0027 -0.4024 -0.0108
 7643SOL    HW125821   4.108   6.280   2.914 -0.1009 -0.8348  0.1993
 7643SOL    HW225822   4.127   6.373   3.032  0.0406  0.0621 -0.5223
 7644SOL     OW25823   6.539   6.334   5.642  0.0034 -0.4939 -0.5998
 7644SOL    HW125824   6.555   6.254   5.693  1.0060 -0.4952 -0.8830
 7644SOL    HW225825   6.624   6.379   5.641 -0.6819  0.8681  0.0382
 7645SOL     OW25826   6.097   6.035   1.755  0.1932 -0.2813  0.0332
 7645SOL    HW125827   6.091   6.121   1.798 -0.7681 -1.6278  2.8048
 7645SOL    HW225828   6.010   6.018   1.721  0.6954  0.3197 -1.6665
 7646SOL     OW25829   2.317   1.588   8.489 -0.2244  0.0129 -0.6156
 7646SOL    HW125830   2.291   1.645   8.561  1.5361 -0.5349  0.5173
 7646SOL    HW225831   2.412   1.588   8.491 -0.1325 -0.4356 -2.6445
 7647SOL     OW25832   2.621   0.662   4.792  0.0210 -0.5142  0.4860
 7647SOL    HW125833   2.708   0.631   4.766 -0.4397 -1.5628  0.1460
 7647SOL    HW225834   2.597   0.726   4.725 -0.2385 -1.5877 -0.4660
 7648SOL     OW25835   3.729   1.452   0.617 -0.3558  0.5406  0.4791
 7648SOL    HW125836   3.778   1.385   0.571  0.6060  0.9221  0.9112
 7648SOL    HW225837   3.724   1.525   0.556 -0.0126  0.6520  0.5800
 7649SOL     OW25838   6.100   5.259   5.678 -0.1728  0.1170 -0.0306
 7649SOL    HW125839   6.154   5.285   5.603 -0.5328  0.1454 -0.2831
 7649SOL    HW225840   6.097   5.163   5.672  0.6646  0.0445  0.5574
 7650SOL     OW25841   1.497   5.236   7.036  0.2574 -0.2333 -0.1161
 7650SOL    HW125842   1.500   5.256   7.129  2.0753 -0.6535 -0.0351
 7650SOL    HW225843   1.540   5.310   6.994 -0.5110 -0.0658 -0.6235
 7651SOL     OW25844   3.223   2.504   1.380  0.0047 -1.2437  0.1351
 7651SOL    HW125845   3.270   2.475   1.302 -1.0322  0.2069 -1.0524
 7651SOL    HW225846   3.136   2.466   1.372 -0.0088 -1.3819  0.7974
 7652SOL     OW25847   3.790   7.251   4.874  0.3099  0.3299 -0.4274
 7652SOL    HW125848   3.767   7.266   4.966 -0.9918 -0.3317 -0.6232
 7652SOL    HW225849   3.748   7.324   4.827 -0.1641 -0.0664 -0.6283
 7653SOL     OW25850   4.865   7.586   8.939 -0.2983  0.2325  0.3072
 7653SOL    HW125851   4.879   7.663   8.994 -1.0097  1.6567 -1.4352
 7653SOL    HW225852   4.953   7.549   8.928  0.4607  2.1664 -0.7035
 7654SOL     OW25853   2.624   2.273   0.116 -0.2103  0.2654  0.3599
 7654SOL    HW125854   2.675   2.285   0.037 -0.9925 -0.1368 -0.2203
 7654SOL    HW225855   2.659   2.193   0.156  0.1907  0.4744  0.4336
 7655SOL     OW25856   6.070   6.663   9.502  0.9287 -0.1987  0.2231
 7655SOL    HW125857   6.038   6.752   9.489  1.1870 -0.0357  0.7033
 7655SOL    HW225858   6.107   6.638   9.418 -0.8339 -0.5446 -0.4935
 7656SOL     OW25859   1.013   2.504   1.240  0.1541  0.0772  0.1920
 7656SOL    HW125860   0.996   2.422   1.193 -0.7797 -0.0081  0.6570
 7656SOL    HW225861   1.056   2.560   1.176  1.3642 -0.9797  0.0367
 7657SOL     OW25862   6.063   3.068   3.617 -0.3596  0.3664 -0.0043
 7657SOL    HW125863   6.003   3.094   3.547  0.1333  1.9536  0.1309
 7657SOL    HW225864   6.022   2.992   3.657 -0.5235 -0.7775 -2.1980
 7658SOL     OW25865   8.455   2.177   4.811  0.2885 -0.4042  0.2466
 7658SOL    HW125866   8.474   2.245   4.876 -1.3394  0.8594 -0.5367
 7658SOL    HW225867   8.533   2.121   4.812  1.2831  0.9151  1.6016
 7659SOL     OW25868   8.499   0.867   8.486 -0.4278 -0.3056  0.0953
 7659SOL    HW125869   8.420   0.816   8.503 -1.0106  0.6446  0.3278
 7659SOL    HW225870   8.477   0.955   8.516  0.3817  0.1923 -0.7271
 7660SOL     OW25871   9.133   4.580   3.834 -0.3096 -0.2941  0.1459
 7660SOL    HW125872   9.156   4.600   3.743 -1.5596 -2.2147 -0.6518
 7660SOL    HW225873   9.214   4.547   3.872  0.6077  1.8537  0.2080
 7661SOL     OW25874   9.182   9.273   8.154 -0.4837 -0.1265 -0.8387
 7661SOL    HW125875   9.273   9.284   8.127  0.0776 -0.9167  0.6386
 7661SOL    HW225876   9.165   9.179   8.145 -0.8352 -0.1312 -0.1709
 7662SOL     OW25877   0.568   0.977   1.232  0.0002  0.3423  0.3916
 7662SOL    HW125878   0.621   0.899   1.217 -2.6475 -1.9511  1.9575
 7662SOL    HW225879   0.556   0.980   1.327  0.6437  3.1982  0.4904
 7663SOL     OW25880   5.335   4.400   7.452 -0.4465 -0.7566 -0.0983
 7663SOL    HW125881   5.396   4.330   7.473  0.0702 -0.2136  0.2527
 7663SOL    HW225882   5.389   4.466   7.408 -0.6217  0.0231  0.8100
 7664SOL     OW25883   8.288   8.019   5.251  0.1001  0.6381 -0.1129
 7664SOL    HW125884   8.217   7.990   5.309 -0.0766 -0.8029 -0.9939
 7664SOL    HW225885   8.357   7.954   5.263  1.0894  1.7395  0.3406
 7665SOL     OW25886   4.871   4.992   4.790 -0.5578  0.0539  0.4278
 7665SOL    HW125887   4.824   4.909   4.781 -1.0556  0.2180  1.3800
 7665SOL    HW225888   4.959   4.966   4.817 -0.9142 -0.1428  1.4224
 7666SOL     OW25889   4.122   7.464   2.832  0.2980 -0.3056  0.2404
 7666SOL    HW125890   4.095   7.488   2.743 -0.2176 -0.0310  0.4730
 7666SOL    HW225891   4.114   7.544   2.883 -1.1084 -0.8570  0.9405
 7667SOL     OW25892   5.782   1.160   8.770  0.3736  0.3291  0.0885
 7667SOL    HW125893   5.715   1.092   8.762  1.9069 -1.1781 -0.6044
 7667SOL    HW225894   5.847   1.122   8.830  1.5095  0.9561 -0.7137
 7668SOL     OW25895   0.845   4.400   4.589  0.3643  0.6725 -0.0384
 7668SOL    HW125896   0.829   4.366   4.500  0.8684 -1.0302  0.4802
 7668SOL    HW225897   0.765   4.449   4.610 -1.0198 -1.2827 -0.3957
 7669SOL     OW25898   0.108   4.228   8.684  0.4953 -0.2355 -0.0316
 7669SOL    HW125899   0.159   4.295   8.637 -1.0297  0.2255 -1.1054
 7669SOL    HW225900   0.110   4.152   8.625  0.2571 -0.3466  0.1050
 7670SOL     OW25901   8.100   7.916   1.331  0.7141 -0.5544  0.0553
 7670SOL    HW125902   8.038   7.968   1.383  1.0140 -0.7897  0.6560
 7670SOL    HW225903   8.186   7.944   1.362  0.8760 -1.7245  0.6962
 7671SOL     OW25904   4.352   6.805   7.160 -0.2827  0.0713  0.7712
 7671SOL    HW125905   4.320   6.721   7.129 -1.8886  1.2067 -0.8404
 7671SOL    HW225906   4.319   6.812   7.250  0.7225 -1.3949  1.2926
 7672SOL     OW25907   6.853   0.663   4.588  0.5008 -0.3992 -0.1667
 7672SOL    HW125908   6.850   0.577   4.629  0.3000 -0.8800 -1.1688
 7672SOL    HW225909   6.847   0.646   4.494 -3.1002  0.7973 -0.3384
 7673SOL     OW25910   8.533   4.269   5.172 -0.0242 -0.0529  0.9016
 7673SOL    HW125911   8.478   4.346   5.158  0.2214 -0.1077 -0.4711
 7673SOL    HW225912   8.487   4.218   5.239 -0.0402  1.4156  2.0645
 7674SOL     OW25913   4.752   2.503   6.754  0.5970 -0.0381 -0.3423
 7674SOL    HW125914   4.659   2.481   6.761  0.2725  0.5873 -2.2484
 7674SOL    HW225915   4.774   2.538   6.841 -1.2532  0.9318 -0.2006
 7675SOL     OW25916   7.578   5.984   2.562 -0.0239 -0.0709  0.1433
 7675SOL    HW125917   7.517   6.012   2.494  1.6313 -0.8125 -1.7565
 7675SOL    HW225918   7.587   5.890   2.548 -0.7766 -0.5455  2.4130
 7676SOL     OW25919   6.631   9.330   4.869  0.5762  0.0454  0.0209
 7676SOL    HW125920   6.718   9.298   4.845  1.4321  1.5382  0.9682
 7676SOL    HW225921   6.647   9.397   4.935 -1.2801  0.6601 -0.0777
 7677SOL     OW25922   0.429   6.997   7.018 -0.0196 -0.2024  0.1289
 7677SOL    HW125923   0.377   6.958   7.088 -1.0425  0.1506 -0.4225
 7677SOL    HW225924   0.509   7.027   7.062 -0.5732 -0.1221  1.1116
 7678SOL     OW25925   8.693   6.686   3.024  0.1432  0.0887 -0.0626
 7678SOL    HW125926   8.688   6.610   2.966 -0.5737  0.5103 -0.5753
 7678SOL    HW225927   8.700   6.761   2.965  0.0442  0.4783  0.4104
 7679SOL     OW25928   1.614   2.657   6.153  0.0727 -0.2221 -0.5558
 7679SOL    HW125929   1.536   2.701   6.119 -1.0603 -1.5766  0.1605
 7679SOL    HW225930   1.597   2.648   6.247  1.2775 -0.2190 -0.3234
 7680SOL     OW25931   4.215   7.156   4.457 -0.3264 -0.0912  0.0573
 7680SOL    HW125932   4.234   7.078   4.509 -1.1191 -0.1802  0.2280
 7680SOL    HW225933   4.201   7.124   4.368  1.0968  0.0682 -0.2594
 7681SOL     OW25934   5.291   2.679   8.353 -0.4259 -0.2503 -0.4016
 7681SOL    HW125935   5.215   2.736   8.356  0.5157  1.0073  0.4674
 7681SOL    HW225936   5.321   2.685   8.262 -0.2500  0.7817 -0.2877
 7682SOL     OW25937   5.556   5.589   0.052 -0.8914 -0.1110 -0.0222
 7682SOL    HW125938   5.599   5.560   0.133 -0.7876  2.0455  0.7638
 7682SOL    HW225939   5.602   5.669   0.027 -0.8318 -0.7962 -2.3464
 7683SOL     OW25940   3.580   9.403   1.255 -0.4410 -0.7159  0.3911
 7683SOL    HW125941   3.592   9.327   1.199 -0.8313 -1.0521  0.7607
 7683SOL    HW225942   3.517   9.375   1.322 -1.1544  0.1534  0.1003
 7684SOL     OW25943   8.715   3.872   7.973 -0.2550 -0.3622 -0.0034
 7684SOL    HW125944   8.793   3.922   7.949 -1.4089  1.1224 -0.7943
 7684SOL    HW225945   8.731   3.785   7.936  1.0135 -0.0864 -0.1622
 7685SOL     OW25946   8.579   9.182   3.793  0.3049  0.0901 -0.4828
 7685SOL    HW125947   8.628   9.257   3.759 -0.6991  0.1649 -1.8379
 7685SOL    HW225948   8.554   9.133   3.715 -1.1538 -0.3430  0.2328
 7686SOL     OW25949   0.269   5.948   1.916  0.2366 -0.2424 -0.0729
 7686SOL    HW125950   0.208   5.965   1.988  0.7970 -0.3648  0.4349
 7686SOL    HW225951   0.287   6.034   1.879 -0.5392 -0.2413 -0.4777
 7687SOL     OW25952   7.076   3.969   5.006 -0.3491 -0.3038 -0.4364
 7687SOL    HW125953   7.144   4.036   5.005  0.7683 -1.3473  1.1158
 7687SOL    HW225954   7.003   4.008   4.958  0.6329  1.6130 -0.4611
 7688SOL     OW25955   5.825   0.240   5.773  0.4369 -0.1427  0.3516
 7688SOL    HW125956   5.761   0.188   5.725 -0.7311  0.4385  1.2161
 7688SOL    HW225957   5.778   0.320   5.796  1.2313 -0.0163  1.6411
 7689SOL     OW25958   4.405   6.130   6.021 -0.3582 -0.0084 -0.3803
 7689SOL    HW125959   4.331   6.165   5.971 -0.3396  2.2924  1.0862
 7689SOL    HW225960   4.470   6.200   6.021  0.5141 -0.7692  1.0277
 7690SOL     OW25961   1.327   5.870   3.807  0.4385 -0.5830  0.1790
 7690SOL    HW125962   1.307   5.898   3.718 -1.4301 -0.5334  0.5825
 7690SOL    HW225963   1.348   5.777   3.799 -0.5154 -0.7711 -0.2224
 7691SOL     OW25964   0.573   8.534   5.526 -0.4676 -0.1871  0.6120
 7691SOL    HW125965   0.479   8.516   5.527 -0.3638 -0.8551  2.0787
 7691SOL    HW225966   0.607   8.485   5.451 -1.0590 -1.3577  1.0855
 7692SOL     OW25967   4.702   6.073   0.786  0.2857 -0.5118 -0.0490
 7692SOL    HW125968   4.679   5.992   0.831 -0.1979 -1.3612 -1.7282
 7692SOL    HW225969   4.621   6.100   0.743  0.8368 -0.0194 -0.8061
 7693SOL     OW25970   4.565   4.033   5.794  0.1364 -0.0934 -0.0747
 7693SOL    HW125971   4.472   4.020   5.772  0.3853 -1.2683 -0.5609
 7693SOL    HW225972   4.570   4.012   5.887 -0.1390  0.2912  0.0296
 7694SOL     OW25973   3.262   6.305   4.684 -0.0727 -0.1366 -0.6285
 7694SOL    HW125974   3.184   6.353   4.659 -1.0422 -0.9194  0.7628
 7694SOL    HW225975   3.260   6.225   4.631  0.5383  0.4529 -1.5742
 7695SOL     OW25976   8.577   8.064   3.450  0.1483  0.5257  0.1464
 7695SOL    HW125977   8.641   8.002   3.415  0.4330  0.6381  0.4596
 7695SOL    HW225978   8.557   8.031   3.538  0.4007  0.9531  0.3662
 7696SOL     OW25979   0.530   8.999   6.145 -0.4757  0.4055 -0.5606
 7696SOL    HW125980   0.456   9.059   6.152 -1.6808 -1.0025 -0.7918
 7696SOL    HW225981   0.544   8.989   6.051  0.7555  1.5047 -0.5273
 7697SOL     OW25982   5.494   2.071   5.951  0.0023 -0.1883  0.4924
 7697SOL    HW125983   5.563   2.133   5.926  0.3633 -1.5032 -2.0760
 7697SOL    HW225984   5.437   2.122   6.008  1.8920  1.5986  0.9234
 7698SOL     OW25985   4.901   3.321   6.143 -0.3123  0.0313  0.7789
 7698SOL    HW125986   4.838   3.272   6.195  0.4089 -1.8983 -0.0701
 7698SOL    HW225987   4.855   3.342   6.062 -1.1024  2.1488  1.7029
 7699SOL     OW25988   6.061   8.212   2.728  0.2324  0.4615 -0.2403
 7699SOL    HW125989   6.120   8.219   2.653 -0.4651 -0.6959 -0.9215
 7699SOL    HW225990   6.099   8.143   2.782  0.1693  0.5717 -0.0549
 7700SOL     OW25991   4.801   6.402   6.803  0.3273  0.1037  0.3177
 7700SOL    HW125992   4.887   6.419   6.841  0.4868  1.2386 -0.4807
 7700SOL    HW225993   4.820   6.376   6.713 -0.0552 -2.2554  0.8666
 7701SOL     OW25994   3.605   5.678   7.772  0.7298 -0.0984  0.3747
 7701SOL    HW125995   3.676   5.628   7.813  0.6387 -0.6758 -0.1488
 7701SOL    HW225996   3.525   5.634   7.800  0.6494 -0.2573 -0.0827
 7702SOL     OW25997   3.866   5.776   0.797 -0.2832 -0.4268  0.1842
 7702SOL    HW125998   3.868   5.826   0.879 -0.6300 -0.7408  0.3882
 7702SOL    HW225999   3.806   5.825   0.741 -0.1443 -0.2810  0.1615
 7703SOL     OW26000   2.245   6.854   9.400 -0.1796 -0.3427  0.5578
 7703SOL    HW126001   2.262   6.944   9.375 -0.7977 -0.5199 -0.5284
 7703SOL    HW226002   2.165   6.830   9.354  1.6275 -2.4447 -1.7881
 7704SOL     OW26003   1.802   2.287   5.951 -0.5897  0.4907  0.4197
 7704SOL    HW126004   1.820   2.224   5.882 -1.6231 -0.6766  1.1730
 7704SOL    HW226005   1.760   2.361   5.906  0.2469  0.4754 -0.4089
 7705SOL     OW26006   0.872   0.926   7.410  0.2325  0.1676 -0.3788
 7705SOL    HW126007   0.793   0.960   7.452  0.3285  2.1911 -1.6899
 7705SOL    HW226008   0.925   0.893   7.483 -2.2847 -2.4890  0.4309
 7706SOL     OW26009   6.863   0.774   7.382  1.4779  0.0402  0.3873
 7706SOL    HW126010   6.847   0.819   7.465 -1.7517  0.9932 -0.5916
 7706SOL    HW226011   6.894   0.842   7.322  2.0467 -0.2568  0.3366
 7707SOL     OW26012   6.054   5.486   7.377  0.3784  0.6660 -0.7614
 7707SOL    HW126013   6.023   5.418   7.437 -0.9078  1.4820 -0.4749
 7707SOL    HW226014   6.026   5.568   7.417  2.8062  1.4746 -0.5626
 7708SOL     OW26015   0.611   9.252   6.763  0.0648 -0.1911  0.3937
 7708SOL    HW126016   0.527   9.228   6.801 -0.3796  1.5381  0.6110
 7708SOL    HW226017   0.676   9.221   6.825 -0.4982 -0.2090  0.9868
 7709SOL     OW26018   2.093   8.035   2.141 -0.6377 -0.1127  0.0632
 7709SOL    HW126019   2.031   7.967   2.169 -1.3548 -0.1265 -1.4591
 7709SOL    HW226020   2.064   8.113   2.188 -0.9325 -0.4466  0.4494
 7710SOL     OW26021   3.191   3.536   3.870  0.3066  0.1653  0.3229
 7710SOL    HW126022   3.274   3.515   3.912  0.2174  2.2763  1.7098
 7710SOL    HW226023   3.159   3.613   3.916 -0.9621  1.2339 -2.1143
 7711SOL     OW26024   5.380   6.857   1.145 -0.0485 -0.6099  0.2017
 7711SOL    HW126025   5.449   6.898   1.092 -0.1431 -0.8333 -0.0995
 7711SOL    HW226026   5.423   6.833   1.227 -0.2907  1.2527  0.9183
 7712SOL     OW26027   1.866   2.341   1.702 -0.3546  0.0791  0.5157
 7712SOL    HW126028   1.842   2.398   1.629  0.6325 -0.4711 -0.2740
 7712SOL    HW226029   1.787   2.291   1.720 -0.3301 -0.5199 -0.9076
 7713SOL     OW26030   9.303   0.518   2.707 -0.2754  0.3993  0.0977
 7713SOL    HW126031   9.344   0.474   2.781  0.7367  1.5991  0.2853
 7713SOL    HW226032   9.219   0.474   2.696  0.2241 -0.8218  0.9597
 7714SOL     OW26033   4.351   1.525   8.212  0.1624  0.0343  0.2142
 7714SOL    HW126034   4.425   1.539   8.271  0.7187  0.2033 -0.5063
 7714SOL    HW226035   4.284   1.586   8.242  0.1528 -0.4099  1.1274
 7715SOL     OW26036   2.739   3.529   2.743 -0.1091  0.6315  0.3349
 7715SOL    HW126037   2.775   3.618   2.748  2.8219 -0.4598  0.8800
 7715SOL    HW226038   2.813   3.475   2.717 -1.3981 -1.8784  1.5197
 7716SOL     OW26039   1.486   7.668   0.503 -0.1331  0.0419 -0.0225
 7716SOL    HW126040   1.559   7.706   0.552  0.3785 -1.2015  0.2012
 7716SOL    HW226041   1.501   7.574   0.506 -1.3167 -0.1858 -0.6665
 7717SOL     OW26042   7.209   5.860   9.008 -0.1311 -0.9708 -0.0302
 7717SOL    HW126043   7.271   5.805   8.960  0.2088 -0.0837 -0.6368
 7717SOL    HW226044   7.125   5.845   8.964 -0.5196 -2.6733  1.2005
 7718SOL     OW26045   1.894   4.358   6.559 -0.5299 -0.2699  0.5370
 7718SOL    HW126046   1.954   4.284   6.566 -0.8276 -0.3863  2.2120
 7718SOL    HW226047   1.824   4.326   6.502  0.5864 -0.3911 -0.8017
 7719SOL     OW26048   5.047   5.312   7.347 -0.2947  0.5402 -0.6101
 7719SOL    HW126049   5.055   5.304   7.442 -0.0270 -0.9994 -0.7266
 7719SOL    HW226050   5.080   5.399   7.327  1.2993  0.2540  0.5455
 7720SOL     OW26051   6.225   4.157   6.937 -0.3911 -0.4730 -0.0519
 7720SOL    HW126052   6.130   4.165   6.926 -0.5449 -1.6026  0.3606
 7720SOL    HW226053   6.236   4.118   7.024  0.5123  0.9349  0.5031
 7721SOL     OW26054   3.281   6.206   6.281 -0.3522 -0.7792  0.4252
 7721SOL    HW126055   3.249   6.226   6.193 -2.3197 -0.4317  1.1725
 7721SOL    HW226056   3.347   6.138   6.267  0.5274  0.3455 -1.4331
 7722SOL     OW26057   9.601   1.084   8.311  0.2654 -0.1431  0.3734
 7722SOL    HW126058   9.509   1.099   8.332  0.0197 -1.9031  0.7248
 7722SOL    HW226059   9.648   1.103   8.393  0.1663  0.2837  0.3328
 7723SOL     OW26060   0.500   8.712   1.437  0.0826  1.0261  0.0080
 7723SOL    HW126061   0.554   8.749   1.507 -0.8961  1.2402  0.6777
 7723SOL    HW226062   0.489   8.620   1.462 -0.1427  1.0660  0.0603
 7724SOL     OW26063   7.852   5.951   7.083 -0.0764  0.0122 -0.4504
 7724SOL    HW126064   7.927   5.922   7.135  1.0654  2.3263 -0.7063
 7724SOL    HW226065   7.787   5.881   7.095  1.4641 -1.2517  1.1460
 7725SOL     OW26066   3.906   6.876   7.488 -0.1860 -0.1301 -0.2006
 7725SOL    HW126067   3.972   6.848   7.551  0.8265 -0.8748 -1.5427
 7725SOL    HW226068   3.943   6.953   7.445 -1.1849  0.8204  0.5851
 7726SOL     OW26069   2.055   0.409   4.625  0.1586  0.3639 -0.3364
 7726SOL    HW126070   2.091   0.353   4.557 -1.4470 -1.1518 -0.0094
 7726SOL    HW226071   2.004   0.475   4.578  1.4510  1.1307 -0.6952
 7727SOL     OW26072   5.279   9.257   3.519  0.1065 -0.2329 -0.2548
 7727SOL    HW126073   5.246   9.333   3.567 -0.7481 -0.4686 -0.4461
 7727SOL    HW226074   5.262   9.183   3.578  2.3988 -0.1308  0.6281
 7728SOL     OW26075   0.576   6.454   5.922 -0.2235 -0.5157 -0.1202
 7728SOL    HW126076   0.497   6.416   5.883 -1.8038  1.2469  1.1796
 7728SOL    HW226077   0.605   6.519   5.859 -0.9432  0.1416  0.2078
 7729SOL     OW26078   5.565   8.492   3.381  0.5801 -0.3274  0.4409
 7729SOL    HW126079   5.510   8.488   3.459  0.7683 -2.1695  0.5311
 7729SOL    HW226080   5.545   8.577   3.341 -0.7797 -0.0844  1.5664
 7730SOL     OW26081   6.330   1.115   5.571 -0.3410 -0.5080  0.2385
 7730SOL    HW126082   6.381   1.070   5.639  2.9441  1.3953 -0.7015
 7730SOL    HW226083   6.301   1.196   5.612  1.0944  0.3420 -0.3301
 7731SOL     OW26084   7.524   1.445   4.684  0.6771 -0.8276  0.3941
 7731SOL    HW126085   7.492   1.360   4.712 -0.8142 -0.2503  0.5737
 7731SOL    HW226086   7.554   1.488   4.764 -0.0033 -0.6243  0.5491
 7732SOL     OW26087   8.053   9.138   7.076  0.3798 -0.6408  0.0055
 7732SOL    HW126088   7.972   9.113   7.031 -0.1756  0.8062  0.1422
 7732SOL    HW226089   8.119   9.139   7.007 -0.0513 -0.3408 -0.4122
 7733SOL     OW26090   7.774   8.022   0.074 -0.7338 -0.3370 -0.1821
 7733SOL    HW126091   7.700   8.034   0.015 -0.1838 -2.3589 -1.3732
 7733SOL    HW226092   7.833   7.963   0.027  1.4429  0.8308  0.9083
 7734SOL     OW26093   1.408   3.923   0.687 -0.2961  0.3897  0.0600
 7734SOL    HW126094   1.423   4.018   0.687 -0.5020  0.4551 -1.7208
 7734SOL    HW226095   1.414   3.898   0.779 -0.8716  2.2290  0.6476
 7735SOL     OW26096   6.922   5.784   3.168  0.2252 -0.6595  0.2852
 7735SOL    HW126097   7.003   5.815   3.208  1.5271 -0.3278 -2.3998
 7735SOL    HW226098   6.871   5.748   3.241  2.5650 -0.4674  2.1167
 7736SOL     OW26099   0.043   8.583   8.901 -0.1849  0.0219  0.1939
 7736SOL    HW126100   0.023   8.490   8.909  1.5150 -0.4373 -0.6606
 7736SOL    HW226101   0.138   8.588   8.898 -0.1116  1.9778  2.3254
 7737SOL     OW26102   2.046   0.540   1.144 -0.4668 -0.7870 -0.6014
 7737SOL    HW126103   2.023   0.459   1.099 -1.9530  0.1050 -1.5451
 7737SOL    HW226104   2.011   0.609   1.088 -0.1082  0.4788  0.6738
 7738SOL     OW26105   3.520   0.742   4.862 -0.0488 -0.8564 -0.3336
 7738SOL    HW126106   3.469   0.666   4.835  1.2050 -1.7525 -0.3139
 7738SOL    HW226107   3.598   0.739   4.806 -0.2142  0.7298 -0.6954
 7739SOL     OW26108   3.958   5.349   6.567 -0.4399  0.1201  0.2009
 7739SOL    HW126109   3.952   5.264   6.522  0.7268 -0.8316  1.7391
 7739SOL    HW226110   4.034   5.392   6.528 -1.5805  0.9017 -1.2329
 7740SOL     OW26111   6.344   4.309   1.842  0.3457 -0.2391 -0.7542
 7740SOL    HW126112   6.273   4.321   1.905 -0.1141 -0.6773 -1.1775
 7740SOL    HW226113   6.381   4.396   1.829  0.3947 -0.1331  0.0561
 7741SOL     OW26114   8.148   6.472   1.317 -0.4765 -0.1535  0.2327
 7741SOL    HW126115   8.134   6.549   1.371 -0.2870  0.1414 -0.1360
 7741SOL    HW226116   8.170   6.507   1.230  0.3957 -0.6076  0.2593
 7742SOL     OW26117   1.712   5.987   4.671 -0.0060  0.2260 -0.5698
 7742SOL    HW126118   1.621   6.013   4.652 -0.0780  0.7175  0.4329
 7742SOL    HW226119   1.705   5.896   4.698 -0.2920  0.4465  0.1275
 7743SOL     OW26120   7.636   4.124   1.338 -0.6444  0.2183  0.4568
 7743SOL    HW126121   7.628   4.211   1.299 -1.5723 -0.4600 -0.9537
 7743SOL    HW226122   7.698   4.078   1.281  0.7224  0.2910  1.8494
 7744SOL     OW26123   1.253   3.231   3.955 -0.0708 -0.3085  0.2714
 7744SOL    HW126124   1.232   3.159   4.015  1.5875 -1.1220 -0.0619
 7744SOL    HW226125   1.333   3.269   3.992  0.1895  0.0721 -0.6767
 7745SOL     OW26126   7.409   9.191   9.439 -0.2953 -0.4947 -0.4451
 7745SOL    HW126127   7.498   9.221   9.460  0.2836 -0.6821 -2.4624
 7745SOL    HW226128   7.393   9.119   9.501 -0.1576  1.2717  1.7699
 7746SOL     OW26129   5.940   9.055   5.150 -0.2915 -0.0455 -0.9476
 7746SOL    HW126130   5.993   9.021   5.078  1.6749 -0.3991  0.5738
 7746SOL    HW226131   5.887   8.980   5.178 -0.7502 -0.0221 -1.7353
 7747SOL     OW26132   6.338   8.378   1.872 -0.5178  0.6094 -0.0150
 7747SOL    HW126133   6.245   8.355   1.871 -0.6893  1.0435  1.9798
 7747SOL    HW226134   6.383   8.295   1.858 -1.1810 -0.5954  3.8499
 7748SOL     OW26135   4.074   6.827   3.352  1.1895  0.2121 -0.3440
 7748SOL    HW126136   4.030   6.858   3.272 -2.9209  0.8582  1.8654
 7748SOL    HW226137   4.064   6.899   3.414 -1.3763 -2.3313  2.5117
 7749SOL     OW26138   7.626   8.303   7.509 -0.0692 -0.2442  0.5253
 7749SOL    HW126139   7.708   8.300   7.559 -0.3334  2.4040  1.2387
 7749SOL    HW226140   7.637   8.377   7.449 -0.9935 -1.4329 -1.2034
 7750SOL     OW26141   7.043   3.320   2.043 -0.0591 -0.4834 -0.0623
 7750SOL    HW126142   7.090   3.260   2.100 -0.8934  0.1839  1.4194
 7750SOL    HW226143   6.985   3.368   2.103 -0.4231  0.7951 -1.3855
 7751SOL     OW26144   0.547   0.881   6.343  0.3162  0.0164  0.2002
 7751SOL    HW126145   0.622   0.939   6.359  0.2171  0.0933  0.3869
 7751SOL    HW226146   0.585   0.794   6.334  0.4725  0.1204 -0.1384
 7752SOL     OW26147   3.290   3.550   1.521 -0.7871 -0.3660  0.4616
 7752SOL    HW126148   3.294   3.531   1.615 -2.9764  0.8187  0.8406
 7752SOL    HW226149   3.303   3.645   1.515 -1.1163 -0.3664 -0.3912
 7753SOL     OW26150   7.166   4.450   3.857  0.4627 -0.5681 -0.2086
 7753SOL    HW126151   7.090   4.461   3.800  0.0181  0.7451  0.6041
 7753SOL    HW226152   7.148   4.505   3.933  2.9347  1.1107 -0.7108
 7754SOL     OW26153   7.646   8.640   2.821 -0.5105  0.9218  0.3543
 7754SOL    HW126154   7.681   8.552   2.836 -0.4867  0.5930 -1.4985
 7754SOL    HW226155   7.551   8.628   2.819 -0.5074  0.9507  0.1066
 7755SOL     OW26156   3.402   5.554   5.204  0.1521  0.3807  0.0331
 7755SOL    HW126157   3.308   5.570   5.217 -0.2351 -1.3736 -0.3465
 7755SOL    HW226158   3.406   5.468   5.162  1.8029  1.6079 -2.5748
 7756SOL     OW26159   6.949   2.143   8.946  0.5665 -0.2102  0.0147
 7756SOL    HW126160   6.881   2.139   9.013  1.0490  3.0076  0.8504
 7756SOL    HW226161   6.911   2.195   8.875  1.3866 -0.2515 -0.4758
 7757SOL     OW26162   7.871   0.333   4.673  0.3193 -0.3293 -0.2882
 7757SOL    HW126163   7.940   0.311   4.736 -0.0573 -1.5889 -0.2858
 7757SOL    HW226164   7.817   0.254   4.669 -0.0106 -0.0512 -1.7363
 7758SOL     OW26165   8.839   5.373   2.462  0.2297  0.0197  0.1872
 7758SOL    HW126166   8.773   5.435   2.432 -0.8512 -1.6850 -1.0895
 7758SOL    HW226167   8.860   5.402   2.551 -1.6991  1.0327  0.3650
 7759SOL     OW26168   3.022   1.740   8.195 -0.0578  0.3175 -0.1817
 7759SOL    HW126169   3.032   1.816   8.252  0.6098  0.2147 -0.1527
 7759SOL    HW226170   2.974   1.676   8.249 -0.5208  0.6753 -0.1693
 7760SOL     OW26171   2.337   9.085   0.940  0.4740  0.1211 -0.4715
 7760SOL    HW126172   2.369   9.130   1.018 -0.3229 -0.1076 -0.0003
 7760SOL    HW226173   2.394   9.008   0.932  1.2650  0.7311 -0.7652
 7761SOL     OW26174   7.728   9.469   2.822  0.0639  0.7392 -0.3461
 7761SOL    HW126175   7.708   9.473   2.916 -0.8031 -0.1937 -0.4869
 7761SOL    HW226176   7.798   9.404   2.815  0.0459  0.7222 -0.3691
 7762SOL     OW26177   6.960   4.072   7.056 -0.8232 -0.2830  0.5532
 7762SOL    HW126178   6.977   4.166   7.058 -1.2351  0.0443 -3.3344
 7762SOL    HW226179   6.888   4.062   6.993  0.8606 -3.3177 -1.1351
 7763SOL     OW26180   3.510   5.172   1.600 -0.0843 -0.3950  0.4484
 7763SOL    HW126181   3.423   5.175   1.562 -0.3488  0.7404  1.0935
 7763SOL    HW226182   3.563   5.124   1.536 -1.2348 -1.3596  0.1991
 7764SOL     OW26183   9.344   1.643   8.278 -0.6095 -0.8045  0.3354
 7764SOL    HW126184   9.283   1.714   8.300 -0.3403 -0.7954  1.0877
 7764SOL    HW226185   9.411   1.684   8.224 -0.2358 -0.3849  1.1004
 7765SOL     OW26186   5.517   1.114   0.339 -0.4698 -0.3010  0.1633
 7765SOL    HW126187   5.477   1.190   0.380 -1.3949 -1.0981  0.7976
 7765SOL    HW226188   5.464   1.098   0.261 -1.4852 -1.3893  1.0316
 7766SOL     OW26189   7.214   3.479   3.804 -0.3048 -0.1048 -0.2671
 7766SOL    HW126190   7.269   3.486   3.726 -1.3789 -0.5245 -1.0964
 7766SOL    HW226191   7.195   3.385   3.812  0.8225 -0.2424  1.2656
 7767SOL     OW26192   7.397   2.690   5.847 -0.1247 -0.5864  0.5511
 7767SOL    HW126193   7.349   2.772   5.850 -1.7254 -1.4817  0.7672
 7767SOL    HW226194   7.479   2.708   5.892  0.9417  1.6939 -2.0053
 7768SOL     OW26195   3.275   3.812   1.448 -0.2207  0.2411  0.2259
 7768SOL    HW126196   3.238   3.802   1.361  1.4996 -0.4249 -0.4777
 7768SOL    HW226197   3.203   3.846   1.501 -1.4135  0.2875 -1.3476
 7769SOL     OW26198   0.547   5.388   6.815 -0.3395 -0.1310 -0.8031
 7769SOL    HW126199   0.552   5.405   6.721  0.2868  2.9660 -0.3088
 7769SOL    HW226200   0.453   5.388   6.835 -0.4334  2.3488 -1.0129
 7770SOL     OW26201   5.215   8.754   9.197 -0.0510  0.4376 -0.4982
 7770SOL    HW126202   5.306   8.724   9.193 -0.1953 -0.7281  2.7044
 7770SOL    HW226203   5.164   8.681   9.163  0.0394 -0.1689  0.6440
 7771SOL     OW26204   8.446   1.097   5.495 -0.0431 -0.5394  0.3790
 7771SOL    HW126205   8.455   1.012   5.537  0.9876 -1.1447 -1.0018
 7771SOL    HW226206   8.533   1.116   5.460 -0.0708  1.4176  1.2474
 7772SOL     OW26207   5.615   8.845   9.044  0.0880  0.3417  0.1537
 7772SOL    HW126208   5.543   8.861   8.983  0.5748 -2.6574 -1.4033
 7772SOL    HW226209   5.694   8.857   8.991  0.6113  0.2974  0.9107
 7773SOL     OW26210   5.854   6.124   7.875  0.4907 -0.2165  0.2068
 7773SOL    HW126211   5.860   6.050   7.814  0.2228  0.3488 -0.5216
 7773SOL    HW226212   5.762   6.124   7.902  0.8235 -1.0792  1.4160
 7774SOL     OW26213   4.131   3.417   7.238 -0.2197 -0.1591  0.0584
 7774SOL    HW126214   4.117   3.422   7.143  0.9215  2.2376 -0.0696
 7774SOL    HW226215   4.043   3.407   7.275 -0.5909 -2.1885 -1.2433
 7775SOL     OW26216   3.570   5.862   6.972 -0.2031  0.1998  0.2819
 7775SOL    HW126217   3.581   5.955   6.993  1.1826  0.1376 -0.0670
 7775SOL    HW226218   3.596   5.816   7.052 -3.0917  0.1116  1.2699
 7776SOL     OW26219   1.750   5.166   4.867  0.4257 -0.4378  0.3112
 7776SOL    HW126220   1.840   5.187   4.842 -0.0402  2.2453  0.5920
 7776SOL    HW226221   1.715   5.118   4.792  1.2075  1.2029 -1.1676
 7777SOL     OW26222   8.675   6.877   5.670 -0.2871  0.0099 -0.1998
 7777SOL    HW126223   8.761   6.916   5.658 -0.4831  0.3696 -0.4720
 7777SOL    HW226224   8.664   6.870   5.765 -0.0304  0.1284 -0.1624
 7778SOL     OW26225   7.689   7.582   0.158 -0.1001 -0.2959  0.3624
 7778SOL    HW126226   7.659   7.656   0.211  1.2001  0.2557  0.3816
 7778SOL    HW226227   7.715   7.621   0.075  1.1636 -0.6110  0.5816
 7779SOL     OW26228   4.243   3.917   1.476  0.5424  0.1658 -0.3958
 7779SOL    HW126229   4.274   3.916   1.567  1.4221  0.7532 -0.6772
 7779SOL    HW226230   4.148   3.913   1.483  0.6181 -0.2894  0.5357
 7780SOL     OW26231   5.257   0.347   0.731  0.2608 -0.1795 -0.2627
 7780SOL    HW126232   5.164   0.335   0.712  0.1190  0.6495 -0.0955
 7780SOL    HW226233   5.297   0.265   0.702 -0.2226  0.2513 -2.3424
 7781SOL     OW26234   6.938   8.239   5.170 -0.1061  0.1907 -0.3302
 7781SOL    HW126235   6.979   8.305   5.225  0.7140 -0.6197  0.0540
 7781SOL    HW226236   6.961   8.263   5.081  0.6720  0.1038 -0.1566
 7782SOL     OW26237   9.565   1.635   0.057  0.5386  0.2368  0.1408
 7782SOL    HW126238   9.585   1.663  -0.032 -0.3496 -1.2105 -0.5332
 7782SOL    HW226239   9.590   1.710   0.111  1.2084  1.0930 -1.2952
 7783SOL     OW26240   8.472   3.022   9.221 -0.3747 -0.2710 -0.2693
 7783SOL    HW126241   8.496   2.950   9.279 -0.0779  0.7521  0.9262
 7783SOL    HW226242   8.392   3.058   9.258 -1.0754 -0.5788 -1.4275
 7784SOL     OW26243   9.315   2.261   8.003  0.9318 -0.4093  0.1616
 7784SOL    HW126244   9.314   2.356   7.996  1.3359 -0.4213 -0.1147
 7784SOL    HW226245   9.340   2.244   8.094  1.4653 -0.2462  0.0513
 7785SOL     OW26246   6.446   4.870   8.489 -0.1844  0.5334 -0.3208
 7785SOL    HW126247   6.372   4.824   8.449 -0.0398 -0.6627  0.7380
 7785SOL    HW226248   6.454   4.831   8.576  1.6325  0.7071 -0.3824
 7786SOL     OW26249   0.116   1.432   6.851 -0.3476  0.5358  0.0504
 7786SOL    HW126250   0.110   1.486   6.772 -2.0798 -0.0549 -0.2776
 7786SOL    HW226251   0.028   1.394   6.860  0.0856 -0.1329  1.7519
 7787SOL     OW26252   2.254   4.427   6.995  0.2870  0.3009  0.5594
 7787SOL    HW126253   2.338   4.384   6.978 -0.1375  0.1053 -1.2706
 7787SOL    HW226254   2.259   4.509   6.946 -0.9603 -0.1989 -0.4764
 7788SOL     OW26255   1.006   7.273   4.710  0.1561 -0.8830 -0.0381
 7788SOL    HW126256   0.960   7.333   4.652  0.2295 -2.1635 -1.4962
 7788SOL    HW226257   0.944   7.201   4.723  1.1374 -1.9051 -0.7976
 7789SOL     OW26258   8.975   2.139   8.821  0.1431 -0.0518  0.5271
 7789SOL    HW126259   8.960   2.234   8.817 -0.5462 -0.1163  1.3526
 7789SOL    HW226260   9.068   2.129   8.798 -0.3801  0.5731 -2.2947
 7790SOL     OW26261   1.861   3.841   2.212 -0.3688  0.4593  0.2442
 7790SOL    HW126262   1.889   3.750   2.224 -0.3384  0.5667  1.0347
 7790SOL    HW226263   1.767   3.839   2.225 -0.1648  0.8067  2.0168
 7791SOL     OW26264   8.723   7.212   7.838 -0.0159  0.0495  0.1801
 7791SOL    HW126265   8.789   7.236   7.773 -1.0273 -0.4919 -1.0926
 7791SOL    HW226266   8.727   7.117   7.843  0.0129  0.0776  0.8926
 7792SOL     OW26267   4.218   7.469   3.531 -0.3415 -0.4679 -0.1149
 7792SOL    HW126268   4.218   7.375   3.550 -1.2093 -0.6102 -0.7307
 7792SOL    HW226269   4.310   7.495   3.541  0.1721 -1.6680 -1.2378
 7793SOL     OW26270   7.241   1.955   3.548 -0.1021 -0.3172 -0.3904
 7793SOL    HW126271   7.248   2.045   3.579  0.8146 -0.7010  0.5899
 7793SOL    HW226272   7.281   1.903   3.617 -1.5973 -1.5952 -0.4241
 7794SOL     OW26273   2.244   7.798   2.711 -0.0815 -0.2513  0.3679
 7794SOL    HW126274   2.162   7.824   2.669 -0.7323 -0.7665  1.2768
 7794SOL    HW226275   2.304   7.782   2.639 -1.1056 -0.9160 -0.3600
 7795SOL     OW26276   2.652   6.828   7.770  0.3152 -0.1972  0.0065
 7795SOL    HW126277   2.700   6.746   7.767 -1.1238 -1.0310 -2.2648
 7795SOL    HW226278   2.714   6.894   7.740  0.9093 -0.7485  0.0100
 7796SOL     OW26279   5.744   7.691   2.594 -0.5525  0.1555 -0.2303
 7796SOL    HW126280   5.727   7.702   2.500  0.7282 -1.0794 -0.6630
 7796SOL    HW226281   5.665   7.651   2.629 -1.4087  1.5039 -0.5779
 7797SOL     OW26282   2.149   1.190   4.420  0.6488 -1.1294 -0.0480
 7797SOL    HW126283   2.214   1.149   4.478 -0.1518  0.6511  2.2362
 7797SOL    HW226284   2.198   1.261   4.377  0.3632  0.0846  1.5220
 7798SOL     OW26285   6.306   2.568   3.854 -0.4318  0.7337 -0.0876
 7798SOL    HW126286   6.296   2.602   3.944  0.2359 -0.2303  0.3610
 7798SOL    HW226287   6.236   2.503   3.845  0.3995 -0.2328  0.2634
 7799SOL     OW26288   7.215   2.372   1.151 -0.2161 -0.6370 -0.5608
 7799SOL    HW126289   7.240   2.323   1.073  0.1790  0.9110 -1.4562
 7799SOL    HW226290   7.263   2.454   1.144 -0.8876 -0.0871  0.8537
 7800SOL     OW26291   6.155   5.986   0.009  0.1896 -0.1203  0.2571
 7800SOL    HW126292   6.059   5.992   0.001  0.0714  0.3985  1.7489
 7800SOL    HW226293   6.171   5.896   0.037  0.2696 -0.5780 -1.1338
 7801SOL     OW26294   5.404   5.650   3.962 -0.5700 -0.2054  0.7563
 7801SOL    HW126295   5.441   5.586   3.901 -2.8723  1.5699 -2.8244
 7801SOL    HW226296   5.471   5.718   3.969 -0.3980 -0.2879 -0.0299
 7802SOL     OW26297   8.760   6.426   7.086  0.7002 -0.5731 -0.6098
 7802SOL    HW126298   8.803   6.390   7.164  1.9122 -0.3338 -1.1452
 7802SOL    HW226299   8.735   6.349   7.035  0.5526 -0.7127 -0.3306
 7803SOL     OW26300   6.397   6.624   1.479 -0.5311  0.2791 -0.2213
 7803SOL    HW126301   6.302   6.634   1.484 -0.4773  1.9465 -1.7821
 7803SOL    HW226302   6.426   6.693   1.420  1.5886 -0.6516 -0.3661
 7804SOL     OW26303   2.372   8.224   0.461  0.0023  0.1000  0.1755
 7804SOL    HW126304   2.290   8.185   0.492  0.4001 -0.3384  0.6912
 7804SOL    HW226305   2.435   8.206   0.531  0.4850  0.6273 -0.1195
 7805SOL     OW26306   5.520   4.044   4.909  0.5546  0.0289  0.2177
 7805SOL    HW126307   5.482   4.119   4.863  0.4798  0.1139  0.4177
 7805SOL    HW226308   5.612   4.045   4.884 -0.0875 -1.9687 -2.7407
 7806SOL     OW26309   7.531   9.149   7.856 -0.0834  0.6069 -0.1670
 7806SOL    HW126310   7.533   9.109   7.769 -0.5101 -2.1128  0.9791
 7806SOL    HW226311   7.448   9.120   7.894  0.6416  0.6935  1.6002
 7807SOL     OW26312   0.271   0.471   0.166 -0.8771  0.0909  0.2110
 7807SOL    HW126313   0.358   0.435   0.151 -0.3529  1.4996 -0.3788
 7807SOL    HW226314   0.214   0.395   0.178  0.2542 -0.8764 -0.3781
 7808SOL     OW26315   9.147   2.849   8.922 -0.0019 -0.6093 -0.2357
 7808SOL    HW126316   9.086   2.880   8.856 -0.2410 -0.1561  0.1882
 7808SOL    HW226317   9.219   2.912   8.920 -1.2683  1.0221  1.7903
 7809SOL     OW26318   9.210   8.864   4.565 -0.2922  0.2910 -0.5561
 7809SOL    HW126319   9.193   8.771   4.583 -0.7574  0.2942 -0.9439
 7809SOL    HW226320   9.128   8.896   4.528 -0.3915  1.0505  0.2934
 7810SOL     OW26321   5.460   6.391   7.851 -0.0007  0.4025  0.3041
 7810SOL    HW126322   5.541   6.417   7.808  0.1069 -0.5391 -0.0824
 7810SOL    HW226323   5.420   6.474   7.879 -0.1025  1.0722 -1.6521
 7811SOL     OW26324   8.097   9.441   2.206  0.5582  0.2182  0.0373
 7811SOL    HW126325   8.162   9.478   2.266  0.7333 -1.8556  1.2236
 7811SOL    HW226326   8.031   9.401   2.263  0.5908 -1.6028 -1.1086
 7812SOL     OW26327   6.079   5.232   9.463  0.2073  0.3487  0.0559
 7812SOL    HW126328   6.129   5.242   9.381  0.7857 -0.5906  0.2734
 7812SOL    HW226329   6.114   5.300   9.521  1.7899 -0.7348  0.4448
 7813SOL     OW26330   8.456   2.437   3.468 -0.2547  0.1532 -0.4715
 7813SOL    HW126331   8.375   2.386   3.472  0.3093 -0.7525 -0.2855
 7813SOL    HW226332   8.490   2.435   3.558 -1.2252  2.5786  0.0337
 7814SOL     OW26333   1.092   8.835   4.686  0.1497 -0.4552  0.4370
 7814SOL    HW126334   1.171   8.788   4.711 -0.0885 -1.3428 -0.3836
 7814SOL    HW226335   1.021   8.781   4.720 -0.1156 -0.1325  0.3989
 7815SOL     OW26336   9.620   4.731   6.959 -0.3150  0.4426  0.1223
 7815SOL    HW126337   9.525   4.744   6.955 -0.6686 -1.6623  0.7765
 7815SOL    HW226338   9.638   4.706   7.050  0.5611 -1.1603 -0.4551
 7816SOL     OW26339   8.258   7.669   6.364 -0.9504  0.1118 -0.6532
 7816SOL    HW126340   8.345   7.630   6.376 -0.2053  1.5046 -1.2086
 7816SOL    HW226341   8.249   7.731   6.436 -2.4795 -1.6091  0.7236
 7817SOL     OW26342   5.427   5.687   5.254 -0.0979  0.0074  0.1326
 7817SOL    HW126343   5.373   5.620   5.297 -1.0614  1.1082  0.7066
 7817SOL    HW226344   5.399   5.685   5.162 -0.9433  0.3630  0.3676
 7818SOL     OW26345   6.115   0.962   1.963 -0.2475 -0.7068  0.1963
 7818SOL    HW126346   6.096   1.011   2.043 -1.0171  0.8979 -0.9137
 7818SOL    HW226347   6.064   0.881   1.972  1.1638 -1.4400  2.1345
 7819SOL     OW26348   1.362   5.359   8.397  0.2318  0.4058 -0.3214
 7819SOL    HW126349   1.310   5.303   8.339  1.2853 -0.5913 -0.3459
 7819SOL    HW226350   1.347   5.322   8.485  2.8028 -1.5568 -0.5829
 7820SOL     OW26351   4.455   1.107   0.228  0.0652  0.3702  0.0781
 7820SOL    HW126352   4.493   1.049   0.162 -0.9725 -0.3057  0.0442
 7820SOL    HW226353   4.382   1.056   0.265  0.5850  0.7465  1.7118
 7821SOL     OW26354   5.424   8.071   9.353 -0.1690 -0.0055 -0.2330
 7821SOL    HW126355   5.358   8.044   9.288 -1.3453 -0.0294  0.9311
 7821SOL    HW226356   5.507   8.037   9.318 -1.3380 -4.1611  0.5047
 7822SOL     OW26357   1.205   1.197   0.556  0.1341  0.2853 -0.2308
 7822SOL    HW126358   1.115   1.183   0.586  0.2402 -2.3125 -0.8698
 7822SOL    HW226359   1.254   1.219   0.635 -0.6767 -0.5644  0.5341
 7823SOL     OW26360   4.639   0.330   6.102 -0.1011 -0.4116  0.1687
 7823SOL    HW126361   4.719   0.278   6.103  0.5603  0.5807  0.1552
 7823SOL    HW226362   4.632   0.366   6.191 -0.9292 -1.0710  0.3852
 7824SOL     OW26363   7.542   8.812   3.893 -0.1791 -0.4112  0.1615
 7824SOL    HW126364   7.448   8.821   3.876  0.0864  1.1273 -0.7301
 7824SOL    HW226365   7.570   8.901   3.917  1.4450 -0.3051 -1.8608
 7825SOL     OW26366   6.511   5.490   3.394 -0.0934 -0.0557  0.3972
 7825SOL    HW126367   6.465   5.406   3.401 -1.3014  0.6656  1.5664
 7825SOL    HW226368   6.443   5.556   3.409  0.6029  1.1996 -1.5075
 7826SOL     OW26369   0.798   8.639   1.731  0.3408 -0.2256 -0.7370
 7826SOL    HW126370   0.804   8.616   1.824 -0.1215 -2.1039 -1.1349
 7826SOL    HW226371   0.775   8.557   1.687 -2.6436  1.1990 -2.1567
 7827SOL     OW26372   8.171   6.215   7.191 -0.1709 -0.0999 -0.1699
 7827SOL    HW126373   8.233   6.258   7.132  1.3718 -1.6758  0.2113
 7827SOL    HW226374   8.166   6.125   7.159 -2.7058  0.0715 -0.4758
 7828SOL     OW26375   2.267   0.848   8.900  0.1487 -0.8613  0.9549
 7828SOL    HW126376   2.198   0.845   8.966  0.6872 -1.9231  1.4922
 7828SOL    HW226377   2.275   0.758   8.870 -0.3512 -0.3409 -0.8686
 7829SOL     OW26378   0.820   9.460   0.793 -0.4732 -0.1331 -0.0322
 7829SOL    HW126379   0.836   9.466   0.699  1.5696 -1.9176  0.1175
 7829SOL    HW226380   0.731   9.428   0.800 -0.4422 -0.5863 -1.3934
 7830SOL     OW26381   2.334   7.379   7.315  0.7550 -0.3512 -0.2048
 7830SOL    HW126382   2.304   7.438   7.383 -0.4991 -1.8249  0.5704
 7830SOL    HW226383   2.262   7.376   7.252  0.7378 -1.1497 -0.1591
 7831SOL     OW26384   4.004   2.592   7.451 -0.5439 -0.3861  0.2525
 7831SOL    HW126385   4.070   2.526   7.474  0.9734  1.2483  0.8176
 7831SOL    HW226386   4.017   2.662   7.514 -0.7693  1.3277 -1.4947
 7832SOL     OW26387   3.140   8.255   6.674  0.1433  0.7374  0.0850
 7832SOL    HW126388   3.063   8.294   6.716 -1.5763 -1.1818 -1.0663
 7832SOL    HW226389   3.131   8.161   6.690  1.3338  0.3106 -1.4952
 7833SOL     OW26390   7.370   3.865   0.588  0.1657  0.2134 -0.1148
 7833SOL    HW126391   7.445   3.845   0.644  1.4198  1.5756 -1.2220
 7833SOL    HW226392   7.409   3.903   0.509 -1.7469  2.7145  0.0213
 7834SOL     OW26393   8.270   0.148   2.542 -0.3282 -0.3090 -0.2050
 7834SOL    HW126394   8.264   0.102   2.626  2.0530  0.5338  0.5043
 7834SOL    HW226395   8.182   0.184   2.528 -0.5433  0.4213  2.4808
 7835SOL     OW26396   5.036   0.635   6.026 -0.3019 -0.6315 -0.1867
 7835SOL    HW126397   5.054   0.633   5.932 -2.3045 -2.6659 -0.6249
 7835SOL    HW226398   5.122   0.625   6.067  0.4715 -1.1309 -1.8428
 7836SOL     OW26399   2.281   7.880   7.363 -0.0611 -0.4266  0.7727
 7836SOL    HW126400   2.348   7.851   7.425  0.8061  1.8528  0.9903
 7836SOL    HW226401   2.227   7.942   7.412 -0.7526 -0.2786 -0.1378
 7837SOL     OW26402   3.701   8.779   5.956  0.2073  0.3083 -0.4284
 7837SOL    HW126403   3.688   8.851   5.894  1.2686 -1.1860 -2.5466
 7837SOL    HW226404   3.740   8.820   6.033  0.2018  2.0855 -1.3213
 7838SOL     OW26405   7.791   2.688   9.183 -0.6937 -0.3569 -0.4915
 7838SOL    HW126406   7.879   2.652   9.167 -0.3419  0.7024 -1.0290
 7838SOL    HW226407   7.732   2.614   9.170  0.0298 -0.7994 -1.3717
 7839SOL     OW26408   2.548   0.846   2.043  1.0230  0.0015 -0.5448
 7839SOL    HW126409   2.550   0.890   2.128 -2.0035  1.4235 -1.0844
 7839SOL    HW226410   2.639   0.841   2.017  1.9788  0.4000  2.3262
 7840SOL     OW26411   7.805   1.898   6.638  0.3201  0.3914 -0.3930
 7840SOL    HW126412   7.820   1.894   6.732  1.3111  0.9585 -0.5139
 7840SOL    HW226413   7.756   1.818   6.618  2.2331 -1.0059  0.2304
 7841SOL     OW26414   3.231   1.312   7.382 -0.2717 -0.1984 -0.1537
 7841SOL    HW126415   3.277   1.263   7.451  0.7556  0.7723 -0.1281
 7841SOL    HW226416   3.248   1.404   7.402  0.1702  0.1042 -1.7762
 7842SOL     OW26417   5.435   4.460   3.613  0.2499  0.5670 -0.3574
 7842SOL    HW126418   5.443   4.370   3.581 -0.0185  0.7252 -0.8756
 7842SOL    HW226419   5.508   4.470   3.674 -1.1656 -0.8118  1.6724
 7843SOL     OW26420   1.984   0.750   0.949 -0.1758  0.7930  0.6658
 7843SOL    HW126421   1.945   0.807   1.014  0.4454  0.7253  1.1079
 7843SOL    HW226422   2.013   0.808   0.879 -0.0324  0.9639  0.8673
 7844SOL     OW26423   6.925   2.994   0.948 -0.0868  0.2079 -0.0652
 7844SOL    HW126424   6.932   2.903   0.921 -0.4045 -0.0595  0.7237
 7844SOL    HW226425   6.971   2.998   1.032  0.9028  1.0228 -0.6189
 7845SOL     OW26426   6.948   7.113   7.594 -0.0855 -0.0704  0.0561
 7845SOL    HW126427   6.905   7.081   7.673  1.2694  0.7232  1.1756
 7845SOL    HW226428   6.918   7.203   7.585  1.2638  0.4932  0.8546
 7846SOL     OW26429   1.845   6.388   2.681 -0.1076  0.2503  0.0459
 7846SOL    HW126430   1.877   6.438   2.756 -2.0507 -2.7393  3.1235
 7846SOL    HW226431   1.756   6.362   2.705  0.3387 -3.6379 -1.7188
 7847SOL     OW26432   2.344   7.478   2.876 -0.1637  0.5080 -0.0885
 7847SOL    HW126433   2.381   7.407   2.825  0.1320  0.3279  0.3740
 7847SOL    HW226434   2.270   7.438   2.922 -0.5656  0.7215 -0.5348
 7848SOL     OW26435   8.705   3.034   7.768  0.5741 -0.1846 -0.5871
 7848SOL    HW126436   8.764   3.071   7.834  0.7727  0.9953 -1.3943
 7848SOL    HW226437   8.624   3.083   7.779 -0.6335 -2.3894  1.1060
 7849SOL     OW26438   1.653   9.289   2.832  0.0065  0.0383 -0.4952
 7849SOL    HW126439   1.636   9.300   2.739  0.0462  2.3718 -0.2977
 7849SOL    HW226440   1.574   9.322   2.875  0.6931  0.7247  0.2889
 7850SOL     OW26441   1.657   3.912   0.546 -0.5818 -0.0976 -0.2015
 7850SOL    HW126442   1.568   3.914   0.582 -0.2972 -1.4027  0.6283
 7850SOL    HW226443   1.668   3.823   0.514  0.6012 -0.0929  0.1650
 7851SOL     OW26444   4.435   2.681   8.514 -0.0915 -0.0388 -0.0608
 7851SOL    HW126445   4.435   2.727   8.597  1.1300  0.1691 -0.1502
 7851SOL    HW226446   4.425   2.588   8.537 -0.3330  0.0729  0.2778
 7852SOL     OW26447   0.398   9.380   6.648 -0.1664 -0.0520  0.1669
 7852SOL    HW126448   0.473   9.327   6.675 -0.1285  0.4185  1.0237
 7852SOL    HW226449   0.329   9.316   6.632  0.6745 -0.5762 -1.6380
 7853SOL     OW26450   4.469   0.989   3.844  0.4831  0.0667  0.0188
 7853SOL    HW126451   4.497   1.068   3.797  0.4039  2.0208  3.0475
 7853SOL    HW226452   4.548   0.935   3.849  0.2750 -0.7642 -3.0903
 7854SOL     OW26453   1.438   2.570   8.613  0.5830 -0.5285  0.2069
 7854SOL    HW126454   1.384   2.628   8.667 -0.9474 -0.7475 -1.0019
 7854SOL    HW226455   1.386   2.491   8.603  1.3292 -0.9322 -0.6353
 7855SOL     OW26456   5.322   4.187   6.177  0.6693 -0.2991 -0.2283
 7855SOL    HW126457   5.263   4.118   6.148 -1.6328  1.8132 -0.9153
 7855SOL    HW226458   5.403   4.141   6.200 -0.5399 -3.1206 -1.1436
 7856SOL     OW26459   3.135   7.313   5.865  0.1219 -0.1551  0.0479
 7856SOL    HW126460   3.103   7.303   5.954 -1.7272  0.8427 -0.4419
 7856SOL    HW226461   3.185   7.234   5.848 -0.2778 -0.7892  1.6475
 7857SOL     OW26462   1.843   5.688   0.021  0.6269 -0.2172 -0.1641
 7857SOL    HW126463   1.859   5.644  -0.063  1.0581  1.4907 -1.0229
 7857SOL    HW226464   1.889   5.772   0.013 -2.6297  1.7520  0.1820
 7858SOL     OW26465   5.092   5.495   2.050  0.1083  0.4197 -0.1252
 7858SOL    HW126466   5.184   5.498   2.076  0.4568 -1.1053 -1.0347
 7858SOL    HW226467   5.045   5.465   2.128  0.4600  0.6330  0.1710
 7859SOL     OW26468   1.928   1.246   4.283  0.2062 -0.5197 -0.2596
 7859SOL    HW126469   1.925   1.201   4.198 -1.9154  0.0403 -0.5412
 7859SOL    HW226470   2.014   1.225   4.318  0.7050 -1.7036 -2.0492
 7860SOL     OW26471   1.949   7.324   4.204 -0.5115 -0.5902 -0.1269
 7860SOL    HW126472   1.912   7.403   4.244  0.6034 -0.9839  1.7918
 7860SOL    HW226473   1.980   7.352   4.118 -0.0506  1.0966  0.5554
 7861SOL     OW26474   1.860   5.443   1.377  0.1031  0.0455  0.1057
 7861SOL    HW126475   1.940   5.439   1.324  0.8061  0.6520  1.0969
 7861SOL    HW226476   1.801   5.499   1.327  0.9044  0.9465  0.1474
 7862SOL     OW26477   5.565   6.939   9.318  0.1106  0.4589 -0.3295
 7862SOL    HW126478   5.513   6.958   9.396  2.8711  2.2676  1.2467
 7862SOL    HW226479   5.639   7.000   9.323  1.7325 -1.0839 -3.0497
 7863SOL     OW26480   0.367   1.902   5.431  0.1339 -0.6504  0.1186
 7863SOL    HW126481   0.460   1.884   5.441  0.1187 -0.0791  1.5895
 7863SOL    HW226482   0.325   1.855   5.503 -0.6580 -0.4666 -0.2059
 7864SOL     OW26483   3.874   0.509   7.721 -0.4436 -1.0062 -0.0728
 7864SOL    HW126484   3.943   0.575   7.713 -0.5772 -0.7079  1.1038
 7864SOL    HW226485   3.794   0.555   7.697 -0.3395 -1.1810 -0.7996
 7865SOL     OW26486   6.321   2.893   3.094  0.9750 -0.2519 -0.3383
 7865SOL    HW126487   6.393   2.918   3.152  0.5081  1.1708 -0.3257
 7865SOL    HW226488   6.363   2.850   3.020  1.9361  1.3166 -0.7320
 7866SOL     OW26489   2.443   6.846   3.039 -0.2535  0.1979 -0.1882
 7866SOL    HW126490   2.515   6.901   3.007  1.8203 -1.8823  0.6734
 7866SOL    HW226491   2.465   6.758   3.012 -1.8397 -0.7049  1.2188
 7867SOL     OW26492   2.967   2.641   6.158 -0.4295  0.2593 -0.0312
 7867SOL    HW126493   2.921   2.724   6.154  2.1397  1.7990 -0.1600
 7867SOL    HW226494   3.024   2.649   6.235  1.4812 -0.4262 -1.3113
 7868SOL     OW26495   8.352   5.912   5.168 -0.3035  0.0087  0.3262
 7868SOL    HW126496   8.379   5.964   5.092  0.0525 -0.9514 -0.2130
 7868SOL    HW226497   8.284   5.854   5.134 -1.3244  0.7016  1.1219
 7869SOL     OW26498   6.294   3.942   5.521 -0.6912 -0.0767 -0.8355
 7869SOL    HW126499   6.283   4.009   5.454  0.2322 -0.3700 -1.2852
 7869SOL    HW226500   6.374   3.967   5.568 -1.7547  0.5921  0.7159
 7870SOL     OW26501   6.054   4.692   7.956 -0.4902 -0.3899 -0.3841
 7870SOL    HW126502   6.043   4.692   7.861 -1.1382 -0.6842 -0.3171
 7870SOL    HW226503   6.112   4.618   7.974  0.2304  0.1101 -0.6046
 7871SOL     OW26504   4.111   9.419   5.621 -0.2383 -0.2198 -0.2690
 7871SOL    HW126505   4.117   9.435   5.527 -1.0256  1.0748 -0.1236
 7871SOL    HW226506   4.063   9.337   5.628  4.0742 -3.1421 -1.0604
 7872SOL     OW26507   3.961   7.559   8.559 -0.2440 -0.6352  0.4123
 7872SOL    HW126508   3.934   7.484   8.612 -1.7127  0.8254  1.8198
 7872SOL    HW226509   3.881   7.590   8.517  0.6657 -0.9766 -1.7569
 7873SOL     OW26510   0.465   5.173   5.304 -0.1024  0.5167 -0.4713
 7873SOL    HW126511   0.443   5.211   5.219 -0.7536 -2.5921 -1.8624
 7873SOL    HW226512   0.390   5.192   5.360 -0.0028  1.9511 -0.7848
 7874SOL     OW26513   8.710   6.694   4.883  1.0412 -0.3420 -0.4501
 7874SOL    HW126514   8.666   6.624   4.931 -1.0136  0.2565 -1.3474
 7874SOL    HW226515   8.769   6.734   4.946  0.6527 -1.5007  0.6810
 7875SOL     OW26516   7.789   0.386   6.457  0.5599 -0.0469 -0.4562
 7875SOL    HW126517   7.811   0.387   6.550  0.7735  1.3465 -0.5035
 7875SOL    HW226518   7.873   0.390   6.412  0.6342 -2.9700 -0.8063
 7876SOL     OW26519   6.548   8.046   9.587 -0.0655 -0.5896 -0.5707
 7876SOL    HW126520   6.503   8.105   9.647  0.1860 -0.1761 -0.7803
 7876SOL    HW226521   6.615   8.101   9.546  1.2446 -1.3977  0.4024
 7877SOL     OW26522   0.372   7.444   5.362  0.3521 -0.0037 -0.0944
 7877SOL    HW126523   0.357   7.353   5.387  1.3621 -0.3285 -0.6055
 7877SOL    HW226524   0.367   7.493   5.444 -2.9569 -0.0734 -0.1133
 7878SOL     OW26525   5.691   4.618   3.358  0.1366  0.5686 -0.2005
 7878SOL    HW126526   5.673   4.672   3.435 -0.5741 -1.6589  1.2824
 7878SOL    HW226527   5.778   4.582   3.374  0.1410  0.3890 -0.6332
 7879SOL     OW26528   3.689   8.175   0.023 -0.6507 -0.0263  0.1289
 7879SOL    HW126529   3.743   8.098   0.005 -0.1093  0.1578  0.9170
 7879SOL    HW226530   3.750   8.248   0.019 -1.1882  0.3862 -0.7572
 7880SOL     OW26531   4.378   8.022   6.541 -0.2417 -0.3500 -0.4573
 7880SOL    HW126532   4.292   8.058   6.521  0.7308  3.0345  0.9059
 7880SOL    HW226533   4.372   7.992   6.631  0.6748  2.6707  0.7274
 7881SOL     OW26534   1.243   8.466   1.323 -0.0650 -0.1363  0.3703
 7881SOL    HW126535   1.305   8.400   1.290  1.6752  1.8941 -0.6763
 7881SOL    HW226536   1.258   8.469   1.417 -1.4847 -2.4404  0.7496
 7882SOL     OW26537   8.693   3.156   8.945 -0.0485 -0.4008 -0.7859
 7882SOL    HW126538   8.769   3.139   9.001 -0.5655 -1.9846 -0.5021
 7882SOL    HW226539   8.728   3.204   8.870  0.8592  0.7003  0.2954
 7883SOL     OW26540   5.986   0.620   2.945  0.8139 -0.6664  0.0926
 7883SOL    HW126541   5.989   0.646   3.037  0.1063  0.7436 -0.2540
 7883SOL    HW226542   6.074   0.638   2.912  0.6063  0.4865  0.1034
 7884SOL     OW26543   2.857   4.999   1.295  0.0406  0.5304 -0.3547
 7884SOL    HW126544   2.835   4.922   1.243 -0.1929  0.0325  0.4580
 7884SOL    HW226545   2.922   4.967   1.359 -1.9128  0.3564  1.6620
 7885SOL     OW26546   3.349   2.644   3.821 -0.0172  0.2830 -0.2788
 7885SOL    HW126547   3.352   2.549   3.813  0.1784  0.2377  0.3023
 7885SOL    HW226548   3.340   2.660   3.915 -2.3703  0.7736 -0.5174
 7886SOL     OW26549   0.500   2.275   7.326  0.2527 -0.6655 -0.0606
 7886SOL    HW126550   0.452   2.302   7.247  2.6854 -0.8826 -1.7364
 7886SOL    HW226551   0.534   2.356   7.362 -0.8929 -0.5627  0.8505
 7887SOL     OW26552   2.741   5.900   0.243  0.4865  0.2441 -0.1889
 7887SOL    HW126553   2.832   5.887   0.267  0.5487 -0.7396 -0.8793
 7887SOL    HW226554   2.717   5.820   0.197 -0.6478  0.6007 -0.2482
 7888SOL     OW26555   4.714   7.410   6.485 -0.5211 -0.3156 -0.3306
 7888SOL    HW126556   4.796   7.454   6.463 -0.9165  1.2652  1.0989
 7888SOL    HW226557   4.646   7.463   6.442 -0.8725 -0.9699 -0.5981
 7889SOL     OW26558   8.357   0.385   9.252  0.5083 -0.0498  0.5022
 7889SOL    HW126559   8.293   0.423   9.192  1.5974 -1.0367 -1.3878
 7889SOL    HW226560   8.405   0.321   9.199  2.1494 -0.3329  2.2007
 7890SOL     OW26561   4.852   5.285   4.826 -0.2737  0.3195 -0.3331
 7890SOL    HW126562   4.809   5.309   4.744  1.2069 -0.5121 -1.4125
 7890SOL    HW226563   4.866   5.191   4.819  0.4125  0.3334  0.6212
 7891SOL     OW26564   5.156   0.944   7.983 -0.6408  0.4092  0.2497
 7891SOL    HW126565   5.172   0.902   8.068  0.4683 -0.8916 -0.5610
 7891SOL    HW226566   5.062   0.934   7.969 -0.7538  0.1905  1.1027
 7892SOL     OW26567   5.613   4.084   6.069 -0.5507 -0.3921 -0.2164
 7892SOL    HW126568   5.571   4.114   5.988 -0.8140 -0.2064 -0.0114
 7892SOL    HW226569   5.694   4.041   6.039 -0.4122  0.0872 -0.5461
 7893SOL     OW26570   4.397   0.758   0.233 -0.3152 -0.1653 -0.4763
 7893SOL    HW126571   4.402   0.664   0.214  2.5679 -0.1139 -0.3974
 7893SOL    HW226572   4.446   0.768   0.314 -0.5802  1.4310 -0.4914
 7894SOL     OW26573   7.791   5.235   2.754 -0.7701 -0.2680 -0.0812
 7894SOL    HW126574   7.875   5.244   2.799 -0.3891  0.7061 -0.9594
 7894SOL    HW226575   7.810   5.254   2.662 -2.0037  0.3037 -0.2379
 7895SOL     OW26576   6.740   8.765   6.727 -0.2125  0.6145 -0.3743
 7895SOL    HW126577   6.784   8.849   6.736 -0.8608  0.7821  1.7139
 7895SOL    HW226578   6.810   8.703   6.707  0.6108  1.2771  0.3904
 7896SOL     OW26579   8.747   4.795   7.601  0.1101 -1.3725  0.1468
 7896SOL    HW126580   8.655   4.774   7.585 -0.6807  0.8137  1.3903
 7896SOL    HW226581   8.771   4.741   7.676 -1.3716  0.6067  2.2158
 7897SOL     OW26582   2.657   7.804   4.563 -0.1051  0.0543  0.3441
 7897SOL    HW126583   2.709   7.739   4.515  0.5284  0.2136  0.8002
 7897SOL    HW226584   2.604   7.752   4.624 -1.8948 -0.2530 -1.3920
 7898SOL     OW26585   4.514   5.698   1.476 -0.0444  0.0904 -0.5914
 7898SOL    HW126586   4.484   5.691   1.386 -0.8838  1.6285 -0.4668
 7898SOL    HW226587   4.442   5.663   1.528 -0.2121  0.6267 -0.4563
 7899SOL     OW26588   5.117   7.207   8.676  0.0311  0.1140  0.2172
 7899SOL    HW126589   5.129   7.127   8.625  0.8866  0.3672  0.0054
 7899SOL    HW226590   5.023   7.224   8.672 -0.0435 -0.4117 -0.4457
 7900SOL     OW26591   6.752   5.978   0.764  0.3417 -0.5294 -0.3593
 7900SOL    HW126592   6.802   6.030   0.825 -0.7175 -0.8366  0.8171
 7900SOL    HW226593   6.762   6.022   0.680  0.8571  0.5756  0.2722
 7901SOL     OW26594   6.722   3.504   4.826  1.1457  0.1135  0.1710
 7901SOL    HW126595   6.698   3.442   4.757 -0.6628  1.7352 -0.7585
 7901SOL    HW226596   6.674   3.474   4.903  1.5676 -0.5378  0.1920
 7902SOL     OW26597   3.274   3.912   9.212  0.1359 -0.2875  0.4276
 7902SOL    HW126598   3.254   3.823   9.238  0.0851 -0.2639  0.4690
 7902SOL    HW226599   3.217   3.929   9.137  1.8455 -1.1275 -1.1486
 7903SOL     OW26600   3.744   0.098   9.447 -0.5346  0.0024  0.3662
 7903SOL    HW126601   3.704   0.155   9.512 -2.8181 -0.2717 -0.6961
 7903SOL    HW226602   3.672   0.045   9.414  0.2658  0.8238 -3.1145
 7904SOL     OW26603   7.353   8.722   8.860 -0.1230 -0.2523 -0.1971
 7904SOL    HW126604   7.327   8.777   8.934 -1.7153 -0.6302 -0.4460
 7904SOL    HW226605   7.288   8.651   8.859 -0.8323  0.3432 -2.6266
 7905SOL     OW26606   5.964   1.248   7.891  0.0962  0.4577 -0.4874
 7905SOL    HW126607   5.994   1.206   7.811  0.1425  1.1450 -0.8354
 7905SOL    HW226608   6.024   1.321   7.904 -0.1338  0.5720 -0.0237
 7906SOL     OW26609   6.173   2.566   0.940 -0.6188  0.1893 -0.6007
 7906SOL    HW126610   6.164   2.593   0.848  0.9612  2.3459 -0.2067
 7906SOL    HW226611   6.202   2.475   0.935 -1.2097  0.0475 -2.2115
 7907SOL     OW26612   6.758   3.041   1.771 -0.4383  0.3298  0.2744
 7907SOL    HW126613   6.781   2.984   1.697  2.2672  0.1963  1.1487
 7907SOL    HW226614   6.747   2.982   1.845  1.2759  0.7695  0.9342
 7908SOL     OW26615   3.195   6.249   6.029  0.1349  0.4673  0.3411
 7908SOL    HW126616   3.243   6.192   5.969  1.2202  1.6589  0.0159
 7908SOL    HW226617   3.172   6.325   5.976 -0.6931  0.6356  0.9323
 7909SOL     OW26618   7.058   7.027   8.687 -0.2748 -0.0315 -0.2066
 7909SOL    HW126619   6.990   7.014   8.622  0.3430 -1.0730 -0.6686
 7909SOL    HW226620   7.135   7.052   8.636 -0.1316  0.4718  0.2490
 7910SOL     OW26621   1.936   0.353   7.998 -0.1758  0.5960  0.6139
 7910SOL    HW126622   1.968   0.366   7.909 -1.9640  2.6058  0.1758
 7910SOL    HW226623   1.865   0.288   7.989  1.1673 -0.9962  1.0020
 7911SOL     OW26624   6.526   6.474   7.460  0.3065 -0.2398  0.0724
 7911SOL    HW126625   6.621   6.468   7.462  0.4258  0.7716 -1.0987
 7911SOL    HW226626   6.501   6.427   7.380 -0.0310  0.7558 -0.4269
 7912SOL     OW26627   9.294   7.063   5.351 -0.1425  0.5139  0.4556
 7912SOL    HW126628   9.345   7.093   5.276 -0.8523  0.4540 -0.0597
 7912SOL    HW226629   9.345   7.091   5.427  0.4682  0.7818 -0.0438
 7913SOL     OW26630   6.633   3.033   6.840 -0.0002  0.0628  0.3662
 7913SOL    HW126631   6.646   3.119   6.799  1.3683  0.1561  0.9458
 7913SOL    HW226632   6.721   3.004   6.863 -0.5522 -0.9694  1.2620
 7914SOL     OW26633   7.021   1.100   0.232 -0.2037  0.4209 -0.1789
 7914SOL    HW126634   6.941   1.149   0.214  0.7537  2.0673 -0.1467
 7914SOL    HW226635   7.055   1.078   0.145  0.2809  1.3961 -0.2491
 7915SOL     OW26636   9.304   7.104   1.144  0.0190  0.4666 -0.3034
 7915SOL    HW126637   9.368   7.168   1.176  0.0904  0.1916  0.0975
 7915SOL    HW226638   9.294   7.126   1.051 -0.5165  1.5298 -0.0017
 7916SOL     OW26639   3.167   0.267   0.915 -0.3779  0.5780  0.1786
 7916SOL    HW126640   3.245   0.212   0.916 -2.8533 -3.2816  1.8052
 7916SOL    HW226641   3.143   0.273   0.822 -0.1497 -1.3753 -0.0371
 7917SOL     OW26642   4.699   1.465   8.488 -0.1256 -0.3422 -0.3968
 7917SOL    HW126643   4.754   1.542   8.503 -0.4308  0.0352 -1.1499
 7917SOL    HW226644   4.620   1.481   8.539 -0.6099  0.3231 -1.3267
 7918SOL     OW26645   3.300   2.274   5.005 -0.1407  0.1889  0.2116
 7918SOL    HW126646   3.381   2.222   5.011 -0.1876  0.3050  3.0658
 7918SOL    HW226647   3.282   2.278   4.911  3.2590  0.3328 -0.5710
 7919SOL     OW26648   7.285   1.508   5.729  0.1609 -0.2512 -0.1332
 7919SOL    HW126649   7.241   1.592   5.738 -0.2237 -0.4040 -0.5979
 7919SOL    HW226650   7.376   1.531   5.711  0.1515  0.0600  0.1911
 7920SOL     OW26651   6.956   6.021   5.240 -0.4320 -0.1857  0.0942
 7920SOL    HW126652   7.051   6.022   5.247 -0.3960 -1.1664 -0.1083
 7920SOL    HW226653   6.930   6.112   5.257  0.5201  0.0633  0.3064
 7921SOL     OW26654   7.417   6.345   1.749 -0.1573  0.0152  0.2114
 7921SOL    HW126655   7.352   6.356   1.818 -1.9984  0.7438 -1.5544
 7921SOL    HW226656   7.437   6.251   1.751 -0.5471 -0.0703  1.3730
 7922SOL     OW26657   3.682   3.428   6.636 -0.1370 -0.6101 -0.4682
 7922SOL    HW126658   3.717   3.341   6.616 -2.7719 -1.2887 -2.7022
 7922SOL    HW226659   3.594   3.428   6.600 -2.9178  0.7212  5.1259
 7923SOL     OW26660   0.673   6.980   6.233  0.3080  0.0326 -0.9392
 7923SOL    HW126661   0.596   6.933   6.263  0.3206  0.9639  0.6364
 7923SOL    HW226662   0.645   7.071   6.225  1.5654  0.6867  1.1843
 7924SOL     OW26663   0.947   9.427   2.199  0.0353 -0.0290  0.4951
 7924SOL    HW126664   1.036   9.403   2.172  0.3987  1.4152  0.3410
 7924SOL    HW226665   0.892   9.401   2.125  0.5933  0.8210 -0.2370
 7925SOL     OW26666   3.552   5.808   0.961 -0.2467 -0.0756 -0.6618
 7925SOL    HW126667   3.462   5.794   0.991 -0.0368 -0.0547 -0.0285
 7925SOL    HW226668   3.562   5.745   0.889  0.0338 -1.8334  0.8475
 7926SOL     OW26669   9.081   2.829   1.684 -0.6240 -0.2333  0.1797
 7926SOL    HW126670   9.172   2.849   1.660 -1.0052  1.2757 -0.0987
 7926SOL    HW226671   9.079   2.733   1.692  0.5661 -0.4515 -1.5645
 7927SOL     OW26672   2.225   1.471   6.494 -0.6490 -0.2231  0.1910
 7927SOL    HW126673   2.283   1.529   6.545  0.0048 -0.0535 -0.7283
 7927SOL    HW226674   2.138   1.490   6.528 -0.3339  0.5920  0.5887
 7928SOL     OW26675   6.430   8.067   7.246  0.2318 -0.7322 -0.0088
 7928SOL    HW126676   6.486   8.136   7.282  0.9364 -1.1015 -0.3708
 7928SOL    HW226677   6.377   8.112   7.181 -0.9295 -0.0950  1.3341
 7929SOL     OW26678   1.499   8.495   8.351 -0.1326 -0.1718 -0.0734
 7929SOL    HW126679   1.459   8.449   8.277 -0.9303  0.0339  0.2164
 7929SOL    HW226680   1.465   8.584   8.346  0.1753 -0.0325  0.2680
 7930SOL     OW26681   1.579   3.598   7.107 -0.1706  0.2972  0.1848
 7930SOL    HW126682   1.506   3.567   7.161  1.0945 -1.5241  0.9234
 7930SOL    HW226683   1.541   3.608   7.020 -1.3568 -0.3881  0.6012
 7931SOL     OW26684   6.639   1.331   8.223 -0.6385 -0.3539 -0.1695
 7931SOL    HW126685   6.685   1.326   8.139  1.6810 -1.5337  1.0674
 7931SOL    HW226686   6.653   1.422   8.252  0.5199 -0.5413 -0.0729
 7932SOL     OW26687   7.885   7.071   8.338 -0.1151 -0.1423  0.1025
 7932SOL    HW126688   7.906   7.077   8.245  1.0398  0.8312  0.4002
 7932SOL    HW226689   7.908   6.981   8.362  1.9065  0.2878 -0.0447
 7933SOL     OW26690   5.203   4.293   5.826  0.4610 -0.0580  0.4151
 7933SOL    HW126691   5.242   4.358   5.768  0.6538 -0.5505 -0.0198
 7933SOL    HW226692   5.241   4.311   5.912 -1.4706  2.0753  0.9146
 7934SOL     OW26693   3.284   7.906   1.689  0.2484 -0.9123  0.0887
 7934SOL    HW126694   3.262   7.964   1.615 -0.0867 -2.0628 -0.7329
 7934SOL    HW226695   3.201   7.864   1.712  0.8903 -2.8382 -0.8922
 7935SOL     OW26696   8.004   7.564   3.358 -0.3683  0.1504  0.2893
 7935SOL    HW126697   8.013   7.469   3.348 -0.4327  0.2300 -0.5472
 7935SOL    HW226698   7.981   7.575   3.450  0.1023 -0.6124  0.5181
 7936SOL     OW26699   9.384   2.978   9.277 -0.9544  0.5375 -0.4073
 7936SOL    HW126700   9.415   2.942   9.194 -0.1363  0.1387  0.0665
 7936SOL    HW226701   9.314   3.039   9.252  0.8765  2.2573 -1.5807
 7937SOL     OW26702   8.088   3.084   7.754  0.5665  0.2465 -0.2198
 7937SOL    HW126703   8.053   3.141   7.822 -0.3953 -0.2001 -0.3113
 7937SOL    HW226704   8.054   2.997   7.776 -0.1953  0.1799 -1.5341
 7938SOL     OW26705   0.141   0.900   6.237  0.2859  0.4522  0.3148
 7938SOL    HW126706   0.189   0.879   6.317  0.1083  1.4846  0.7036
 7938SOL    HW226707   0.203   0.949   6.184  0.1342  0.4860  0.1671
 7939SOL     OW26708   3.483   0.941   7.538 -0.7675 -0.0274  0.1896
 7939SOL    HW126709   3.479   0.860   7.486  1.3836 -0.9134  1.2593
 7939SOL    HW226710   3.480   0.910   7.629  0.3003  1.0730  0.6151
 7940SOL     OW26711   4.106   1.633   7.407  0.2494 -0.0749  0.7016
 7940SOL    HW126712   4.117   1.612   7.314  0.1681 -0.1533  0.7085
 7940SOL    HW226713   4.028   1.689   7.409  0.6633  0.5039  0.6473
 7941SOL     OW26714   5.242   1.963   2.033  1.1805 -0.1710  0.3041
 7941SOL    HW126715   5.215   1.873   2.049  1.1418 -0.7548 -2.4707
 7941SOL    HW226716   5.304   1.957   1.960  2.3303  1.9340  1.0095
 7942SOL     OW26717   2.176   3.097   2.270  0.0905  0.7352  0.5152
 7942SOL    HW126718   2.118   3.079   2.344  1.4794 -1.8863  1.0724
 7942SOL    HW226719   2.121   3.084   2.192 -0.8597  1.5141  1.0382
 7943SOL     OW26720   6.790   2.743   8.616 -0.0226  0.1840  0.0886
 7943SOL    HW126721   6.862   2.689   8.585  0.0964  0.9441 -0.9834
 7943SOL    HW226722   6.824   2.784   8.695  0.1858 -0.6096  0.4285
 7944SOL     OW26723   1.128   0.134   5.074 -0.0622 -0.0429  0.0280
 7944SOL    HW126724   1.038   0.120   5.103 -0.9141  1.9826 -1.3341
 7944SOL    HW226725   1.132   0.092   4.988  0.1294  0.2402 -0.1046
 7945SOL     OW26726   0.667   3.112   4.438  0.4468  0.4723  0.5516
 7945SOL    HW126727   0.762   3.118   4.448  0.4951  0.5706  0.0583
 7945SOL    HW226728   0.647   3.020   4.459  1.0423 -0.3977 -2.2939
 7946SOL     OW26729   6.577   9.270   5.618  0.1324 -0.1703  0.0919
 7946SOL    HW126730   6.575   9.345   5.677  0.6805 -1.0070  1.2112
 7946SOL    HW226731   6.538   9.302   5.537  0.0730  1.2265  0.6494
 7947SOL     OW26732   0.819   0.988   6.732 -0.0566  0.3320 -0.5322
 7947SOL    HW126733   0.869   1.031   6.663  0.2087  0.7897 -0.0564
 7947SOL    HW226734   0.863   1.013   6.814 -0.3943 -0.1661 -0.1929
 7948SOL     OW26735   1.927   2.750   3.176  0.7073 -0.2476 -0.2300
 7948SOL    HW126736   1.988   2.817   3.207  1.1188 -1.1292  0.8835
 7948SOL    HW226737   1.855   2.752   3.238 -0.3976  0.7036 -1.4693
 7949SOL     OW26738   1.765   6.707   8.604 -0.0914 -0.3205  0.7196
 7949SOL    HW126739   1.764   6.643   8.675 -0.5540 -1.4294 -0.2637
 7949SOL    HW226740   1.697   6.678   8.543 -1.1108  1.7449  0.7825
 7950SOL     OW26741   8.908   7.817   7.362  0.5622  0.2492 -0.4260
 7950SOL    HW126742   8.894   7.874   7.438  0.1986 -1.1374  0.5873
 7950SOL    HW226743   8.992   7.845   7.326  2.0214 -0.6619  2.0099
 7951SOL     OW26744   9.480   7.273   3.391 -0.6087  0.0868 -0.2091
 7951SOL    HW126745   9.502   7.349   3.337  0.0834  1.1915  1.5497
 7951SOL    HW226746   9.392   7.291   3.424 -1.4407 -1.0539 -1.6906
 7952SOL     OW26747   1.859   3.075   7.658  0.4705 -0.3080  0.6524
 7952SOL    HW126748   1.919   3.102   7.589  1.4306  0.4403  1.7291
 7952SOL    HW226749   1.843   3.154   7.709  1.4353 -1.1893  2.4617
 7953SOL     OW26750   3.060   7.047   3.235 -0.3193 -0.3344  0.2252
 7953SOL    HW126751   3.115   7.020   3.309 -0.0807  0.5157  0.3659
 7953SOL    HW226752   3.100   7.005   3.159  0.7846  0.6025  0.2629
 7954SOL     OW26753   5.837   0.766   7.621 -0.0413 -0.5805  0.3516
 7954SOL    HW126754   5.851   0.690   7.678  0.9293 -0.4906  0.2512
 7954SOL    HW226755   5.815   0.837   7.681  0.1607 -0.6802  0.5461
 7955SOL     OW26756   0.667   0.958   9.118 -0.1549 -0.0482  0.3442
 7955SOL    HW126757   0.663   0.901   9.195  1.3071  0.7899  1.0880
 7955SOL    HW226758   0.759   0.962   9.095 -0.3561  1.1184 -0.3704
 7956SOL     OW26759   1.031   9.097   6.053  0.3833  0.4964  0.0433
 7956SOL    HW126760   1.036   9.046   5.972 -0.4041  1.0586 -0.3713
 7956SOL    HW226761   0.996   9.182   6.026 -0.1049  0.6171  1.0148
 7957SOL     OW26762   1.263   0.567   3.580 -0.1429 -0.1791  0.5664
 7957SOL    HW126763   1.342   0.517   3.558 -1.2158 -2.3900  1.4139
 7957SOL    HW226764   1.252   0.554   3.674 -1.1811  0.6114  0.5699
 7958SOL     OW26765   5.749   1.359   2.367  0.5620 -0.4111 -0.1317
 7958SOL    HW126766   5.685   1.314   2.422  0.8604 -0.3582  0.2601
 7958SOL    HW226767   5.791   1.422   2.425 -2.4797  3.2493 -1.4252
 7959SOL     OW26768   8.751   3.095   2.347  0.3674 -0.9131  0.1538
 7959SOL    HW126769   8.735   3.111   2.440 -0.6696 -0.9437 -0.0085
 7959SOL    HW226770   8.673   3.049   2.316  0.2793 -0.0917 -0.9402
 7960SOL     OW26771   5.077   3.942   7.998  0.4609  0.5303 -0.0099
 7960SOL    HW126772   5.018   4.017   8.004  0.5629  0.6721 -0.7393
 7960SOL    HW226773   5.023   3.867   8.026 -0.1234  0.6250 -0.8555
 7961SOL     OW26774   4.651   0.196   1.002  0.3947 -0.1553  0.0306
 7961SOL    HW126775   4.594   0.191   1.079 -0.5549  0.4697 -0.6072
 7961SOL    HW226776   4.738   0.175   1.035  0.0480  0.3485  1.3274
 7962SOL     OW26777   9.330   8.149   9.215  0.8145  0.3437  0.1363
 7962SOL    HW126778   9.383   8.143   9.135  0.2445 -0.6158 -0.1933
 7962SOL    HW226779   9.242   8.123   9.187 -0.0380  2.6591  0.5037
 7963SOL     OW26780   4.485   2.476   9.238  0.4846 -0.2128  0.4816
 7963SOL    HW126781   4.392   2.477   9.260  0.6783 -2.0270  1.5956
 7963SOL    HW226782   4.496   2.398   9.183  1.3545 -0.0390  0.3941
 7964SOL     OW26783   7.941   0.869   2.494  0.0553  0.1075  0.1586
 7964SOL    HW126784   8.010   0.923   2.534  0.3177  1.2039 -1.6815
 7964SOL    HW226785   7.863   0.924   2.499 -0.0782 -0.0546 -0.1781
 7965SOL     OW26786   2.092   8.055   8.573  0.3510  0.3338 -0.3744
 7965SOL    HW126787   2.033   8.115   8.528  0.6401  0.5503 -0.4697
 7965SOL    HW226788   2.071   7.969   8.538 -1.1591  0.1431  0.8990
 7966SOL     OW26789   3.693   1.922   0.899 -0.3146  0.0905 -0.2508
 7966SOL    HW126790   3.683   1.992   0.964  3.1626 -0.2935  0.9190
 7966SOL    HW226791   3.630   1.855   0.927 -1.8171  1.6064  0.1856
 7967SOL     OW26792   8.518   6.481   4.653  0.2221  0.7348 -0.6207
 7967SOL    HW126793   8.520   6.575   4.634 -2.1309  0.7879 -0.9057
 7967SOL    HW226794   8.494   6.477   4.746  0.9070  0.4059 -0.4552
 7968SOL     OW26795   4.960   7.510   6.463 -0.0850  0.0727 -0.0691
 7968SOL    HW126796   4.994   7.548   6.382 -0.7185  1.5043  0.3112
 7968SOL    HW226797   4.960   7.582   6.526 -1.4433 -0.5209  0.6600
 7969SOL     OW26798   9.027   1.859   5.746 -0.1569  0.9092  0.0244
 7969SOL    HW126799   8.963   1.791   5.723 -1.0945  1.3745  1.1687
 7969SOL    HW226800   8.985   1.908   5.816  2.0274  0.3850  1.7934
 7970SOL     OW26801   9.035   1.455   7.544 -0.2117  0.1864  0.3869
 7970SOL    HW126802   9.098   1.417   7.482  0.5028 -0.7935  1.6673
 7970SOL    HW226803   9.075   1.539   7.568  0.5232 -0.3352  1.0326
 7971SOL     OW26804   2.222   8.756   4.384  0.5906 -0.1733  0.3456
 7971SOL    HW126805   2.285   8.813   4.341 -0.3274 -0.2931 -1.2650
 7971SOL    HW226806   2.216   8.789   4.473  1.1507  1.3409 -0.1500
 7972SOL     OW26807   2.822   4.926   0.039  0.2067  0.4855  0.0806
 7972SOL    HW126808   2.777   4.842   0.033  0.5527  0.2465  0.7513
 7972SOL    HW226809   2.844   4.948  -0.052  0.9814 -0.6312 -0.0124
 7973SOL     OW26810   9.590   7.414   3.824  0.0912  0.6089  0.0551
 7973SOL    HW126811   9.515   7.451   3.777 -0.0739  0.6054  0.3137
 7973SOL    HW226812   9.572   7.320   3.826 -0.3501  0.7005  0.9018
 7974SOL     OW26813   6.868   0.396   7.003 -0.3363  0.5549  0.0792
 7974SOL    HW126814   6.923   0.371   6.930 -1.0403 -0.3337 -0.1690
 7974SOL    HW226815   6.779   0.400   6.966 -0.6576  0.3759  0.8049
 7975SOL     OW26816   5.531   8.570   3.905 -0.1086 -0.1959 -0.3911
 7975SOL    HW126817   5.622   8.553   3.930  0.1995  1.5477 -0.1542
 7975SOL    HW226818   5.480   8.527   3.973  0.5985  0.1706  0.3949
 7976SOL     OW26819   3.922   6.707   4.752 -0.0378 -0.4696  0.2543
 7976SOL    HW126820   3.831   6.726   4.731  0.0886 -0.1658 -0.0229
 7976SOL    HW226821   3.940   6.756   4.832  0.6414  1.6220 -1.1002
 7977SOL     OW26822   3.815   3.928   1.758  0.1134 -0.2644  0.0012
 7977SOL    HW126823   3.737   3.961   1.802  1.3227 -1.9459  3.8548
 7977SOL    HW226824   3.885   3.989   1.782  0.8549 -1.3492  0.7076
 7978SOL     OW26825   3.984   3.213   1.694 -0.1646  0.3801  0.2156
 7978SOL    HW126826   3.911   3.176   1.744  1.2299  0.3282  2.3340
 7978SOL    HW226827   3.968   3.307   1.696 -0.0109  0.4018  1.0133
 7979SOL     OW26828   7.322   7.742   0.657  0.5050 -0.6281 -0.0613
 7979SOL    HW126829   7.341   7.717   0.747  2.6848  2.1365  0.3719
 7979SOL    HW226830   7.398   7.712   0.607  1.6003  1.8945 -0.0656
 7980SOL     OW26831   7.112   0.338   6.807  0.0853 -0.2647  0.0132
 7980SOL    HW126832   7.171   0.270   6.774  0.8481  0.9760 -1.2793
 7980SOL    HW226833   7.169   0.413   6.824 -0.4714 -0.4255  3.0736
 7981SOL     OW26834   8.619   7.474   2.829  0.1483 -0.8838 -0.2989
 7981SOL    HW126835   8.544   7.421   2.855 -0.6291 -0.1642 -1.0455
 7981SOL    HW226836   8.664   7.421   2.763 -1.3100 -0.1375 -1.9477
 7982SOL     OW26837   3.394   1.788   7.212 -0.5299 -0.2146 -0.4289
 7982SOL    HW126838   3.367   1.736   7.287  0.6806 -0.2888 -0.0248
 7982SOL    HW226839   3.445   1.728   7.157 -0.0053  0.2552 -0.4735
 7983SOL     OW26840   8.636   6.335   7.971 -0.1485 -0.6686 -1.3814
 7983SOL    HW126841   8.632   6.267   8.039  0.7562 -1.3221 -1.9553
 7983SOL    HW226842   8.730   6.351   7.959 -0.3399  0.2925 -1.6493
 7984SOL     OW26843   0.332   0.503   7.975  0.1746  0.1064  0.0026
 7984SOL    HW126844   0.263   0.569   7.983  0.7899  0.7265  0.3043
 7984SOL    HW226845   0.372   0.520   7.890  1.0875  0.8779  0.5734
 7985SOL     OW26846   5.881   8.051   0.106 -0.1094 -0.2880 -0.7381
 7985SOL    HW126847   5.944   8.097   0.052 -1.4788  1.6293 -0.7886
 7985SOL    HW226848   5.823   8.008   0.044  1.6143 -2.9313 -0.7032
 7986SOL     OW26849   7.474   7.162   3.362  0.4515 -0.4365 -0.5033
 7986SOL    HW126850   7.421   7.239   3.383  0.0837 -0.4668 -1.2937
 7986SOL    HW226851   7.559   7.179   3.402  0.3866  0.4000 -0.7219
 7987SOL     OW26852   5.376   1.501   1.136 -0.0142 -0.0584  0.9916
 7987SOL    HW126853   5.425   1.419   1.141  1.0454  0.2401 -2.2227
 7987SOL    HW226854   5.303   1.482   1.078  0.4633  1.3035 -0.1218
 7988SOL     OW26855   4.523   1.329   0.377 -0.5159  0.2083  0.2255
 7988SOL    HW126856   4.461   1.348   0.447  0.1977  0.5678  0.7659
 7988SOL    HW226857   4.491   1.247   0.339 -1.3000  0.3714  0.5089
 7989SOL     OW26858   2.436   7.144   0.495  0.1773  0.1760  0.4223
 7989SOL    HW126859   2.530   7.164   0.500  0.0932  0.2847  2.0237
 7989SOL    HW226860   2.393   7.223   0.528 -0.3893 -0.4862  1.3149
 7990SOL     OW26861   4.981   4.105   4.524 -0.2308 -0.2783 -0.6083
 7990SOL    HW126862   4.913   4.169   4.546 -0.3303 -0.9491  1.2229
 7990SOL    HW226863   4.994   4.115   4.429 -0.3221  2.3459 -0.4164
 7991SOL     OW26864   7.401   5.540   5.972  0.5241 -0.1683 -0.1899
 7991SOL    HW126865   7.320   5.491   5.960  0.0413 -0.5522  3.4848
 7991SOL    HW226866   7.463   5.476   6.008  0.9369  1.0697  1.4402
 7992SOL     OW26867   1.689   7.750   6.745  0.9683  0.4299  0.1697
 7992SOL    HW126868   1.680   7.763   6.651  0.3074 -0.4765  0.0888
 7992SOL    HW226869   1.613   7.794   6.782  0.1452 -0.8633  0.0987
 7993SOL     OW26870   2.364   7.436   6.180 -0.1026 -0.0990 -0.0469
 7993SOL    HW126871   2.338   7.376   6.111 -0.4974 -0.6372  0.5546
 7993SOL    HW226872   2.281   7.463   6.220  0.1442 -0.0975  0.4683
 7994SOL     OW26873   2.721   1.198   0.063  0.2832 -0.1071 -0.1417
 7994SOL    HW126874   2.689   1.154   0.142 -0.0303 -1.7369 -1.1357
 7994SOL    HW226875   2.704   1.136  -0.008 -0.0577  1.5923 -1.6132
 7995SOL     OW26876   6.791   5.912   7.170 -0.0274 -0.0596 -0.0829
 7995SOL    HW126877   6.823   5.984   7.224  0.3898 -1.6965  2.0037
 7995SOL    HW226878   6.843   5.836   7.199 -1.3770 -1.4696 -1.2125
 7996SOL     OW26879   4.253   2.469   0.734  0.0583  0.1377  0.2988
 7996SOL    HW126880   4.300   2.389   0.712  2.7350  1.4863  0.6351
 7996SOL    HW226881   4.179   2.440   0.787  1.9132 -2.0357  1.9070
 7997SOL     OW26882   8.289   3.737   5.099 -0.8767  0.4652  0.2606
 7997SOL    HW126883   8.310   3.651   5.062 -1.7769  0.4893 -0.3267
 7997SOL    HW226884   8.209   3.724   5.149  0.8530  0.2146  3.1569
 7998SOL     OW26885   4.391   5.254   4.202  0.5189 -0.2282  0.8484
 7998SOL    HW126886   4.356   5.169   4.227  0.3617 -0.4536 -0.0828
 7998SOL    HW226887   4.315   5.312   4.201  0.7517  0.1349  2.2812
 7999SOL     OW26888   7.018   6.480   1.893 -0.5459  0.2908 -0.1163
 7999SOL    HW126889   7.020   6.421   1.818 -0.4813 -1.2180  1.0380
 7999SOL    HW226890   6.953   6.546   1.869  0.3449  0.5690 -1.9965
 8000SOL     OW26891   6.520   0.856   9.585 -0.0555 -0.0713  0.6585
 8000SOL    HW126892   6.472   0.846   9.667  0.3854  1.4693  1.1488
 8000SOL    HW226893   6.505   0.775   9.538 -2.5645  0.0972  1.0686
 8001SOL     OW26894   5.539   5.362   5.382 -0.2245  0.6331 -0.1764
 8001SOL    HW126895   5.591   5.304   5.326 -0.6648  1.2235 -1.2258
 8001SOL    HW226896   5.599   5.433   5.405 -0.2185  0.7143 -0.4332
 8002SOL     OW26897   3.882   0.972   1.901  0.2029  0.5273  0.4985
 8002SOL    HW126898   3.800   0.930   1.872 -0.2776  1.4561  0.4606
 8002SOL    HW226899   3.868   1.065   1.883  1.1976  0.7212  0.6900
 8003SOL     OW26900   7.804   5.781   4.172 -0.7650 -0.5635  0.3179
 8003SOL    HW126901   7.879   5.840   4.179 -1.1843  0.0927 -0.4420
 8003SOL    HW226902   7.763   5.783   4.258  0.9741 -2.2070  1.2684
 8004SOL     OW26903   4.759   6.786   2.283  0.3057  0.7621 -0.0823
 8004SOL    HW126904   4.755   6.706   2.336  3.1813  0.9223  0.5774
 8004SOL    HW226905   4.728   6.760   2.197  0.4186 -0.8696  0.3404
 8005SOL     OW26906   7.831   0.727   7.099  0.6627 -0.0665  0.5049
 8005SOL    HW126907   7.860   0.702   7.187 -1.0479  0.4085  1.2504
 8005SOL    HW226908   7.874   0.811   7.083  0.5873  0.0954  1.1142
 8006SOL     OW26909   8.593   6.008   2.194  0.1097 -0.2256 -0.1905
 8006SOL    HW126910   8.581   6.026   2.287  3.7080  1.6983  0.1054
 8006SOL    HW226911   8.621   5.917   2.190 -1.8076 -0.8802  0.3298
 8007SOL     OW26912   8.714   3.207   4.729 -0.1575  0.0229 -0.2848
 8007SOL    HW126913   8.738   3.233   4.640 -0.4387  1.5659  0.0566
 8007SOL    HW226914   8.711   3.289   4.778 -1.9568 -0.5671  0.6837
 8008SOL     OW26915   0.144   4.644   3.951  0.2539 -0.7587 -0.3763
 8008SOL    HW126916   0.218   4.703   3.933 -0.0674 -0.4268 -0.6185
 8008SOL    HW226917   0.112   4.669   4.037  0.7381 -1.2408 -0.0454
 8009SOL     OW26918   5.390   6.634   0.433  0.5512  0.1316  0.4212
 8009SOL    HW126919   5.404   6.729   0.439  1.0312 -0.0207  2.8665
 8009SOL    HW226920   5.299   6.625   0.407  1.2563  1.1895 -2.8832
 8010SOL     OW26921   2.153   8.093   2.708 -0.1934  0.4335 -0.4688
 8010SOL    HW126922   2.058   8.084   2.717 -0.1003  0.3801  0.6090
 8010SOL    HW226923   2.187   8.007   2.734  0.0798 -0.0757 -2.4177
 8011SOL     OW26924   3.382   8.454   1.876 -0.1020 -0.0708 -0.5983
 8011SOL    HW126925   3.328   8.445   1.954  1.7364  0.3809  0.8029
 8011SOL    HW226926   3.349   8.533   1.833 -0.5303  0.2220  0.2392
 8012SOL     OW26927   4.480   5.600   7.330 -0.0491  0.3977  0.2750
 8012SOL    HW126928   4.385   5.611   7.328 -0.0547  1.7423  3.0757
 8012SOL    HW226929   4.497   5.547   7.408  1.3618 -3.8445 -2.5517
 8013SOL     OW26930   1.923   7.599   4.277  0.5116  0.4093 -0.3641
 8013SOL    HW126931   1.923   7.653   4.356 -2.5611  1.0327 -0.6575
 8013SOL    HW226932   1.852   7.636   4.224  0.6354 -1.7536 -2.1584
 8014SOL     OW26933   6.668   7.498   4.998 -0.1147 -0.4242  0.4304
 8014SOL    HW126934   6.702   7.408   5.000 -1.9543 -1.2044 -0.6990
 8014SOL    HW226935   6.634   7.512   5.087  0.1068 -0.8771  0.5933
 8015SOL     OW26936   7.495   1.555   7.130  0.3904  0.3501 -0.2181
 8015SOL    HW126937   7.578   1.545   7.083 -1.1204 -0.1418 -2.9869
 8015SOL    HW226938   7.450   1.472   7.117 -0.9204  0.9317  0.4145
 8016SOL     OW26939   8.126   9.100   7.612 -0.6845  0.1024  0.4097
 8016SOL    HW126940   8.073   9.167   7.655 -1.5868 -1.0082  1.0686
 8016SOL    HW226941   8.143   9.136   7.525  0.8837  2.2315  1.5201
 8017SOL     OW26942   5.088   4.821   6.151 -0.5477 -0.5444  0.0076
 8017SOL    HW126943   5.182   4.809   6.165 -0.7155 -1.4189  0.4743
 8017SOL    HW226944   5.074   4.914   6.163  0.5029 -0.1241 -1.6034
 8018SOL     OW26945   6.418   7.260   4.975 -0.0472 -0.6884 -0.9370
 8018SOL    HW126946   6.385   7.172   4.957 -0.5240 -0.3729 -1.6419
 8018SOL    HW226947   6.512   7.248   4.988 -0.1637 -1.3542 -0.6466
 8019SOL     OW26948   4.025   4.439   5.626 -0.2998  1.1713 -0.1202
 8019SOL    HW126949   4.090   4.464   5.560 -0.1632  0.1242 -0.3956
 8019SOL    HW226950   3.945   4.422   5.576 -0.8374  2.5458  0.2269
 8020SOL     OW26951   8.962   9.574   2.692  0.3174 -0.0731 -0.1694
 8020SOL    HW126952   8.994   9.591   2.603 -0.6691  0.8214 -0.3828
 8020SOL    HW226953   9.041   9.571   2.746  0.8216  2.7785 -0.5540
 8021SOL     OW26954   2.197   5.984   2.569 -0.3202  0.0060  0.3862
 8021SOL    HW126955   2.121   5.939   2.532 -0.7594 -0.2728  1.5929
 8021SOL    HW226956   2.179   5.989   2.663 -0.1382  2.4673  0.3406
 8022SOL     OW26957   2.200   8.766   5.724  0.0141 -0.0003  0.3292
 8022SOL    HW126958   2.179   8.783   5.815 -0.0795  0.9323  0.1365
 8022SOL    HW226959   2.228   8.850   5.689 -2.5990  0.3354 -1.2251
 8023SOL     OW26960   1.597   7.238   9.276  0.6005 -0.1526  0.5330
 8023SOL    HW126961   1.545   7.212   9.200  1.6730 -1.6616  0.2713
 8023SOL    HW226962   1.656   7.306   9.241  0.6509 -0.3798  0.1634
 8024SOL     OW26963   6.863   9.244   6.869 -0.1171 -0.2003  0.5752
 8024SOL    HW126964   6.900   9.312   6.812  0.5729 -1.8318 -1.0318
 8024SOL    HW226965   6.930   9.228   6.935  0.2590 -0.1975  0.2005
 8025SOL     OW26966   0.323   5.884   8.601 -0.2342 -0.3705  0.1177
 8025SOL    HW126967   0.390   5.815   8.599 -0.3363 -0.4672  0.0357
 8025SOL    HW226968   0.242   5.839   8.579 -0.5193 -0.4844  1.3429
 8026SOL     OW26969   6.121   4.665   6.347 -0.5353  0.1857  0.4596
 8026SOL    HW126970   6.032   4.645   6.319 -0.7432 -1.5903  2.1570
 8026SOL    HW226971   6.112   4.737   6.408 -0.6609  0.6752 -0.1217
 8027SOL     OW26972   7.658   4.228   6.796 -0.5690 -0.2399  0.0309
 8027SOL    HW126973   7.603   4.305   6.778  1.0188  1.0661  0.5785
 8027SOL    HW226974   7.695   4.205   6.711  1.0785  1.3276  0.2663
 8028SOL     OW26975   8.868   3.546   6.852  0.0280 -0.0844 -0.5744
 8028SOL    HW126976   8.897   3.635   6.874 -1.6304  0.3573 -0.0044
 8028SOL    HW226977   8.911   3.490   6.915 -2.4813  0.8677  2.2215
 8029SOL     OW26978   9.129   5.750   9.470 -0.5413  0.0504 -0.1389
 8029SOL    HW126979   9.108   5.679   9.410  0.4323 -1.7314  1.5308
 8029SOL    HW226980   9.054   5.810   9.463 -0.7606 -0.4133 -2.5783
 8030SOL     OW26981   6.280   4.400   6.819  0.1823  0.0745  0.3163
 8030SOL    HW126982   6.269   4.312   6.853 -2.2322  0.3324  0.4112
 8030SOL    HW226983   6.243   4.397   6.731 -2.1914  1.4485  1.1715
 8031SOL     OW26984   7.815   4.644   8.802 -0.2643 -0.0823  0.5524
 8031SOL    HW126985   7.827   4.679   8.714 -0.2368 -0.0808  0.5564
 8031SOL    HW226986   7.818   4.721   8.860 -0.5795 -0.0523  0.5269
 8032SOL     OW26987   4.609   4.258   2.307 -0.1644  0.2099 -0.0053
 8032SOL    HW126988   4.684   4.213   2.344 -0.2338 -0.2935 -0.4713
 8032SOL    HW226989   4.614   4.347   2.343  1.7528  0.7792 -1.5350
 8033SOL     OW26990   0.559   6.519   5.636  0.0057  0.3021  0.3668
 8033SOL    HW126991   0.603   6.505   5.552  0.6946 -2.0405  1.0499
 8033SOL    HW226992   0.467   6.530   5.612  0.1938 -0.2778 -0.7073
 8034SOL     OW26993   1.777   4.775   2.544 -0.2613  0.2215 -0.1831
 8034SOL    HW126994   1.703   4.729   2.506 -0.8058 -0.0179  1.1114
 8034SOL    HW226995   1.802   4.839   2.478 -1.8192  0.5088 -0.5382
 8035SOL     OW26996   1.460   6.164   1.607 -0.2181 -0.3797  0.4036
 8035SOL    HW126997   1.481   6.160   1.514  1.5838  2.2411  0.5919
 8035SOL    HW226998   1.498   6.085   1.644 -0.8173 -1.3765 -1.0136
 8036SOL     OW26999   5.212   1.710   7.214  0.1101 -0.1776  0.5425
 8036SOL    HW127000   5.189   1.625   7.177 -2.6582  0.5342  0.3889
 8036SOL    HW227001   5.239   1.763   7.139  1.4001 -0.7493  0.5794
 8037SOL     OW27002   6.009   0.679   3.214 -0.3721  0.2117 -0.1013
 8037SOL    HW127003   5.960   0.716   3.286 -0.9576  0.3136 -0.5412
 8037SOL    HW227004   6.083   0.737   3.202 -1.5415  1.5600 -1.1091
 8038SOL     OW27005   1.767   0.860   0.743 -0.2986  0.4336  0.7154
 8038SOL    HW127006   1.743   0.834   0.832 -1.0848 -0.7181  0.1895
 8038SOL    HW227007   1.755   0.781   0.691  3.2598  0.1293  0.1117
 8039SOL     OW27008   1.041   3.355   7.681  0.6859 -0.1532 -0.6347
 8039SOL    HW127009   0.984   3.319   7.613 -0.2639  1.0890 -0.5311
 8039SOL    HW227010   0.996   3.434   7.711 -0.0293 -1.7075  2.9223
 8040SOL     OW27011   2.428   3.449   2.071  0.1771  0.1664 -0.9561
 8040SOL    HW127012   2.433   3.353   2.066  1.6944 -0.1148  2.5448
 8040SOL    HW227013   2.335   3.467   2.085 -0.0499 -0.8644 -1.0382
 8041SOL     OW27014   3.900   2.454   4.603  0.1366  0.0481  0.4289
 8041SOL    HW127015   3.817   2.500   4.589  0.7687  1.7020  1.8490
 8041SOL    HW227016   3.927   2.478   4.691  2.4595  0.0916 -0.2317
 8042SOL     OW27017   6.364   0.099   5.617 -0.1508 -0.7155 -0.0500
 8042SOL    HW127018   6.371   0.184   5.661  0.7486 -0.3852 -0.7945
 8042SOL    HW227019   6.342   0.038   5.688 -0.3069  0.0485  0.5834
 8043SOL     OW27020   5.734   2.556   1.334  0.1952  0.9520 -0.3577
 8043SOL    HW127021   5.752   2.603   1.253 -0.8790  1.8528 -0.1007
 8043SOL    HW227022   5.680   2.482   1.307  0.0149  1.1338 -0.4976
 8044SOL     OW27023   1.045   1.564   3.983  0.2406  0.1760  0.9252
 8044SOL    HW127024   1.087   1.535   4.064 -1.4091  0.4553  1.9345
 8044SOL    HW227025   1.056   1.659   3.983  0.6457  0.1294  0.5810
 8045SOL     OW27026   4.140   1.221   0.178  0.1216  1.3619  0.3994
 8045SOL    HW127027   4.115   1.143   0.227  1.9047  2.5711  3.5383
 8045SOL    HW227028   4.206   1.191   0.116  0.6753  0.3517  1.4463
 8046SOL     OW27029   1.195   7.369   0.934  0.1286 -0.1355  0.5762
 8046SOL    HW127030   1.220   7.342   0.845 -1.9049  0.5215 -0.2662
 8046SOL    HW227031   1.268   7.422   0.965  0.9429 -0.4909 -0.6543
 8047SOL     OW27032   0.155   5.522   2.651 -0.0953 -0.1259  0.5071
 8047SOL    HW127033   0.067   5.533   2.687 -0.0665  0.7527  0.3295
 8047SOL    HW227034   0.145   5.455   2.584 -0.5207 -0.4202  0.8592
 8048SOL     OW27035   3.675   8.166   2.219 -0.4346 -0.1062 -0.4964
 8048SOL    HW127036   3.654   8.232   2.284 -0.0385  0.2967 -0.7732
 8048SOL    HW227037   3.591   8.126   2.197 -1.0940  2.0150 -2.1599
 8049SOL     OW27038   7.017   8.526   0.781 -0.0312  0.2383 -0.1251
 8049SOL    HW127039   7.044   8.453   0.726  1.7183  2.7038 -2.8984
 8049SOL    HW227040   6.933   8.500   0.817  0.8629 -3.3943 -0.2768
 8050SOL     OW27041   2.477   1.181   7.373  0.5407 -0.6684  0.3093
 8050SOL    HW127042   2.393   1.217   7.343  1.0021  0.6159  0.4829
 8050SOL    HW227043   2.516   1.252   7.426  1.8662 -1.1194 -0.0223
 8051SOL     OW27044   3.336   9.604   5.609  0.0380 -0.5924 -0.4585
 8051SOL    HW127045   3.412   9.661   5.612 -0.8699  0.6661 -0.4027
 8051SOL    HW227046   3.261   9.663   5.622 -1.0034 -1.6472 -1.4089
 8052SOL     OW27047   7.316   8.749   2.618 -0.3156  0.2542  0.7006
 8052SOL    HW127048   7.345   8.659   2.632  3.1292  1.1662  0.4256
 8052SOL    HW227049   7.312   8.759   2.523 -2.0618  0.0939  0.7145
 8053SOL     OW27050   3.605   3.265   1.025 -0.0251 -0.2762 -0.1924
 8053SOL    HW127051   3.539   3.243   1.091 -0.5466  2.6667  0.4128
 8053SOL    HW227052   3.678   3.302   1.075  0.1311  0.7652 -1.1328
 8054SOL     OW27053   3.706   3.955   0.831 -0.4884  0.0016  0.0939
 8054SOL    HW127054   3.718   4.049   0.820 -1.4610  0.0437 -0.7940
 8054SOL    HW227055   3.794   3.918   0.823 -0.1137  0.8221  0.3865
 8055SOL     OW27056   5.053   4.063   6.071  0.1958 -0.0457  0.4401
 8055SOL    HW127057   4.985   4.110   6.021  0.5382 -0.2055 -0.1828
 8055SOL    HW227058   5.122   4.045   6.007  1.1257  0.6848  1.2087
 8056SOL     OW27059   6.075   5.111   5.063 -0.1578  0.1754 -0.4032
 8056SOL    HW127060   6.094   5.018   5.056 -0.6241  0.1605 -1.6546
 8056SOL    HW227061   6.119   5.138   5.144 -0.8135 -1.3094  0.4931
 8057SOL     OW27062   5.469   6.266   1.472  0.0307 -0.0171 -0.3581
 8057SOL    HW127063   5.487   6.283   1.379  0.9633  3.5434  0.3064
 8057SOL    HW227064   5.382   6.303   1.486 -0.7852 -1.9668 -0.0829
 8058SOL     OW27065   3.201   3.909   0.402 -0.1484  0.0451  0.3955
 8058SOL    HW127066   3.249   3.973   0.456  1.7375  0.2308 -1.3514
 8058SOL    HW227067   3.172   3.959   0.326  0.3082 -0.9096 -0.4298
 8059SOL     OW27068   6.012   9.346   5.298  0.8514  0.8565  0.3202
 8059SOL    HW127069   6.066   9.421   5.319  3.0154 -0.6486  0.4374
 8059SOL    HW227070   6.072   9.284   5.256 -0.5955 -1.2056  1.1173
 8060SOL     OW27071   0.791   1.283   8.462  0.1886 -0.5019 -0.6978
 8060SOL    HW127072   0.757   1.352   8.519  0.4600 -1.0313  0.1284
 8060SOL    HW227073   0.883   1.274   8.488  0.0663 -1.4143 -0.5296
 8061SOL     OW27074   9.219   2.726   0.946 -0.1696  0.0562 -0.0132
 8061SOL    HW127075   9.187   2.797   1.000 -0.7050  1.0785 -1.6065
 8061SOL    HW227076   9.166   2.650   0.971 -0.9555  0.7075  0.3126
 8062SOL     OW27077   8.023   8.269   6.802 -0.0415  0.4687 -0.2172
 8062SOL    HW127078   8.062   8.192   6.843 -0.6485  1.4782  2.4304
 8062SOL    HW227079   8.074   8.282   6.722  0.3432 -2.3857 -0.5377
 8063SOL     OW27080   6.610   5.909   9.077 -0.1843 -0.1461  0.0426
 8063SOL    HW127081   6.527   5.946   9.109 -0.9722 -1.4808 -0.3762
 8063SOL    HW227082   6.584   5.842   9.015  1.2401 -0.3636 -0.3508
 8064SOL     OW27083   6.326   0.501   2.658 -0.0227 -0.4669 -0.2928
 8064SOL    HW127084   6.245   0.453   2.677  0.3475 -0.8320  0.4270
 8064SOL    HW227085   6.394   0.434   2.664  0.3973 -0.0393 -0.2675
 8065SOL     OW27086   7.427   6.934   7.764 -0.0679  0.0358  0.0009
 8065SOL    HW127087   7.335   6.933   7.735 -0.2035  3.5887 -0.1240
 8065SOL    HW227088   7.421   6.937   7.859 -0.1870  1.8810 -0.0453
 8066SOL     OW27089   0.922   0.054   0.172  0.3531 -0.1712 -0.3525
 8066SOL    HW127090   0.862  -0.021   0.166 -0.4388  0.5483 -1.9602
 8066SOL    HW227091   0.872   0.121   0.217  0.5568 -0.1107 -0.2123
 8067SOL     OW27092   4.962   4.098   2.890 -0.1783  0.2573  0.2118
 8067SOL    HW127093   4.879   4.056   2.911  0.3628 -0.7937  0.3298
 8067SOL    HW227094   4.970   4.091   2.795  0.4070 -0.9054  0.3311
 8068SOL     OW27095   4.815   1.045   2.171 -0.2235 -0.0357 -0.1947
 8068SOL    HW127096   4.828   1.034   2.077  2.4369 -0.2859  0.1370
 8068SOL    HW227097   4.741   1.106   2.178 -0.0907  0.4489 -2.4382
 8069SOL     OW27098   3.720   3.462   0.142 -0.1489  0.0937 -0.5941
 8069SOL    HW127099   3.728   3.389   0.080 -0.8524  0.9062 -1.6766
 8069SOL    HW227100   3.627   3.485   0.140 -0.2944 -0.2293  1.2202
 8070SOL     OW27101   3.665   3.630   8.423  0.1722 -0.3075  0.3183
 8070SOL    HW127102   3.616   3.636   8.504  0.8540  0.5074  0.6871
 8070SOL    HW227103   3.751   3.596   8.449  0.1515 -0.7375 -0.1637
 8071SOL     OW27104   1.217   1.907   8.786 -0.3716  0.2963 -0.5623
 8071SOL    HW127105   1.173   1.897   8.870  1.5563 -2.8165  0.2532
 8071SOL    HW227106   1.200   1.825   8.740  1.9707  0.2180 -1.4419
 8072SOL     OW27107   5.899   6.599   4.810  0.4764 -0.7452  0.0478
 8072SOL    HW127108   5.971   6.662   4.803 -1.7176  2.1033  0.9941
 8072SOL    HW227109   5.876   6.600   4.903  0.0021 -2.5970 -0.0152
 8073SOL     OW27110   3.925   3.992   6.775  0.0286 -0.1662 -0.4422
 8073SOL    HW127111   3.842   3.988   6.727 -1.2427  1.2619  1.4554
 8073SOL    HW227112   3.949   4.084   6.774  0.8096 -0.3476  0.2669
 8074SOL     OW27113   3.420   5.469   9.161  0.3033 -0.1648 -0.6991
 8074SOL    HW127114   3.377   5.485   9.245  0.9459  2.6504 -0.8249
 8074SOL    HW227115   3.512   5.453   9.184  1.0424  3.0977 -0.8560
 8075SOL     OW27116   2.463   0.779   3.609 -0.3834  0.0735 -0.4116
 8075SOL    HW127117   2.414   0.715   3.660  0.6881 -0.1415  0.3742
 8075SOL    HW227118   2.545   0.736   3.587 -0.3474  0.5786 -1.3393
 8076SOL     OW27119   7.466   8.807   6.434 -0.0682  0.4440 -0.3900
 8076SOL    HW127120   7.440   8.780   6.346 -2.3312 -0.2451  0.4187
 8076SOL    HW227121   7.394   8.862   6.464  0.1720 -0.1678  1.4063
 8077SOL     OW27122   5.431   0.363   1.725 -0.4191 -0.1324  0.2498
 8077SOL    HW127123   5.494   0.318   1.781 -0.7709  0.2399  0.9536
 8077SOL    HW227124   5.438   0.319   1.640  0.1542 -0.6654  0.5712
 8078SOL     OW27125   5.844   8.528   6.032  0.5867 -0.4282  0.3677
 8078SOL    HW127126   5.834   8.623   6.028  0.2233 -0.4001  1.5506
 8078SOL    HW227127   5.871   8.503   5.943  0.4263  0.7404 -0.0295
 8079SOL     OW27128   0.399   1.131   3.273  1.1499 -0.6395  0.3975
 8079SOL    HW127129   0.318   1.127   3.325  0.2609  0.6161 -0.8344
 8079SOL    HW227130   0.465   1.089   3.329 -0.0017 -0.3251  2.0762
 8080SOL     OW27131   9.059   8.516   9.274  0.2603 -0.2540  0.6367
 8080SOL    HW127132   9.117   8.495   9.347  0.2626 -0.1446  0.6671
 8080SOL    HW227133   8.972   8.490   9.305  0.2508 -0.1408  0.7077
 8081SOL     OW27134   6.654   8.659   7.979 -0.0066  0.3494  0.1852
 8081SOL    HW127135   6.665   8.630   7.889  0.0611 -2.0973  0.8949
 8081SOL    HW227136   6.693   8.746   7.982  1.5152 -0.2064 -1.7686
 8082SOL     OW27137   2.363   9.151   8.645 -0.5588 -0.2567  0.3315
 8082SOL    HW127138   2.427   9.105   8.699 -0.0860  0.1139  0.0980
 8082SOL    HW227139   2.413   9.182   8.569 -0.8923  0.4931  0.4021
 8083SOL     OW27140   6.327   3.026   8.357 -0.2077  0.5744  0.2040
 8083SOL    HW127141   6.277   3.041   8.277  0.5690  0.8406 -0.2514
 8083SOL    HW227142   6.316   2.933   8.376  1.4821 -0.0698 -1.5571
 8084SOL     OW27143   3.790   3.603   4.181  0.5036  0.1163 -0.2934
 8084SOL    HW127144   3.699   3.617   4.154  0.1469 -2.1625 -0.4276
 8084SOL    HW227145   3.838   3.674   4.138 -0.9926  0.4958 -1.4306
 8085SOL     OW27146   7.616   7.719   0.543 -0.1093  0.7247 -0.3792
 8085SOL    HW127147   7.648   7.636   0.508  0.8708  0.0887  1.7969
 8085SOL    HW227148   7.566   7.758   0.472 -0.7317 -1.7896 -1.4430
 8086SOL     OW27149   3.675   8.813   5.273 -0.2432  0.1178  0.4565
 8086SOL    HW127150   3.678   8.721   5.249 -0.7963  0.5723 -1.5726
 8086SOL    HW227151   3.755   8.827   5.324 -0.1216 -1.4548  0.7484
 8087SOL     OW27152   5.979   7.064   7.322 -0.1947  0.0799  0.4110
 8087SOL    HW127153   5.995   7.005   7.396  0.9957 -0.1896 -0.0509
 8087SOL    HW227154   5.935   7.009   7.258  0.0697 -0.0603  0.3498
 8088SOL     OW27155   2.222   2.948   8.809 -0.2543 -0.2771  0.6263
 8088SOL    HW127156   2.250   2.916   8.894  1.2396 -0.4395  0.1043
 8088SOL    HW227157   2.127   2.933   8.807 -0.1627 -1.1025  1.8889
 8089SOL     OW27158   7.246   9.473   7.687 -0.7290  0.0060  0.5061
 8089SOL    HW127159   7.306   9.462   7.761 -2.6311  0.3910  2.2099
 8089SOL    HW227160   7.253   9.565   7.664 -0.1262 -0.1141  0.2024
 8090SOL     OW27161   0.832   6.776   4.008  0.1024  0.1355  0.4209
 8090SOL    HW127162   0.877   6.696   4.035  0.4117  0.3352  0.5124
 8090SOL    HW227163   0.859   6.841   4.072 -1.5352 -0.0879  1.3796
 8091SOL     OW27164   3.667   6.833   0.142 -0.1161  0.1806 -0.2701
 8091SOL    HW127165   3.678   6.755   0.196  3.3638  0.6462 -0.0936
 8091SOL    HW227166   3.608   6.889   0.192  1.1316 -0.3874  1.9506
 8092SOL     OW27167   1.418   2.993   2.490 -0.1149  0.2104  0.1567
 8092SOL    HW127168   1.392   2.967   2.579 -2.3342  0.6756 -0.2878
 8092SOL    HW227169   1.361   2.942   2.433  3.2128 -2.2706 -1.2407
 8093SOL     OW27170   0.153   5.602   4.565 -0.5810 -0.1263  0.2091
 8093SOL    HW127171   0.247   5.605   4.545 -0.9646 -0.6073 -1.8010
 8093SOL    HW227172   0.134   5.509   4.578 -1.2802 -0.3596 -2.1535
 8094SOL     OW27173   8.161   8.032   4.066  0.4464 -0.3264  0.2297
 8094SOL    HW127174   8.139   8.053   4.157 -0.2012 -1.3107  0.3269
 8094SOL    HW227175   8.254   8.051   4.058  0.1109  1.6710  0.5178
 8095SOL     OW27176   8.353   7.328   5.081 -0.2361  0.4253 -0.2019
 8095SOL    HW127177   8.437   7.341   5.125 -0.3391 -0.9073  0.4346
 8095SOL    HW227178   8.374   7.274   5.005 -0.4326  0.5767 -0.3636
 8096SOL     OW27179   6.846   7.191   5.816 -0.3122  0.2314  0.2699
 8096SOL    HW127180   6.838   7.142   5.898  0.0542  2.0202  1.4352
 8096SOL    HW227181   6.914   7.146   5.767 -2.0466 -2.1800 -0.0723
 8097SOL     OW27182   8.579   8.127   8.746  0.1958  0.1620  0.2604
 8097SOL    HW127183   8.608   8.072   8.673  0.2319 -0.3651  0.6657
 8097SOL    HW227184   8.661   8.158   8.787  0.2202 -1.2891  1.3772
 8098SOL     OW27185   7.468   4.765   8.465  0.6065 -0.2837 -0.9879
 8098SOL    HW127186   7.549   4.723   8.435  0.4976  0.0594 -1.7663
 8098SOL    HW227187   7.442   4.822   8.393  1.0606  1.5886  0.2801
 8099SOL     OW27188   7.238   8.607   9.204 -0.1340  0.1300  0.3849
 8099SOL    HW127189   7.279   8.523   9.223 -0.9699 -0.4112 -0.1472
 8099SOL    HW227190   7.302   8.672   9.232  2.0896 -0.6416 -2.4491
 8100SOL     OW27191   6.022   3.334   2.674  0.1205 -0.2769  0.0378
 8100SOL    HW127192   6.097   3.388   2.650  1.5955 -0.6675  3.2764
 8100SOL    HW227193   6.048   3.245   2.650 -1.5598  0.0184 -3.5715
 8101SOL     OW27194   6.294   4.341   5.484  0.2099  0.3905  0.2496
 8101SOL    HW127195   6.249   4.421   5.459 -1.6364 -0.7215 -0.1821
 8101SOL    HW227196   6.328   4.306   5.402 -0.8944 -0.3426  0.0745
 8102SOL     OW27197   1.514   4.156   1.442  0.1397  0.5958  0.1622
 8102SOL    HW127198   1.593   4.170   1.494  0.3061  2.8574 -0.5921
 8102SOL    HW227199   1.445   4.202   1.490  0.3800  3.0758 -1.6969
 8103SOL     OW27200   5.610   7.622   5.244  0.0436 -0.1067 -0.4891
 8103SOL    HW127201   5.593   7.666   5.327 -0.1111 -1.5038  0.2641
 8103SOL    HW227202   5.565   7.675   5.178 -1.0781  0.2297  0.5149
 8104SOL     OW27203   5.651   8.824   1.057  0.2415  0.5397 -0.1554
 8104SOL    HW127204   5.704   8.901   1.079  0.1120  0.7132 -0.4410
 8104SOL    HW227205   5.707   8.771   1.001  0.5656  0.1059  0.5613
 8105SOL     OW27206   2.796   6.375   2.141 -0.1749  0.3177  0.1204
 8105SOL    HW127207   2.866   6.405   2.199 -0.2758  1.8451 -0.4798
 8105SOL    HW227208   2.820   6.411   2.055 -1.9257  1.3227 -0.0053
 8106SOL     OW27209   2.030   4.692   2.169  0.1479  0.4759  0.0116
 8106SOL    HW127210   1.978   4.752   2.221  1.2072  3.1484 -1.7930
 8106SOL    HW227211   2.112   4.682   2.217  0.1950  0.9761  0.0351
 8107SOL     OW27212   0.534   0.739   1.793  0.3331 -0.1076  0.3098
 8107SOL    HW127213   0.629   0.728   1.797  0.8501  2.9066 -0.9468
 8107SOL    HW227214   0.521   0.834   1.792 -2.6531 -0.4302 -0.5977
 8108SOL     OW27215   1.489   5.958   3.471 -0.1074  0.0233  0.0650
 8108SOL    HW127216   1.433   5.889   3.506  0.3543 -0.3974 -0.0249
 8108SOL    HW227217   1.433   6.004   3.407  0.0695 -1.2793 -1.0705
 8109SOL     OW27218   2.473   8.428   1.662  0.6538 -0.2079  0.0322
 8109SOL    HW127219   2.564   8.458   1.659 -0.1766  2.9379  1.9799
 8109SOL    HW227220   2.456   8.411   1.754 -1.3439  1.6383  0.0889
 8110SOL     OW27221   1.068   2.612   4.805 -0.1632  0.2690 -0.4733
 8110SOL    HW127222   1.025   2.539   4.848 -1.0243  0.7667 -0.4591
 8110SOL    HW227223   1.133   2.572   4.748 -2.4695 -0.7196 -2.6037
 8111SOL     OW27224   6.783   6.593   5.869  0.2818 -0.2498  0.2080
 8111SOL    HW127225   6.735   6.512   5.851  0.3251  0.0695 -1.5412
 8111SOL    HW227226   6.873   6.574   5.844  0.0193  0.7448 -1.7711
 8112SOL     OW27227   8.940   2.295   1.884 -0.4645  0.2883 -0.2850
 8112SOL    HW127228   8.907   2.221   1.935 -0.0828  0.3407  0.0441
 8112SOL    HW227229   9.022   2.320   1.928 -0.2255  0.4528 -0.8135
 8113SOL     OW27230   7.595   9.221   3.174 -0.2347 -0.4497 -0.0261
 8113SOL    HW127231   7.598   9.140   3.123  0.6834  0.0913 -0.8737
 8113SOL    HW227232   7.536   9.278   3.125 -0.5013 -0.4375  0.3085
 8114SOL     OW27233   6.419   2.161   1.754  0.5504 -0.2952 -0.0872
 8114SOL    HW127234   6.343   2.184   1.700  1.3113  2.4426 -0.1748
 8114SOL    HW227235   6.403   2.205   1.837  1.7581 -0.1314  0.0780
 8115SOL     OW27236   6.297   2.842   3.736 -0.3934  0.3265 -0.0125
 8115SOL    HW127237   6.219   2.820   3.684  0.7826 -1.5329 -1.0822
 8115SOL    HW227238   6.313   2.934   3.716 -2.1658  0.6951  0.0642
 8116SOL     OW27239   7.368   2.892   2.339  0.8085 -0.0259 -0.2977
 8116SOL    HW127240   7.359   2.986   2.353  2.7137  0.0288  0.8451
 8116SOL    HW227241   7.412   2.885   2.254  2.6913  0.2421  0.6125
 8117SOL     OW27242   3.951   3.422   0.846 -0.0665 -0.3145 -0.3663
 8117SOL    HW127243   3.865   3.428   0.805  0.0123  0.1301 -0.4718
 8117SOL    HW227244   3.945   3.346   0.903 -1.4290  1.2694  1.7385
 8118SOL     OW27245   4.226   8.699   9.368  0.3707  0.3616 -0.0991
 8118SOL    HW127246   4.312   8.662   9.346  0.3318 -0.1670  0.6205
 8118SOL    HW227247   4.166   8.625   9.359  0.2932  0.2334  1.3686
 8119SOL     OW27248   3.398   8.957   1.491  0.2526 -0.8140  0.7386
 8119SOL    HW127249   3.374   9.007   1.413 -2.0853 -1.1096  1.1796
 8119SOL    HW227250   3.469   8.900   1.462 -1.2334 -1.6653 -1.5252
 8120SOL     OW27251   4.004   8.650   0.026 -0.1620  0.0084  0.1144
 8120SOL    HW127252   4.046   8.650   0.112  0.4410 -2.1653 -0.1156
 8120SOL    HW227253   4.077   8.648  -0.036 -0.5832  1.9281 -0.5165
 8121SOL     OW27254   6.158   0.070   5.116  0.9253  0.6786  0.1672
 8121SOL    HW127255   6.086   0.117   5.076  0.1028 -0.5339  0.1510
 8121SOL    HW227256   6.116   0.006   5.174  1.9627 -0.2603 -0.0648
 8122SOL     OW27257   9.145   4.661   1.212 -0.2488  0.1543  0.3249
 8122SOL    HW127258   9.074   4.660   1.149 -1.2802  1.5274  1.4004
 8122SOL    HW227259   9.170   4.569   1.223 -1.5032 -0.2973 -0.4566
 8123SOL     OW27260   3.867   6.100   3.462  0.4847 -0.2109 -0.1186
 8123SOL    HW127261   3.858   6.134   3.372  0.9617  1.8533  0.5430
 8123SOL    HW227262   3.955   6.062   3.464  0.1820 -0.9672 -0.7245
 8124SOL     OW27263   6.608   1.249   2.448 -0.2051  0.4881  0.4900
 8124SOL    HW127264   6.636   1.293   2.368 -1.0034 -1.8769 -1.2121
 8124SOL    HW227265   6.523   1.211   2.426 -0.8423  0.4612  2.7670
 8125SOL     OW27266   1.342   8.723   7.043  0.5020 -0.3009 -0.1395
 8125SOL    HW127267   1.425   8.676   7.034 -0.1483 -1.2865 -1.1470
 8125SOL    HW227268   1.301   8.685   7.120  1.5076  1.0612  1.1325
 8126SOL     OW27269   2.897   7.741   1.142 -0.2752  0.0340  0.1557
 8126SOL    HW127270   2.972   7.719   1.087 -0.0509  2.8005 -0.8421
 8126SOL    HW227271   2.936   7.775   1.223 -0.3834  1.2912 -0.2877
 8127SOL     OW27272   1.159   1.516   9.526 -0.2098 -0.3401  0.2371
 8127SOL    HW127273   1.105   1.469   9.589 -0.6375 -0.9764 -0.5863
 8127SOL    HW227274   1.245   1.474   9.533 -0.5123 -1.0767 -0.2872
 8128SOL     OW27275   0.221   4.287   8.071  0.2993 -0.2548  0.0177
 8128SOL    HW127276   0.259   4.289   7.984  0.1298  0.1395 -0.0508
 8128SOL    HW227277   0.294   4.267   8.129  0.8105  1.3523 -0.0146
 8129SOL     OW27278   5.423   5.818   0.858 -0.1854 -0.3680  0.0407
 8129SOL    HW127279   5.493   5.818   0.923  0.1301 -0.1273 -0.2912
 8129SOL    HW227280   5.448   5.750   0.795 -1.5975 -2.1680  1.3098
 8130SOL     OW27281   6.272   3.658   6.650 -0.5841  0.1454  0.2369
 8130SOL    HW127282   6.187   3.637   6.613 -0.0903 -0.9295 -0.3065
 8130SOL    HW227283   6.314   3.573   6.665  0.4925  0.6628  0.2605
 8131SOL     OW27284   1.097   9.537   6.087 -0.2057 -0.1312 -0.6659
 8131SOL    HW127285   1.043   9.493   6.153  0.7037 -2.4249 -1.3354
 8131SOL    HW227286   1.164   9.472   6.064  2.4547  2.3302 -0.3856
 8132SOL     OW27287   2.609   0.639   6.333  0.3278 -0.4733  0.3194
 8132SOL    HW127288   2.680   0.630   6.269  0.3255 -1.0047  0.3802
 8132SOL    HW227289   2.615   0.729   6.364  0.4899 -0.2879 -0.2439
 8133SOL     OW27290   5.608   1.847   6.067 -0.5209 -0.0951  0.4627
 8133SOL    HW127291   5.695   1.861   6.104 -0.8583  2.8152  0.3963
 8133SOL    HW227292   5.577   1.935   6.045 -3.9804 -0.8979  1.5774
 8134SOL     OW27293   6.397   8.267   3.292  0.2859  0.0133  0.1344
 8134SOL    HW127294   6.413   8.180   3.327 -1.8761 -0.3291  0.3813
 8134SOL    HW227295   6.387   8.253   3.198 -0.6721 -0.1206  0.2477
 8135SOL     OW27296   3.998   4.861   7.982  0.1828 -0.3179 -0.3279
 8135SOL    HW127297   4.054   4.937   7.967  0.7213 -1.1530 -3.0240
 8135SOL    HW227298   4.055   4.798   8.026  1.1250 -0.7596 -2.0882
 8136SOL     OW27299   5.859   2.982   6.002  0.0145  0.2449 -0.4889
 8136SOL    HW127300   5.850   2.896   5.961  2.0834 -0.1923 -0.1417
 8136SOL    HW227301   5.866   2.963   6.096 -1.4414  0.9769 -0.2043
 8137SOL     OW27302   3.239   4.268   7.892 -0.3614 -0.0324 -0.0551
 8137SOL    HW127303   3.325   4.232   7.913 -0.2950  0.7221  1.0082
 8137SOL    HW227304   3.247   4.362   7.907 -2.2141 -0.2605  3.1999
 8138SOL     OW27305   9.074   3.737   1.531  0.4404 -0.1439 -0.0710
 8138SOL    HW127306   9.022   3.680   1.587  1.2014  0.8101  1.7066
 8138SOL    HW227307   9.011   3.775   1.469 -0.8209  0.2770  1.4124
 8139SOL     OW27308   1.162   6.331   5.461  0.0473  0.0418  0.4995
 8139SOL    HW127309   1.080   6.352   5.505 -0.8728  0.5255 -1.3479
 8139SOL    HW227310   1.219   6.405   5.480 -0.8535  0.9776 -0.3270
 8140SOL     OW27311   5.726   4.371   1.244  0.1086  0.8373  0.2139
 8140SOL    HW127312   5.661   4.340   1.307  0.9175 -0.5641  0.4007
 8140SOL    HW227313   5.674   4.406   1.171 -0.8326  1.6229  1.2388
 8141SOL     OW27314   8.496   0.662   2.939 -0.2265  0.2815 -0.1564
 8141SOL    HW127315   8.558   0.600   2.902 -1.0428 -0.4505 -0.3417
 8141SOL    HW227316   8.411   0.635   2.904 -1.0013 -0.2748  2.0045
 8142SOL     OW27317   2.461   6.618   1.270 -0.5338  0.6041 -0.4345
 8142SOL    HW127318   2.482   6.708   1.294  0.6276  0.4921 -0.9507
 8142SOL    HW227319   2.412   6.626   1.188 -0.0928  0.7579 -0.6873
 8143SOL     OW27320   4.628   4.922   2.973  0.3189 -0.1831  0.2356
 8143SOL    HW127321   4.705   4.929   3.028 -0.3087 -1.7548  1.4011
 8143SOL    HW227322   4.573   4.996   2.999  0.1777 -0.7178  1.5230
 8144SOL     OW27323   1.210   4.168   5.700  0.6560 -0.3918  0.1405
 8144SOL    HW127324   1.272   4.241   5.705  0.7094 -0.4952  1.1911
 8144SOL    HW227325   1.159   4.186   5.621  2.4618 -0.6799 -1.1648
 8145SOL     OW27326   5.702   5.338   1.338 -0.6522 -0.0948  0.0755
 8145SOL    HW127327   5.770   5.308   1.277  0.1090  0.9673  0.3836
 8145SOL    HW227328   5.647   5.260   1.351  1.5993 -1.5891  1.3139
 8146SOL     OW27329   7.337   6.995   9.077 -0.1013  0.2463 -0.0526
 8146SOL    HW127330   7.281   7.065   9.042 -2.0829 -0.7983  0.9111
 8146SOL    HW227331   7.311   6.917   9.029  2.0939  0.0674 -1.1140
 8147SOL     OW27332   0.117   8.033   6.210 -0.1803 -0.2686  0.0694
 8147SOL    HW127333   0.174   8.006   6.139  0.4515 -0.6890  0.7161
 8147SOL    HW227334   0.074   7.952   6.238 -2.1489  0.2356 -1.2735
 8148SOL     OW27335   4.857   6.559   6.328 -0.1544  0.5469  0.1108
 8148SOL    HW127336   4.811   6.542   6.246  0.0916  0.2309  0.0358
 8148SOL    HW227337   4.857   6.654   6.337  2.1291  0.8018 -1.6161
 8149SOL     OW27338   1.164   1.879   5.088 -0.0839  0.2928 -0.0015
 8149SOL    HW127339   1.201   1.812   5.031  0.0049  1.6078 -1.5859
 8149SOL    HW227340   1.093   1.917   5.037 -0.1987  1.3300  0.8890
 8150SOL     OW27341   5.349   8.407   5.536  0.7951  0.0051  0.2317
 8150SOL    HW127342   5.369   8.500   5.552  1.2028  0.0033 -0.2216
 8150SOL    HW227343   5.262   8.395   5.572 -0.3059  1.1679 -1.8363
 8151SOL     OW27344   0.234   8.903   2.142 -0.3106 -0.7600  0.5355
 8151SOL    HW127345   0.241   8.948   2.226  0.1984  1.6085 -0.6613
 8151SOL    HW227346   0.156   8.940   2.101 -0.3615 -1.6183 -0.1763
 8152SOL     OW27347   8.789   6.554   3.701 -0.2836  0.3295  0.0102
 8152SOL    HW127348   8.884   6.564   3.694 -0.3869  0.6805 -1.0447
 8152SOL    HW227349   8.757   6.640   3.725 -0.2391 -0.0981  1.7413
 8153SOL     OW27350   5.549   7.277   5.750  0.2910  0.1104  0.1845
 8153SOL    HW127351   5.611   7.212   5.782 -0.3844 -0.3598  0.5475
 8153SOL    HW227352   5.524   7.327   5.827  2.8373  2.6284 -0.4501
 8154SOL     OW27353   8.970   4.756   3.512  0.6003 -0.2909  0.9449
 8154SOL    HW127354   8.882   4.724   3.529  0.7239 -0.8083  0.6330
 8154SOL    HW227355   9.023   4.677   3.500  0.7794  0.0287 -0.4966
 8155SOL     OW27356   7.107   0.637   1.965 -0.2521  0.0698  0.0654
 8155SOL    HW127357   7.080   0.551   1.932  1.0950  0.3533 -1.9604
 8155SOL    HW227358   7.192   0.621   2.007  0.2948  0.4582 -0.8453
 8156SOL     OW27359   2.363   4.874   3.632 -0.0875 -0.4056 -0.0193
 8156SOL    HW127360   2.435   4.813   3.647 -0.3500 -0.7896 -0.3061
 8156SOL    HW227361   2.303   4.857   3.705  0.3252  0.2449  0.4867
 8157SOL     OW27362   5.738   2.989   8.896 -0.6982  0.0632 -0.0780
 8157SOL    HW127363   5.683   3.022   8.825 -0.9642  2.1001  0.9932
 8157SOL    HW227364   5.757   2.899   8.871 -2.0356  0.2287 -1.9649
 8158SOL     OW27365   1.832   7.063   3.141 -0.6057 -0.6370 -0.2004
 8158SOL    HW127366   1.903   7.004   3.167  0.7242  0.0089 -2.1707
 8158SOL    HW227367   1.776   7.069   3.219  3.1412  1.3240  2.6638
 8159SOL     OW27368   1.583   0.215   4.832 -0.3698 -0.3621 -0.0232
 8159SOL    HW127369   1.601   0.296   4.880  0.2843 -1.4847  1.7347
 8159SOL    HW227370   1.507   0.178   4.875 -2.1478  0.3856 -2.3158
 8160SOL     OW27371   0.973   1.732   1.776 -0.1273 -0.3449  0.0208
 8160SOL    HW127372   0.994   1.641   1.798  1.0509 -0.5756 -1.7496
 8160SOL    HW227373   1.010   1.784   1.848 -2.5874 -1.2983  2.1026
 8161SOL     OW27374   7.993   3.996   0.829  0.1861 -0.3100  0.1702
 8161SOL    HW127375   8.069   3.953   0.792 -0.1196 -0.1888 -0.6132
 8161SOL    HW227376   7.973   3.947   0.909 -0.0773 -1.5434 -0.6289
 8162SOL     OW27377   9.430   5.728   4.961 -0.7162  0.1644 -0.3025
 8162SOL    HW127378   9.498   5.665   4.984 -0.6669 -0.0370 -0.9657
 8162SOL    HW227379   9.410   5.773   5.043 -0.4137 -0.3831  0.0788
 8163SOL     OW27380   8.323   2.723   2.577  0.2482  0.0374 -0.3997
 8163SOL    HW127381   8.401   2.696   2.624 -0.0399 -0.2677 -0.0892
 8163SOL    HW227382   8.329   2.677   2.493  1.0737  1.0675 -0.9184
 8164SOL     OW27383   5.358   2.285   2.289 -0.2235 -0.0106  0.5454
 8164SOL    HW127384   5.428   2.337   2.249 -0.4510  0.9363  1.3325
 8164SOL    HW227385   5.280   2.340   2.283  0.0788  0.9821  3.7979
 8165SOL     OW27386   2.060   6.013   1.157  0.0433  0.2089 -0.3238
 8165SOL    HW127387   2.148   5.979   1.143  0.4133  1.9305 -3.1175
 8165SOL    HW227388   2.072   6.085   1.220  0.6498  0.3712 -0.6140
 8166SOL     OW27389   8.215   7.558   7.652  0.0985  0.7065  1.0497
 8166SOL    HW127390   8.238   7.571   7.560  0.3851  0.1530  1.0397
 8166SOL    HW227391   8.200   7.464   7.660 -0.4940  0.8315  1.4450
 8167SOL     OW27392   1.834   3.333   3.310 -0.0828  0.3551 -0.7873
 8167SOL    HW127393   1.848   3.361   3.400  1.3802 -1.4701 -0.3768
 8167SOL    HW227394   1.903   3.377   3.260  0.3658 -0.1597 -0.6407
 8168SOL     OW27395   4.369   2.149   0.256  0.2612  0.3557  0.1395
 8168SOL    HW127396   4.309   2.130   0.328  0.6306 -0.2893  0.2818
 8168SOL    HW227397   4.335   2.097   0.183  1.5895 -1.3417  0.6806
 8169SOL     OW27398   5.224   6.341   1.933 -0.1538  0.1937 -0.0285
 8169SOL    HW127399   5.307   6.387   1.920 -0.8178  0.8197 -2.4391
 8169SOL    HW227400   5.234   6.259   1.885 -1.0250  0.3873 -0.5378
 8170SOL     OW27401   0.879   9.418   9.058  0.0525  0.3373 -0.0002
 8170SOL    HW127402   0.935   9.400   8.982  0.2225  1.8317 -0.2612
 8170SOL    HW227403   0.790   9.406   9.025  0.0941  1.5270 -0.6442
 8171SOL     OW27404   9.506   3.576   7.274  0.2154 -0.1949  0.0062
 8171SOL    HW127405   9.423   3.621   7.287  1.1217  1.2064  1.3536
 8171SOL    HW227406   9.495   3.491   7.316 -0.9753 -0.5969 -1.0666
 8172SOL     OW27407   8.397   8.318   8.738 -0.3255  0.2819 -0.5862
 8172SOL    HW127408   8.439   8.233   8.748 -0.8287  0.0261 -0.6356
 8172SOL    HW227409   8.384   8.328   8.644  0.6720  0.8775 -0.6782
 8173SOL     OW27410   7.833   0.608   5.854  0.0881  0.3235 -0.0546
 8173SOL    HW127411   7.902   0.631   5.792 -0.4143 -0.2738 -0.8591
 8173SOL    HW227412   7.768   0.678   5.843  0.4648  0.7742  0.5530
 8174SOL     OW27413   4.255   6.473   6.653  0.2957 -0.2472  0.2212
 8174SOL    HW127414   4.227   6.385   6.628  1.2473 -0.9717  1.5569
 8174SOL    HW227415   4.264   6.520   6.571 -1.3827 -1.0220 -0.4513
 8175SOL     OW27416   2.722   8.972   6.046 -0.5918  0.4158  0.2035
 8175SOL    HW127417   2.757   9.037   5.985  2.7870 -1.3487  0.0486
 8175SOL    HW227418   2.727   9.015   6.131  1.1218  0.5982  0.0456
 8176SOL     OW27419   1.068   9.169   3.869 -0.1600 -0.2312 -0.1196
 8176SOL    HW127420   1.049   9.076   3.860  0.8510 -0.4637  0.0251
 8176SOL    HW227421   1.119   9.175   3.950 -0.3269  0.4677 -0.0598
 8177SOL     OW27422   4.105   4.667   6.680  0.3633 -0.5932  0.1667
 8177SOL    HW127423   4.043   4.717   6.733  0.4690 -1.5325  1.1999
 8177SOL    HW227424   4.182   4.658   6.735  1.4847  0.5907 -1.1192
 8178SOL     OW27425   6.735   3.890   2.601  0.1063  0.3898 -0.1250
 8178SOL    HW127426   6.796   3.873   2.530  1.2462  2.1969  0.3329
 8178SOL    HW227427   6.790   3.924   2.672 -1.1409 -0.2640  1.2166
 8179SOL     OW27428   6.071   1.884   7.047 -0.2257 -0.5536 -0.7747
 8179SOL    HW127429   6.133   1.873   7.119  0.2293  0.3186 -1.0101
 8179SOL    HW227430   6.049   1.795   7.021  0.3311 -0.8825 -0.1727
 8180SOL     OW27431   1.710   3.380   1.486  0.1812  0.1548  0.0352
 8180SOL    HW127432   1.682   3.471   1.474 -1.2211  0.0180  1.8844
 8180SOL    HW227433   1.730   3.373   1.579  0.5709 -1.3688 -0.1347
 8181SOL     OW27434   5.218   3.025   6.783  0.2573 -0.0428  0.2460
 8181SOL    HW127435   5.133   3.051   6.746  0.8729 -0.5559 -1.6960
 8181SOL    HW227436   5.196   2.973   6.860 -1.3142 -1.7990 -1.2834
 8182SOL     OW27437   3.981   9.274   1.656  0.0381 -0.5288  0.3484
 8182SOL    HW127438   3.997   9.305   1.745 -1.8200  1.0399  0.2163
 8182SOL    HW227439   3.971   9.354   1.604 -0.5228 -1.3941 -0.9396
 8183SOL     OW27440   9.403   6.509   2.432 -0.0888 -0.4996 -0.1265
 8183SOL    HW127441   9.313   6.480   2.440 -0.5433  0.9755  0.4787
 8183SOL    HW227442   9.401   6.580   2.367  0.6932 -0.7082 -0.3956
 8184SOL     OW27443   7.090   0.131   0.340  0.0745 -0.1977  0.1430
 8184SOL    HW127444   7.156   0.062   0.349  0.9104  0.7751  2.1530
 8184SOL    HW227445   7.123   0.203   0.394 -1.6064  1.1466 -0.5155
 8185SOL     OW27446   5.266   6.320   2.559 -0.1468  0.0374 -0.0913
 8185SOL    HW127447   5.282   6.228   2.537  0.5117  0.7991 -3.2816
 8185SOL    HW227448   5.171   6.327   2.561 -0.2059 -0.6670 -0.0384
 8186SOL     OW27449   3.018   9.079   5.603 -0.0881  0.1511 -0.1903
 8186SOL    HW127450   3.032   9.008   5.665 -0.2552 -0.1481 -0.4897
 8186SOL    HW227451   3.106   9.108   5.579  0.0435 -1.1887 -1.4620
 8187SOL     OW27452   7.723   8.343   1.154 -0.4826 -0.4108  0.2989
 8187SOL    HW127453   7.769   8.278   1.101 -1.5425  0.2810 -1.5624
 8187SOL    HW227454   7.779   8.355   1.230  1.5439 -0.8605 -1.0306
 8188SOL     OW27455   9.352   1.047   1.725 -0.1619  0.0375 -0.0223
 8188SOL    HW127456   9.275   1.042   1.781  1.0208 -1.5836  1.5921
 8188SOL    HW227457   9.356   1.139   1.698 -2.2095  0.3119  0.4351
 8189SOL     OW27458   9.240   7.473   1.292  0.2395  0.0801  0.2998
 8189SOL    HW127459   9.148   7.447   1.306  0.8563 -1.2021  2.4282
 8189SOL    HW227460   9.282   7.393   1.260  1.0543  0.0269  1.4867
 8190SOL     OW27461   5.547   2.365   8.312 -0.1937  0.0124 -0.4061
 8190SOL    HW127462   5.463   2.320   8.302 -0.8928  0.4280  2.7130
 8190SOL    HW227463   5.595   2.312   8.376  1.7983  0.0266 -1.8056
 8191SOL     OW27464   2.745   0.530   0.126 -0.0217  0.4972  0.7733
 8191SOL    HW127465   2.747   0.542   0.221 -3.4981 -1.2074  1.2403
 8191SOL    HW227466   2.652   0.522   0.105  0.6290  0.6371 -2.7906
 8192SOL     OW27467   0.005   3.338   4.578 -0.2107 -0.3941 -0.1343
 8192SOL    HW127468   0.052   3.387   4.511 -0.5009 -1.3155 -1.0502
 8192SOL    HW227469   0.057   3.350   4.657  2.1296 -2.0741 -1.2858
 8193SOL     OW27470   2.371   3.497   4.831 -0.2079  0.3002  0.4398
 8193SOL    HW127471   2.395   3.589   4.839 -0.3953  0.2783  1.3437
 8193SOL    HW227472   2.379   3.478   4.738  0.8121  0.9598  0.3794
 8194SOL     OW27473   5.686   7.346   9.015  0.1393 -0.4030 -0.1605
 8194SOL    HW127474   5.750   7.349   9.086  1.4684  2.0199 -1.3506
 8194SOL    HW227475   5.611   7.300   9.053  1.3793 -0.5932  2.2846
 8195SOL     OW27476   6.464   0.137   7.073  0.1783  0.4220 -0.1730
 8195SOL    HW127477   6.426   0.112   6.989 -1.1754  0.7676  0.3079
 8195SOL    HW227478   6.421   0.079   7.136  2.8467 -1.4544  0.0851
 8196SOL     OW27479   4.581   0.027   5.470 -0.5419  0.4740  0.4979
 8196SOL    HW127480   4.647  -0.041   5.458 -0.3175  0.9647 -1.1953
 8196SOL    HW227481   4.519  -0.012   5.532  1.1261 -0.1111  1.8729
 8197SOL     OW27482   4.059   7.523   3.164  0.0142  0.3678  1.0491
 8197SOL    HW127483   4.142   7.477   3.170  0.8697  1.7955  0.7524
 8197SOL    HW227484   4.013   7.502   3.245  0.8978 -0.0051  1.4627
 8198SOL     OW27485   8.999   8.646   6.134  0.1059 -0.1985  0.7361
 8198SOL    HW127486   9.057   8.608   6.199 -0.8726 -2.0959  0.5622
 8198SOL    HW227487   8.911   8.634   6.171 -0.4471 -1.0245 -0.7659
 8199SOL     OW27488   7.093   4.433   9.354 -0.0404  0.4012 -0.7032
 8199SOL    HW127489   7.169   4.472   9.397 -0.3097  0.0158  0.1510
 8199SOL    HW227490   7.130   4.375   9.288  0.4999 -1.0715  0.8156
 8200SOL     OW27491   5.669   2.504   3.957 -0.7283 -0.2549  0.4165
 8200SOL    HW127492   5.753   2.494   3.911 -0.9598 -1.0492  0.1549
 8200SOL    HW227493   5.681   2.454   4.038 -0.5845  0.5186  0.8816
 8201SOL     OW27494   0.807   4.286   8.455  0.1019 -0.3228 -0.4756
 8201SOL    HW127495   0.729   4.340   8.454  1.6152  1.9939 -1.4982
 8201SOL    HW227496   0.785   4.211   8.399 -1.0463  0.8507 -1.6654
 8202SOL     OW27497   7.265   8.520   0.940 -0.3707 -0.0327 -0.2900
 8202SOL    HW127498   7.281   8.475   1.023  0.9568  2.9195  1.1889
 8202SOL    HW227499   7.193   8.471   0.900  0.0853 -2.5853  1.7642
 8203SOL     OW27500   6.037   2.143   4.946 -0.3394 -0.0750  0.0253
 8203SOL    HW127501   6.059   2.189   4.865  0.5833 -0.0706  0.2665
 8203SOL    HW227502   5.947   2.113   4.933 -0.3756  0.3666 -0.7948
 8204SOL     OW27503   0.632   4.020   1.479  0.4687 -0.8580  0.7119
 8204SOL    HW127504   0.687   3.980   1.411 -0.9775 -1.0252 -0.4142
 8204SOL    HW227505   0.581   3.947   1.513  1.4158 -0.8327  2.2550
 8205SOL     OW27506   2.737   5.470   3.610  0.0609  0.4865  0.5258
 8205SOL    HW127507   2.687   5.539   3.566 -0.6945 -0.9914 -1.0049
 8205SOL    HW227508   2.821   5.512   3.630 -1.2469  2.6365  2.0213
 8206SOL     OW27509   6.547   1.681   0.693  0.5519 -0.1540  0.1117
 8206SOL    HW127510   6.577   1.768   0.719  2.5351 -1.0429  1.0060
 8206SOL    HW227511   6.586   1.668   0.606 -0.3921  0.1281 -0.3676
 8207SOL     OW27512   6.244   2.054   5.647 -0.2447  0.1167 -0.3260
 8207SOL    HW127513   6.253   2.135   5.598  0.9227  0.4917  0.4738
 8207SOL    HW227514   6.271   2.076   5.736  0.4310 -1.2127 -0.1726
 8208SOL     OW27515   0.423   7.883   1.867 -0.4420  0.0210 -0.3030
 8208SOL    HW127516   0.493   7.887   1.801  0.2081 -0.9785  0.2876
 8208SOL    HW227517   0.414   7.790   1.886 -0.1580  0.3129  1.4703
 8209SOL     OW27518   6.680   8.732   5.846 -0.3251 -0.0777 -0.2693
 8209SOL    HW127519   6.734   8.653   5.838  1.0416  0.8458 -0.5342
 8209SOL    HW227520   6.736   8.795   5.891 -2.2718 -0.0239  2.3438
 8210SOL     OW27521   6.935   3.970   2.797  0.3832  0.2993 -0.2990
 8210SOL    HW127522   6.952   3.949   2.889  0.5144 -1.4502 -0.6976
 8210SOL    HW227523   7.015   3.946   2.751 -0.6668 -1.5522 -1.2411
 8211SOL     OW27524   4.893   7.704   0.045 -0.3408  0.4043  0.0523
 8211SOL    HW127525   4.960   7.651   0.087 -0.0814 -0.2336 -1.1368
 8211SOL    HW227526   4.835   7.641   0.003  0.1325  1.0518 -1.6260
 8212SOL     OW27527   6.643   2.192   5.129 -0.1556 -0.0735  0.3329
 8212SOL    HW127528   6.600   2.277   5.120 -1.8443 -1.0321 -1.0412
 8212SOL    HW227529   6.722   2.200   5.074 -0.6836  0.3614 -0.3807
 8213SOL     OW27530   8.339   2.799   7.391 -0.7434 -0.4625  0.1057
 8213SOL    HW127531   8.432   2.819   7.382 -0.8825  0.3358  0.3925
 8213SOL    HW227532   8.328   2.770   7.481 -0.8059 -0.3374  0.1394
 8214SOL     OW27533   3.279   6.327   1.604 -0.1991 -0.1148  0.1171
 8214SOL    HW127534   3.338   6.396   1.633 -0.4217  0.0992  0.0651
 8214SOL    HW227535   3.327   6.282   1.535 -0.9100  1.4491 -1.4961
 8215SOL     OW27536   1.829   2.340   0.744  0.0466  0.3259  0.0656
 8215SOL    HW127537   1.832   2.281   0.819 -1.6824 -1.9873 -1.5544
 8215SOL    HW227538   1.892   2.304   0.682  1.5320  2.2681  0.3454
 8216SOL     OW27539   5.896   5.019   7.006  0.0521 -0.0264 -0.4136
 8216SOL    HW127540   5.851   4.941   7.037 -0.9410  0.6379 -0.1223
 8216SOL    HW227541   5.883   5.084   7.076 -2.1430  1.4684 -2.0661
 8217SOL     OW27542   0.092   8.573   3.944 -0.1721  0.0208 -0.0444
 8217SOL    HW127543  -0.001   8.550   3.940  0.2414 -1.7340 -0.6967
 8217SOL    HW227544   0.136   8.490   3.965  1.2044  0.9574  0.9724
 8218SOL     OW27545   0.409   0.836   3.979 -0.6971  0.0295 -0.0737
 8218SOL    HW127546   0.338   0.773   3.974 -0.1640 -0.4980 -2.4803
 8218SOL    HW227547   0.484   0.790   3.941 -0.2420  1.9844 -1.7567
 8219SOL     OW27548   0.017   4.746   0.608 -0.2934  0.4497  0.2729
 8219SOL    HW127549  -0.034   4.696   0.545  0.6829 -0.1053 -0.0895
 8219SOL    HW227550   0.006   4.837   0.581 -0.2784  0.2530 -0.3963
 8220SOL     OW27551   9.002   2.509   4.864 -0.6304  0.2819  0.0097
 8220SOL    HW127552   8.991   2.597   4.900 -0.8349  0.3451 -0.2108
 8220SOL    HW227553   9.079   2.474   4.910 -1.1998  0.1643  0.9038
 8221SOL     OW27554   5.248   3.754   7.420 -0.2909 -0.0272  0.3429
 8221SOL    HW127555   5.245   3.660   7.435 -0.7383 -0.2216 -0.8441
 8221SOL    HW227556   5.236   3.764   7.325  0.3958  1.1938  0.3668
 8222SOL     OW27557   4.227   4.258   0.979 -0.4434  0.2610  0.3212
 8222SOL    HW127558   4.308   4.305   0.995 -0.3651  0.1470  0.2562
 8222SOL    HW227559   4.238   4.174   1.023  0.4042 -0.6918 -1.6258
 8223SOL     OW27560   5.517   2.142   3.844 -0.4380  0.0538  0.3594
 8223SOL    HW127561   5.545   2.102   3.761 -0.4069 -0.9798  0.8495
 8223SOL    HW227562   5.426   2.117   3.853  0.1692 -1.8728  1.7545
 8224SOL     OW27563   9.340   0.077   7.040  0.2152 -0.1073  0.0274
 8224SOL    HW127564   9.430   0.069   7.072 -0.0541  0.3899  0.9318
 8224SOL    HW227565   9.350   0.095   6.947  1.1219  1.5171  0.4010
 8225SOL     OW27566   6.078   8.431   1.395  0.1341  0.2771 -0.0921
 8225SOL    HW127567   6.143   8.407   1.328  0.7492  0.5657  0.3931
 8225SOL    HW227568   6.099   8.522   1.416 -1.4601  0.9089 -1.1074
 8226SOL     OW27569   7.316   8.423   8.484  0.1695  0.1539 -0.1031
 8226SOL    HW127570   7.222   8.421   8.466  0.2410 -3.0132 -0.7383
 8226SOL    HW227571   7.357   8.428   8.398  0.6119  0.6173  0.1254
 8227SOL     OW27572   8.368   2.063   9.321 -0.0843  0.2612  0.1732
 8227SOL    HW127573   8.358   2.001   9.248  0.6809 -0.5047  0.7002
 8227SOL    HW227574   8.346   2.148   9.283  1.5675  0.0858 -1.3290
 8228SOL     OW27575   1.822   9.414   5.909  0.2164  0.2398  0.3784
 8228SOL    HW127576   1.898   9.448   5.956  1.5049 -1.0047 -0.7049
 8228SOL    HW227577   1.780   9.492   5.871 -0.2812  1.1635  2.6357
 8229SOL     OW27578   3.300   8.841   9.117 -0.5683 -0.7765  0.1434
 8229SOL    HW127579   3.360   8.768   9.132  0.8703  0.4980  0.7719
 8229SOL    HW227580   3.260   8.858   9.202 -0.5445 -0.5069  0.0996
 8230SOL     OW27581   6.667   8.253   7.767 -0.1237 -0.0333  0.0987
 8230SOL    HW127582   6.630   8.332   7.807  0.0941  0.9138 -1.5058
 8230SOL    HW227583   6.591   8.197   7.750 -0.6728  1.1077 -1.4490
 8231SOL     OW27584   3.558   5.988   5.633 -0.5297 -0.0710  0.4153
 8231SOL    HW127585   3.544   5.934   5.711  0.3219 -1.5631 -0.4162
 8231SOL    HW227586   3.475   6.033   5.619 -1.3471 -1.3450  1.0255
 8232SOL     OW27587   8.601   3.944   0.368 -0.1949  0.3097 -0.2589
 8232SOL    HW127588   8.695   3.932   0.381 -0.4444 -0.5729  0.9787
 8232SOL    HW227589   8.572   3.992   0.446 -0.7044  0.9576 -0.8394
 8233SOL     OW27590   0.145   7.698   7.588  0.1413 -0.2859 -0.1345
 8233SOL    HW127591   0.154   7.788   7.555 -1.1840  0.2215  0.7943
 8233SOL    HW227592   0.095   7.653   7.520  1.0334 -0.4013 -0.7241
 8234SOL     OW27593   4.774   6.383   2.033 -0.8692 -1.1398  0.5473
 8234SOL    HW127594   4.725   6.450   1.985  0.6784 -0.6601 -0.4498
 8234SOL    HW227595   4.739   6.300   2.001 -0.3209 -0.8211 -0.9986
 8235SOL     OW27596   9.408   9.208   6.305 -0.0634  0.3698 -0.2301
 8235SOL    HW127597   9.377   9.121   6.332 -2.0808  1.0366 -0.2205
 8235SOL    HW227598   9.329   9.262   6.301  0.8670  1.7343 -2.1384
 8236SOL     OW27599   1.625   9.213   0.827 -0.1025 -0.2333 -0.4411
 8236SOL    HW127600   1.566   9.186   0.756 -1.5922  1.1025  0.2268
 8236SOL    HW227601   1.579   9.187   0.907  0.3457  0.5736  0.0877
 8237SOL     OW27602   7.319   6.759   5.353 -0.3989  0.2024 -0.3937
 8237SOL    HW127603   7.380   6.831   5.335  0.5465 -0.6185 -0.5455
 8237SOL    HW227604   7.296   6.770   5.445 -0.6472  0.9804 -0.5412
 8238SOL     OW27605   8.214   5.309   3.054 -0.4173 -0.0333  0.1837
 8238SOL    HW127606   8.284   5.289   2.992  0.9418  3.1616  0.4676
 8238SOL    HW227607   8.242   5.266   3.135 -0.5553 -1.5387 -0.5197
 8239SOL     OW27608   4.928   5.389   2.262 -0.2780 -0.2215  0.0004
 8239SOL    HW127609   4.928   5.297   2.288 -0.5290 -0.0779  0.5344
 8239SOL    HW227610   4.847   5.425   2.301 -0.3717  0.1350 -0.5142
 8240SOL     OW27611   3.671   6.296   5.264  0.3187  0.6496 -1.0267
 8240SOL    HW127612   3.595   6.276   5.209 -0.2723 -1.0794  0.3304
 8240SOL    HW227613   3.709   6.211   5.283  1.7490  1.3930 -0.4760
 8241SOL     OW27614   8.576   3.501   1.644 -0.1294 -0.5867  0.0905
 8241SOL    HW127615   8.483   3.506   1.664 -0.1402 -0.6665  0.0606
 8241SOL    HW227616   8.601   3.412   1.668 -0.2161 -0.7949 -0.5811
 8242SOL     OW27617   5.781   1.221   8.519 -0.1177  0.4359  0.2677
 8242SOL    HW127618   5.793   1.190   8.609  1.1818 -1.4389 -0.4923
 8242SOL    HW227619   5.690   1.200   8.498 -0.5385  1.2058  1.2294
 8243SOL     OW27620   1.606   8.697   5.979  0.0086  0.3400 -0.2957
 8243SOL    HW127621   1.573   8.614   5.946 -0.1345 -0.2449  1.2346
 8243SOL    HW227622   1.527   8.749   5.996  0.1278  1.2172 -2.2291
 8244SOL     OW27623   9.322   6.342   3.629  0.1427  0.3939 -0.1853
 8244SOL    HW127624   9.307   6.434   3.651  1.0970  0.7574 -0.9917
 8244SOL    HW227625   9.294   6.335   3.537 -0.1336 -0.1819 -0.0640
 8245SOL     OW27626   5.820   2.428   6.425  0.3464 -0.4591 -0.3688
 8245SOL    HW127627   5.851   2.346   6.465 -1.0471 -1.2057 -0.7462
 8245SOL    HW227628   5.807   2.487   6.499 -1.0292 -1.4247  0.2138
 8246SOL     OW27629   3.022   3.008   4.556 -0.3245  0.3276 -0.2729
 8246SOL    HW127630   2.936   2.964   4.560  0.1985 -0.6551  2.5752
 8246SOL    HW227631   3.077   2.958   4.617  2.0011  1.5414 -1.2752
 8247SOL     OW27632   1.997   9.398   1.792 -0.5241 -0.6631 -0.2691
 8247SOL    HW127633   2.017   9.348   1.872 -0.3062 -1.6881 -0.9346
 8247SOL    HW227634   2.045   9.351   1.723  0.7046  1.1942 -0.7577
 8248SOL     OW27635   5.942   1.990   7.406  0.2420  0.1500  0.1314
 8248SOL    HW127636   5.925   1.956   7.495 -0.8722  1.7673  0.5813
 8248SOL    HW227637   5.937   2.085   7.416  1.4011  0.4024 -1.4437
 8249SOL     OW27638   4.334   9.204   3.475 -0.0812 -0.5412  0.0326
 8249SOL    HW127639   4.297   9.254   3.548  1.6742  2.2597 -0.8680
 8249SOL    HW227640   4.383   9.134   3.518 -0.9997 -0.3765  1.4346
 8250SOL     OW27641   7.771   5.049   4.678  0.5941  0.7341 -0.0847
 8250SOL    HW127642   7.860   5.030   4.705  0.9041 -0.0171 -1.5347
 8250SOL    HW227643   7.717   4.986   4.726  1.2111 -1.1006 -1.6851
 8251SOL     OW27644   3.134   5.819   1.341 -0.5723 -0.7126 -0.2288
 8251SOL    HW127645   3.146   5.910   1.367 -1.2293  0.4930 -3.6549
 8251SOL    HW227646   3.191   5.770   1.401  3.1908  2.3631 -0.8424
 8252SOL     OW27647   4.052   2.164   1.734  0.1157 -0.1098 -0.2934
 8252SOL    HW127648   4.072   2.236   1.794 -0.0928  0.4672 -0.9101
 8252SOL    HW227649   4.107   2.180   1.658 -0.1420 -0.4476 -0.5546
 8253SOL     OW27650   8.765   6.968   0.923  0.2719  0.5592 -0.6316
 8253SOL    HW127651   8.856   6.965   0.897  0.3677  0.3152 -0.2798
 8253SOL    HW227652   8.764   7.023   1.001  0.4943 -1.3721  0.8149
 8254SOL     OW27653   6.235   4.622   1.556  0.1268  0.1728 -0.3262
 8254SOL    HW127654   6.140   4.622   1.569  0.1420  1.6112 -0.0060
 8254SOL    HW227655   6.254   4.709   1.522  1.4514  0.2856  0.6100
 8255SOL     OW27656   7.968   1.810   1.613 -0.1582 -0.1104 -0.2554
 8255SOL    HW127657   8.043   1.758   1.642  0.1979  0.5379  0.0075
 8255SOL    HW227658   7.993   1.843   1.527 -0.1086  0.1659 -0.1362
 8256SOL     OW27659   0.551   1.058   4.033  0.3139 -0.2710  1.2923
 8256SOL    HW127660   0.502   0.976   4.040 -0.2085 -0.0786  0.1929
 8256SOL    HW227661   0.496   1.114   3.978  0.5645  0.9058  2.2096
 8257SOL     OW27662   8.224   1.761   0.984  0.4202 -0.3406 -0.2884
 8257SOL    HW127663   8.266   1.714   1.056  1.2968  1.2012  0.2522
 8257SOL    HW227664   8.132   1.766   1.009  0.4143 -1.2644 -0.0947
 8258SOL     OW27665   0.481   0.268   6.049  0.4187  0.2344  0.1971
 8258SOL    HW127666   0.416   0.337   6.042  0.5312  0.5523  1.7644
 8258SOL    HW227667   0.470   0.216   5.970 -1.0704  0.8509 -0.0377
 8259SOL     OW27668   8.917   1.145   3.529 -0.1090 -0.2259 -0.5540
 8259SOL    HW127669   8.836   1.099   3.551  0.1265  0.1823  1.3131
 8259SOL    HW227670   8.983   1.076   3.522 -0.1520 -0.3529  0.2633
 8260SOL     OW27671   3.652   6.029   6.702 -0.9043 -0.1165 -0.5811
 8260SOL    HW127672   3.724   5.966   6.710 -0.1348  1.0001  2.8163
 8260SOL    HW227673   3.587   5.999   6.765 -1.4760  1.2916 -0.4621
 8261SOL     OW27674   3.293   0.122   5.856  0.0906 -0.0758 -0.1222
 8261SOL    HW127675   3.223   0.152   5.797 -0.3988  1.1707  1.0448
 8261SOL    HW227676   3.255   0.048   5.902  0.4377 -0.9909 -1.2548
 8262SOL     OW27677   0.889   2.991   3.399 -0.1928 -0.5623  0.9052
 8262SOL    HW127678   0.947   3.066   3.408  0.7557 -1.2752  0.8403
 8262SOL    HW227679   0.804   3.023   3.428 -0.5323  1.4183 -1.9049
 8263SOL     OW27680   6.007   5.300   7.575 -0.0546  0.1408 -0.5606
 8263SOL    HW127681   6.045   5.218   7.608 -0.2211  0.4080  0.3125
 8263SOL    HW227682   5.956   5.334   7.648 -1.8798 -0.1283 -1.6560
 8264SOL     OW27683   5.694   2.397   9.128  0.8920 -0.1032 -0.0446
 8264SOL    HW127684   5.635   2.456   9.174  0.1021  0.4442 -1.6683
 8264SOL    HW227685   5.637   2.329   9.092  1.7728 -1.8663  1.6959
 8265SOL     OW27686   2.380   8.185   9.267 -0.3164  0.2916 -0.3937
 8265SOL    HW127687   2.404   8.139   9.348 -0.2952  2.4585  0.9159
 8265SOL    HW227688   2.285   8.191   9.270 -0.2405  1.4179  0.1049
 8266SOL     OW27689   5.430   4.460   1.875  0.5530  0.3253  0.1201
 8266SOL    HW127690   5.498   4.502   1.927  2.3928 -0.8661 -1.2165
 8266SOL    HW227691   5.367   4.530   1.857  0.6242  1.1254  2.5799
 8267SOL     OW27692   6.092   2.264   0.294  0.2003  0.3541  0.1265
 8267SOL    HW127693   6.008   2.236   0.257 -0.8415  2.0142  1.1080
 8267SOL    HW227694   6.151   2.268   0.219 -0.3904 -1.4475 -0.4909
 8268SOL     OW27695   5.466   8.737   7.677  0.3273  0.0891  0.0996
 8268SOL    HW127696   5.471   8.732   7.773  2.6569  1.7984  0.1365
 8268SOL    HW227697   5.432   8.652   7.651 -1.4531 -0.0352  2.4814
 8269SOL     OW27698   3.680   5.597   4.952 -0.4684  0.6879 -0.1057
 8269SOL    HW127699   3.627   5.634   4.881 -0.0460  2.4458  0.4498
 8269SOL    HW227700   3.653   5.646   5.030 -1.4565 -1.6806  1.1661
 8270SOL     OW27701   3.530   3.990   3.791 -0.4013 -0.0456 -0.2155
 8270SOL    HW127702   3.581   4.040   3.855 -1.4595  1.1844 -0.2778
 8270SOL    HW227703   3.513   3.906   3.834 -0.1862  0.3591  0.6871
 8271SOL     OW27704   5.040   5.388   6.206 -0.6006 -0.1921  0.3458
 8271SOL    HW127705   5.088   5.371   6.287 -0.5016 -0.6748  0.1913
 8271SOL    HW227706   5.090   5.456   6.162  0.0656 -0.8248  0.0966
 8272SOL     OW27707   7.133   8.291   7.989 -0.2799  0.1683  0.3781
 8272SOL    HW127708   7.195   8.345   7.939 -0.0499 -1.5746 -1.3326
 8272SOL    HW227709   7.059   8.278   7.929 -1.3758  0.4619  1.6231
 8273SOL     OW27710   1.551   8.100   6.150  0.0793 -0.0014 -1.0245
 8273SOL    HW127711   1.529   8.131   6.062  0.8678 -2.3197 -2.1224
 8273SOL    HW227712   1.572   8.179   6.199  2.6973  1.2457 -3.8211
 8274SOL     OW27713   9.402   1.756   3.266 -0.0265 -0.2228 -0.5166
 8274SOL    HW127714   9.495   1.766   3.246 -0.0714 -0.5487 -0.8979
 8274SOL    HW227715   9.393   1.791   3.354  0.8538 -2.1014  0.3687
 8275SOL     OW27716   2.322   5.790   4.272  0.2994  0.7008  0.5831
 8275SOL    HW127717   2.250   5.794   4.335 -0.7385 -1.1385 -0.4037
 8275SOL    HW227718   2.280   5.792   4.186  1.6890  3.3729 -0.1702
 8276SOL     OW27719   8.257   0.609   0.298  0.2169 -0.2076  0.6554
 8276SOL    HW127720   8.165   0.586   0.288  0.4618 -0.9147 -0.0979
 8276SOL    HW227721   8.258   0.703   0.315 -0.8624 -0.6870  4.0431
 8277SOL     OW27722   4.106   4.385   4.005  0.4180  0.4633  0.1618
 8277SOL    HW127723   4.095   4.478   4.023  3.6057  0.7931  0.9782
 8277SOL    HW227724   4.147   4.350   4.084  0.3853 -1.3876 -0.5986
 8278SOL     OW27725   0.445   0.777   2.953  0.1849  0.4366  0.4570
 8278SOL    HW127726   0.467   0.810   2.866 -1.7397  2.9200  0.7992
 8278SOL    HW227727   0.425   0.856   3.004 -1.2711 -1.0996  2.4103
 8279SOL     OW27728   0.985   6.690   6.360  0.0191  0.1474 -0.4198
 8279SOL    HW127729   1.077   6.704   6.381 -0.0413  0.8435 -0.5780
 8279SOL    HW227730   0.950   6.643   6.435 -0.0021  1.8562  0.7114
 8280SOL     OW27731   1.856   9.168   3.342  0.8299  0.9384 -0.2487
 8280SOL    HW127732   1.823   9.201   3.258  2.4120 -1.5081 -1.9792
 8280SOL    HW227733   1.926   9.229   3.366  1.2560  0.9570 -1.4657
 8281SOL     OW27734   8.736   9.447   4.139 -0.2042 -0.6782 -0.8476
 8281SOL    HW127735   8.743   9.522   4.197 -0.6518 -0.9828 -0.3882
 8281SOL    HW227736   8.818   9.445   4.091  0.1963 -0.4515 -0.1846
 8282SOL     OW27737   2.601   3.354   2.477  0.1776 -0.3184  0.2863
 8282SOL    HW127738   2.520   3.403   2.459 -1.4512 -3.0029 -0.2143
 8282SOL    HW227739   2.586   3.312   2.562  1.4074 -0.2048  0.5771
 8283SOL     OW27740   6.491   0.471   0.490  0.4908  0.0473  0.0547
 8283SOL    HW127741   6.536   0.399   0.533 -0.1312  0.6168  1.7293
 8283SOL    HW227742   6.400   0.443   0.485  0.4403  0.2670 -0.3011
 8284SOL     OW27743   1.720   0.377   0.405  0.1886 -0.5260 -0.0899
 8284SOL    HW127744   1.733   0.287   0.437  2.4334 -1.4717 -3.0970
 8284SOL    HW227745   1.803   0.421   0.425 -0.4443  0.5261  0.2752
 8285SOL     OW27746   1.596   1.082   3.240 -0.0223  0.1799  0.0734
 8285SOL    HW127747   1.627   1.149   3.179 -0.6501  0.8097  0.4288
 8285SOL    HW227748   1.646   1.004   3.217  1.1870  0.9251  0.0532
 8286SOL     OW27749   2.538   3.911   1.867 -0.2527  0.6803  0.0575
 8286SOL    HW127750   2.555   3.886   1.958 -1.2633  0.9859  0.3530
 8286SOL    HW227751   2.482   3.989   1.874  0.3242  1.1829 -0.8333
 8287SOL     OW27752   0.133   7.225   7.167  0.7072 -0.5525  0.0734
 8287SOL    HW127753   0.144   7.184   7.081  0.1747  1.3134 -0.9302
 8287SOL    HW227754   0.101   7.155   7.223 -3.0153 -0.9357 -2.2536
 8288SOL     OW27755   0.629   6.954   5.950  0.5063 -0.4931  0.4857
 8288SOL    HW127756   0.604   6.875   5.901 -2.1050  0.4370  0.1566
 8288SOL    HW227757   0.659   6.921   6.034 -0.8930 -1.8693  0.5030
 8289SOL     OW27758   1.606   1.942   9.421 -0.4214  0.4918 -0.6172
 8289SOL    HW127759   1.686   1.985   9.453 -0.4093 -2.0785  3.6006
 8289SOL    HW227760   1.636   1.889   9.347  1.7485  0.0426  0.4815
 8290SOL     OW27761   5.268   5.701   4.978  0.3285  0.0565 -0.4544
 8290SOL    HW127762   5.351   5.654   4.964  0.4390 -0.0232  0.3952
 8290SOL    HW227763   5.202   5.632   4.985  0.5121 -0.0029  0.9381
 8291SOL     OW27764   3.406   4.047   1.656  0.0822 -0.2421 -0.1759
 8291SOL    HW127765   3.340   3.978   1.652  0.2696 -0.4075 -0.4172
 8291SOL    HW227766   3.395   4.096   1.575 -1.8006  1.6401  1.1148
 8292SOL     OW27767   8.083   1.966   8.709  0.1576 -0.4803  0.4028
 8292SOL    HW127768   8.010   2.011   8.665  1.5178  1.1598 -0.3109
 8292SOL    HW227769   8.059   1.967   8.801 -0.5585  0.4117  0.2269
 8293SOL     OW27770   9.302   5.815   4.373 -0.6350 -0.5305 -0.1572
 8293SOL    HW127771   9.369   5.815   4.441  1.1675  2.2277 -1.7583
 8293SOL    HW227772   9.244   5.886   4.397 -1.1841 -0.8726 -0.4536
 8294SOL     OW27773   8.656   6.531   2.173 -0.6154  0.1810  0.6145
 8294SOL    HW127774   8.709   6.514   2.251  1.7567  0.4258 -0.8469
 8294SOL    HW227775   8.629   6.444   2.143  0.0994 -0.0542  0.6427
 8295SOL     OW27776   7.843   0.431   6.744  0.1285 -0.4609 -0.8778
 8295SOL    HW127777   7.815   0.379   6.820 -0.9464  0.1990 -0.7883
 8295SOL    HW227778   7.877   0.512   6.782 -2.2707  0.7414 -1.0903
 8296SOL     OW27779   5.894   8.336   1.607  0.4026  0.1462 -0.2872
 8296SOL    HW127780   5.810   8.301   1.578  0.3948 -2.5230  2.4385
 8296SOL    HW227781   5.951   8.329   1.530 -0.7545 -2.1182 -1.0257
 8297SOL     OW27782   7.239   1.790   6.688 -0.1253 -0.3373  0.2777
 8297SOL    HW127783   7.195   1.707   6.670 -1.2631  0.2330  0.3407
 8297SOL    HW227784   7.287   1.775   6.769 -0.6897 -0.7973  0.5286
 8298SOL     OW27785   9.381   2.197   4.372 -0.2288  0.2616 -0.1226
 8298SOL    HW127786   9.411   2.288   4.364  0.7669  0.0328  0.7529
 8298SOL    HW227787   9.351   2.189   4.463 -0.4200 -0.2545 -0.2257
 8299SOL     OW27788   1.776   1.506   1.447 -0.1698  0.4689 -0.1362
 8299SOL    HW127789   1.744   1.458   1.524 -1.9796  2.9481  0.7827
 8299SOL    HW227790   1.736   1.461   1.372  1.4049 -1.8185  0.2648
 8300SOL     OW27791   6.531   7.549   8.725  0.0210 -0.4396 -0.3784
 8300SOL    HW127792   6.491   7.516   8.645 -2.0341 -1.7157  1.0525
 8300SOL    HW227793   6.624   7.531   8.716 -0.0938 -0.1104 -2.6309
 8301SOL     OW27794   7.989   4.425   1.711  0.3543 -0.1195 -0.5286
 8301SOL    HW127795   7.945   4.493   1.762  0.0199 -0.3714 -0.4818
 8301SOL    HW227796   8.023   4.364   1.776 -1.3879 -1.2678 -0.6203
 8302SOL     OW27797   7.635   6.855   6.615  0.2648 -0.1466  0.3693
 8302SOL    HW127798   7.659   6.859   6.707 -1.2588  1.9117  0.7606
 8302SOL    HW227799   7.540   6.845   6.615 -0.0844  2.3775 -0.8710
 8303SOL     OW27800   6.781   6.341   7.474  0.5116  0.0723 -0.0025
 8303SOL    HW127801   6.749   6.276   7.412  0.8060 -0.5617  0.5083
 8303SOL    HW227802   6.868   6.364   7.442 -0.5021  2.0665 -1.6042
 8304SOL     OW27803   3.530   2.062   3.328 -0.4406 -0.0332 -0.1173
 8304SOL    HW127804   3.502   2.000   3.395 -1.0336  0.9773  0.5939
 8304SOL    HW227805   3.625   2.049   3.321 -0.4969 -0.7222  0.3172
 8305SOL     OW27806   2.462   5.082   3.091  0.1758  0.1725 -0.6072
 8305SOL    HW127807   2.535   5.143   3.087 -0.6293  1.3308  1.0305
 8305SOL    HW227808   2.412   5.109   3.168 -0.8393 -1.8824 -0.4617
 8306SOL     OW27809   0.550   1.281   8.112  0.7494  0.1751  0.2125
 8306SOL    HW127810   0.643   1.301   8.101  1.1844 -2.2250 -1.1434
 8306SOL    HW227811   0.543   1.240   8.198  1.1066 -0.3992 -0.0302
 8307SOL     OW27812   2.614   5.480   1.914  0.4508  0.1574  0.5990
 8307SOL    HW127813   2.675   5.427   1.966  0.5423 -0.4213 -0.0777
 8307SOL    HW227814   2.671   5.532   1.858  0.4654 -3.0317 -2.7391
 8308SOL     OW27815   6.459   0.511   7.634 -0.0685 -0.1486  0.1900
 8308SOL    HW127816   6.535   0.479   7.587  1.1402  0.4362  1.6618
 8308SOL    HW227817   6.419   0.433   7.672  2.8083 -0.1843  3.6964
 8309SOL     OW27818   8.560   2.199   8.634  0.1695 -0.0268  0.5699
 8309SOL    HW127819   8.562   2.136   8.562 -2.0301  0.0479  0.3868
 8309SOL    HW227820   8.566   2.285   8.591  0.2866 -0.0187  0.6012
 8310SOL     OW27821   5.929   2.748   8.279 -0.2757  0.3279 -0.0982
 8310SOL    HW127822   5.908   2.660   8.311 -0.7322  0.9429  1.3606
 8310SOL    HW227823   5.871   2.760   8.203  0.0942 -0.7675 -0.5876
 8311SOL     OW27824   6.126   5.365   6.182 -0.4760 -0.5183 -0.2319
 8311SOL    HW127825   6.043   5.411   6.169 -0.3142 -0.5308 -1.4414
 8311SOL    HW227826   6.117   5.324   6.268 -1.8856 -0.8409 -0.4995
 8312SOL     OW27827   3.681   1.549   0.941 -0.3704 -0.3785  0.5364
 8312SOL    HW127828   3.765   1.520   0.907 -1.0490 -3.6720  1.3174
 8312SOL    HW227829   3.687   1.535   1.036 -1.6368 -0.2704  0.6567
 8313SOL     OW27830   4.880   3.423   4.669  0.1414  0.1110  0.0278
 8313SOL    HW127831   4.926   3.346   4.702  0.3284  0.1986 -0.0328
 8313SOL    HW227832   4.791   3.391   4.652 -0.4961  0.4688  2.3176
 8314SOL     OW27833   6.374   7.702   2.598  0.2433 -0.7319 -0.2077
 8314SOL    HW127834   6.322   7.714   2.519  0.0187  0.0187  0.0404
 8314SOL    HW227835   6.312   7.666   2.662 -0.2729  1.1012  0.3901
 8315SOL     OW27836   7.144   0.778   0.790  0.5221 -0.7423  0.2474
 8315SOL    HW127837   7.207   0.794   0.861 -0.5697 -1.1398  1.3476
 8315SOL    HW227838   7.106   0.693   0.812 -1.4405  0.1434  0.4261
 8316SOL     OW27839   8.421   4.415   6.180 -0.2523  0.0347 -0.0262
 8316SOL    HW127840   8.389   4.369   6.103 -1.5956  2.2685 -0.8847
 8316SOL    HW227841   8.497   4.364   6.209 -0.2513 -1.3449 -2.2786
 8317SOL     OW27842   0.687   2.119   6.006 -0.1956  0.0512  0.3826
 8317SOL    HW127843   0.640   2.038   6.025 -0.1428  0.3424  1.8245
 8317SOL    HW227844   0.618   2.184   5.990 -0.2730 -0.5783 -2.4985
 8318SOL     OW27845   8.308   1.032   6.041  0.1391 -0.0161  0.2950
 8318SOL    HW127846   8.354   1.079   5.971  1.0838 -0.9638  0.2506
 8318SOL    HW227847   8.376   1.016   6.107 -0.5429  0.1036  1.0403
 8319SOL     OW27848   0.609   6.368   2.611  0.0977  0.0295  0.3263
 8319SOL    HW127849   0.699   6.352   2.637  0.5529 -0.4939 -1.4539
 8319SOL    HW227850   0.567   6.404   2.689  1.9624  0.7545  1.0371
 8320SOL     OW27851   9.459   1.210   8.003  0.0792 -0.4168 -0.4324
 8320SOL    HW127852   9.374   1.253   8.005  0.4896  0.5842  2.8673
 8320SOL    HW227853   9.441   1.119   8.025 -0.2665 -0.5501 -1.2678
 8321SOL     OW27854   4.253   2.792   6.446  0.2610  0.7263  0.3060
 8321SOL    HW127855   4.189   2.739   6.398  0.9251 -0.1292  0.3457
 8321SOL    HW227856   4.253   2.755   6.535  0.2086  1.2659  0.5380
 8322SOL     OW27857   1.829   3.910   8.000  0.5160  0.0676 -0.7885
 8322SOL    HW127858   1.851   3.817   8.011  0.8137  0.1798 -0.4225
 8322SOL    HW227859   1.760   3.926   8.064  0.2116  0.0126 -1.1011
 8323SOL     OW27860   1.938   3.080   6.654  0.1302 -0.2312  0.0014
 8323SOL    HW127861   2.018   3.091   6.604 -0.4880  1.5714 -0.6433
 8323SOL    HW227862   1.964   3.026   6.729  2.2009  1.2169  0.3926
 8324SOL     OW27863   5.718   6.356   1.890  0.4382  0.0609  0.2151
 8324SOL    HW127864   5.700   6.278   1.839 -1.9184  0.0098  1.0227
 8324SOL    HW227865   5.746   6.323   1.976 -0.7434  0.0563  0.6189
 8325SOL     OW27866   3.503   7.208   8.386  0.1319  0.1451 -0.0802
 8325SOL    HW127867   3.440   7.171   8.447 -0.4182  0.9272 -0.1656
 8325SOL    HW227868   3.508   7.144   8.315  2.1469 -1.7123  1.5623
 8326SOL     OW27869   2.894   0.551   8.411  0.0615  0.4690 -0.3087
 8326SOL    HW127870   2.978   0.526   8.450 -0.0329 -0.7799 -0.8766
 8326SOL    HW227871   2.847   0.469   8.401 -0.3272  0.8781 -2.1142
 8327SOL     OW27872   6.074   7.031   3.312 -0.8704 -0.4694  0.1038
 8327SOL    HW127873   6.039   7.085   3.241  0.2628  0.4004  0.1898
 8327SOL    HW227874   6.101   7.093   3.379 -1.7122 -1.2766  1.2235
 8328SOL     OW27875   6.417   5.834   0.204  0.0456  0.2251 -0.2589
 8328SOL    HW127876   6.442   5.906   0.147 -1.2479 -0.1212 -1.3272
 8328SOL    HW227877   6.494   5.778   0.207 -0.2149 -0.4210 -2.8103
 8329SOL     OW27878   4.009   1.012   3.822 -0.1268  0.5488  0.4459
 8329SOL    HW127879   4.084   0.973   3.865 -0.3853  0.4337  0.7951
 8329SOL    HW227880   3.971   1.071   3.887  0.4532  1.6571 -0.1839
 8330SOL     OW27881   3.656   5.940   0.677 -0.2154 -0.3470  0.4938
 8330SOL    HW127882   3.566   5.949   0.706 -0.2414  1.7942 -0.0264
 8330SOL    HW227883   3.683   6.030   0.657  1.5604 -1.0989 -0.7340
 8331SOL     OW27884   5.547   8.655   2.382  0.1030 -0.3491  0.2085
 8331SOL    HW127885   5.541   8.696   2.468  1.6276 -0.4562  0.3979
 8331SOL    HW227886   5.586   8.570   2.398  1.5933  0.1229 -0.6869
 8332SOL     OW27887   7.038   6.170   1.185 -0.2579  0.2783 -0.5482
 8332SOL    HW127888   7.015   6.140   1.097 -0.1041  1.2115 -0.9268
 8332SOL    HW227889   7.033   6.266   1.179 -1.6809  0.3242  0.8601
 8333SOL     OW27890   5.595   3.862   8.809  0.3265 -0.1110  0.1340
 8333SOL    HW127891   5.593   3.769   8.829 -1.1786 -0.3536 -0.9971
 8333SOL    HW227892   5.506   3.883   8.781  0.9267  1.4140 -0.7653
 8334SOL     OW27893   5.987   1.030   8.468 -0.5684 -0.2924 -0.0717
 8334SOL    HW127894   5.927   1.105   8.465  0.9414  0.9296 -0.7436
 8334SOL    HW227895   5.990   1.006   8.561  0.1536  1.5252  0.4081
 8335SOL     OW27896   5.463   8.639   0.221 -0.4322 -0.2311  0.7335
 8335SOL    HW127897   5.459   8.731   0.247  1.9289 -0.2665  1.5006
 8335SOL    HW227898   5.530   8.601   0.278  0.8925 -1.6784 -1.6245
 8336SOL     OW27899   7.174   8.551   6.926 -0.0206 -0.2818  0.3466
 8336SOL    HW127900   7.229   8.531   6.851  0.0736 -1.5493  0.7362
 8336SOL    HW227901   7.209   8.496   6.997  0.7263  1.8218  1.7045
 8337SOL     OW27902   8.373   1.583   0.179  0.7126 -0.0330  0.0289
 8337SOL    HW127903   8.426   1.512   0.214 -1.1294 -1.4607  0.1108
 8337SOL    HW227904   8.359   1.559   0.087 -0.4627 -0.1749  0.2178
 8338SOL     OW27905   5.028   2.260   4.336  0.3681 -0.0728 -0.0393
 8338SOL    HW127906   5.034   2.216   4.251 -2.1864  0.2009 -0.4376
 8338SOL    HW227907   5.025   2.189   4.400  0.1922 -0.3595 -0.3616
 8339SOL     OW27908   4.544   9.243   1.642  0.2168 -0.1380  1.0081
 8339SOL    HW127909   4.543   9.294   1.723 -1.0272  0.4838  0.6368
 8339SOL    HW227910   4.497   9.298   1.579  0.8517 -0.7684 -0.0396
 8340SOL     OW27911   7.478   6.898   1.493 -0.0416 -0.1421  0.2570
 8340SOL    HW127912   7.531   6.957   1.440 -0.7804  1.1304  0.8925
 8340SOL    HW227913   7.521   6.813   1.484  0.8976  0.4181 -0.8914
 8341SOL     OW27914   6.019   5.780   0.406  0.1069  0.0384 -0.1618
 8341SOL    HW127915   6.063   5.699   0.430  0.0405 -0.6625 -2.1955
 8341SOL    HW227916   6.090   5.839   0.380  0.0439 -0.0361 -0.5086
 8342SOL     OW27917   2.236   7.980   4.527 -0.1689  0.3688 -0.2928
 8342SOL    HW127918   2.190   8.054   4.566  1.3312  1.7942 -1.0829
 8342SOL    HW227919   2.201   7.903   4.572 -0.7499  1.6608  1.5834
 8343SOL     OW27920   1.797   3.073   9.248 -0.2169  0.2828 -0.9196
 8343SOL    HW127921   1.786   2.997   9.305 -1.2975  0.9772 -0.1563
 8343SOL    HW227922   1.867   3.124   9.289 -0.5524  0.4636 -0.5731
 8344SOL     OW27923   7.275   3.243   3.526 -0.1500 -0.3400 -0.3927
 8344SOL    HW127924   7.366   3.232   3.553 -0.5164 -0.9795  0.6772
 8344SOL    HW227925   7.224   3.203   3.597 -1.2311 -0.8810 -1.4333
 8345SOL     OW27926   5.528   8.956   8.387 -0.0245  0.6228  0.9013
 8345SOL    HW127927   5.570   8.916   8.463  0.4347  0.8442  0.7652
 8345SOL    HW227928   5.591   9.021   8.356 -0.8836  1.6829  1.3044
 8346SOL     OW27929   2.659   7.953   2.212  0.8344  0.1286  0.8404
 8346SOL    HW127930   2.663   8.041   2.248  0.2605  0.8957 -0.8952
 8346SOL    HW227931   2.573   7.920   2.239 -0.0679  1.1221 -0.6852
 8347SOL     OW27932   1.933   1.980   2.846 -0.2204 -0.1788 -0.2739
 8347SOL    HW127933   1.898   1.931   2.771 -1.9663  1.6279 -0.7342
 8347SOL    HW227934   1.856   2.003   2.898  0.5014  1.9114 -0.0190
 8348SOL     OW27935   4.922   4.093   6.372 -0.1738  0.1416  0.0187
 8348SOL    HW127936   4.935   4.076   6.465 -0.3914  0.0545  0.0334
 8348SOL    HW227937   4.953   4.182   6.359  0.9945 -0.2535 -0.0560
 8349SOL     OW27938   8.602   0.395   1.092  0.1693  0.0349 -0.0019
 8349SOL    HW127939   8.662   0.469   1.081 -0.4713  0.3727 -1.4393
 8349SOL    HW227940   8.515   0.433   1.084 -0.1641 -0.9606 -1.6618
 8350SOL     OW27941   8.438   3.339   7.183 -0.0258  1.0207  0.1885
 8350SOL    HW127942   8.383   3.363   7.258 -1.1874  0.7940 -0.5587
 8350SOL    HW227943   8.376   3.330   7.110  0.6083 -1.9026 -0.1135
 8351SOL     OW27944   7.080   5.994   7.104  0.4073  0.1024 -0.1386
 8351SOL    HW127945   6.996   5.968   7.066  0.3431 -0.7171  0.5270
 8351SOL    HW227946   7.137   6.007   7.029 -0.2950  0.6144 -0.5980
 8352SOL     OW27947   4.180   3.557   5.398  0.2188 -0.7645  0.5422
 8352SOL    HW127948   4.252   3.588   5.452  1.6070 -1.0547 -1.0722
 8352SOL    HW227949   4.185   3.461   5.404  0.9999 -0.8329 -0.8166
 8353SOL     OW27950   2.506   6.701   1.821 -0.4875  0.4652  0.4562
 8353SOL    HW127951   2.509   6.608   1.841 -1.3085  0.5622  1.0834
 8353SOL    HW227952   2.593   6.721   1.788 -0.9277 -0.9935 -1.8393
 8354SOL     OW27953   3.097   6.653   3.196  0.4822 -0.5780 -0.4373
 8354SOL    HW127954   3.062   6.640   3.284 -1.6734  0.4659 -1.0917
 8354SOL    HW227955   3.020   6.663   3.140  1.7667 -2.2384 -2.6446
 8355SOL     OW27956   3.993   8.274   6.332  0.1058 -0.2396  0.2408
 8355SOL    HW127957   3.975   8.313   6.418  0.3485 -0.2910  0.3161
 8355SOL    HW227958   3.944   8.328   6.270 -0.1268 -0.2446  0.4184
 8356SOL     OW27959   6.335   2.262   2.739 -0.3634  0.5869 -0.3453
 8356SOL    HW127960   6.292   2.176   2.740  1.9214 -0.6269  0.7550
 8356SOL    HW227961   6.397   2.258   2.667 -1.5672  2.1184 -1.5536
 8357SOL     OW27962   3.829   1.845   1.461 -0.5019  0.8467  0.4879
 8357SOL    HW127963   3.856   1.767   1.509  2.0151  2.2428  1.5622
 8357SOL    HW227964   3.809   1.910   1.529 -2.1342  1.3101 -0.3781
 8358SOL     OW27965   1.248   6.534   3.568 -0.1081  0.2819  0.3584
 8358SOL    HW127966   1.309   6.465   3.541 -0.5152 -0.5397  1.4492
 8358SOL    HW227967   1.302   6.612   3.577  0.5507 -0.1322  0.0911
 8359SOL     OW27968   1.541   2.638   4.306  0.2597  0.6662 -1.0663
 8359SOL    HW127969   1.545   2.716   4.251 -0.4910  1.0426 -0.6097
 8359SOL    HW227970   1.464   2.591   4.275 -1.7563  2.1646  1.2443
 8360SOL     OW27971   5.311   3.958   1.146 -0.3468  0.3883  0.9032
 8360SOL    HW127972   5.330   3.959   1.239 -0.4951 -1.6696  0.9885
 8360SOL    HW227973   5.395   3.978   1.104 -0.2149  1.0224  1.4529
 8361SOL     OW27974   1.507   0.162   5.412  0.2464 -0.7304  0.3160
 8361SOL    HW127975   1.444   0.187   5.344 -1.3330 -3.2912  0.7047
 8361SOL    HW227976   1.530   0.071   5.392 -1.4112 -2.1164  3.8871
 8362SOL     OW27977   2.404   6.746   3.581  0.2263 -0.3743  0.4100
 8362SOL    HW127978   2.374   6.782   3.665 -2.4990  0.9150 -1.0015
 8362SOL    HW227979   2.431   6.823   3.530 -0.1964 -0.8973 -0.6308
 8363SOL     OW27980   1.627   1.345   9.181  0.3256  0.4156 -0.1245
 8363SOL    HW127981   1.700   1.330   9.241  0.6979  1.3863 -0.3265
 8363SOL    HW227982   1.639   1.434   9.150  0.2359 -0.1315 -1.8068
 8364SOL     OW27983   5.457   1.677   3.374  0.5126  0.8833 -0.3845
 8364SOL    HW127984   5.437   1.590   3.340  2.1283  0.1058  0.5303
 8364SOL    HW227985   5.467   1.732   3.296 -0.6416  0.2895 -0.9627
 8365SOL     OW27986   1.480   9.166   7.860 -0.6015 -0.1130 -0.4372
 8365SOL    HW127987   1.546   9.102   7.885 -0.6053  0.1790  0.3632
 8365SOL    HW227988   1.507   9.196   7.773 -1.0940 -1.8356 -1.2142
 8366SOL     OW27989   0.754   1.255   7.062  0.1186  0.2399  0.4649
 8366SOL    HW127990   0.750   1.160   7.055 -0.7898  0.2393  0.8810
 8366SOL    HW227991   0.700   1.287   6.990 -0.6245  0.4076  1.0821
 8367SOL     OW27992   5.311   7.399   2.553  0.9464  0.1134  0.0979
 8367SOL    HW127993   5.282   7.337   2.619  0.6669 -1.9161 -1.8386
 8367SOL    HW227994   5.238   7.460   2.543 -0.4115 -1.5819 -0.6911
 8368SOL     OW27995   7.932   4.210   5.371 -0.2504 -0.1761  0.3825
 8368SOL    HW127996   7.946   4.115   5.375 -1.2605 -0.3502  0.0556
 8368SOL    HW227997   7.847   4.220   5.330  0.9988  0.9567 -2.1195
 8369SOL     OW27998   9.321   8.229   1.044  0.7263  0.0252  0.2722
 8369SOL    HW127999   9.237   8.275   1.036  1.6343  1.8066  0.4897
 8369SOL    HW228000   9.300   8.138   1.023 -1.1955  0.4718  0.0161
 8370SOL     OW28001   2.977   4.133   7.887 -0.0318 -0.1565  0.1319
 8370SOL    HW128002   2.977   4.141   7.791  1.7270  0.4262  0.1397
 8370SOL    HW228003   3.064   4.165   7.913  0.2598 -2.0854  1.7749
 8371SOL     OW28004   2.714   0.516   0.971  0.1988 -0.0663  0.1903
 8371SOL    HW128005   2.746   0.606   0.970 -0.1585  0.0944  1.4563
 8371SOL    HW228006   2.776   0.468   0.917  0.1586  1.0030 -0.8556
 8372SOL     OW28007   3.828   1.693   8.727  0.0943 -0.3947  0.6572
 8372SOL    HW128008   3.783   1.617   8.766  0.1927  0.6457  2.9199
 8372SOL    HW228009   3.765   1.765   8.735 -0.5319 -0.3710 -2.6573
 8373SOL     OW28010   0.713   5.767   2.739  0.0019  0.2545  0.2434
 8373SOL    HW128011   0.636   5.743   2.689  0.2371  0.3851 -0.1822
 8373SOL    HW228012   0.682   5.773   2.830 -0.3095 -0.5062  0.1981
 8374SOL     OW28013   8.133   7.803   3.303  0.8879  0.5568 -0.3791
 8374SOL    HW128014   8.095   7.829   3.219 -1.4885 -0.1554  0.4088
 8374SOL    HW228015   8.106   7.712   3.315  0.0547  1.0288  1.7306
 8375SOL     OW28016   6.168   7.288   8.721  0.0248  0.6960  0.6261
 8375SOL    HW128017   6.165   7.382   8.735  2.7923  0.8914  0.4896
 8375SOL    HW228018   6.226   7.255   8.790 -0.9009 -0.9404  0.6958
 8376SOL     OW28019   7.908   4.734   8.575 -0.6060 -0.8604 -0.0187
 8376SOL    HW128020   7.965   4.700   8.506 -1.1540 -1.5313 -0.1476
 8376SOL    HW228021   7.921   4.829   8.572 -0.9641 -0.8335 -1.3522
 8377SOL     OW28022   9.287   1.713   6.856  0.5317 -0.2003  0.2852
 8377SOL    HW128023   9.267   1.671   6.772 -0.5629  1.0001 -0.0995
 8377SOL    HW228024   9.207   1.761   6.878  1.8820  2.1649  0.3697
 8378SOL     OW28025   0.828   1.439   7.837 -0.0572  0.2688  0.1542
 8378SOL    HW128026   0.786   1.445   7.751  1.5930  0.3982 -0.6836
 8378SOL    HW228027   0.906   1.493   7.830  0.8196 -0.7786  1.3025
 8379SOL     OW28028   2.351   7.318   0.707  0.3839 -0.0752  0.1716
 8379SOL    HW128029   2.382   7.381   0.772  1.1416 -0.3966  0.1302
 8379SOL    HW228030   2.286   7.367   0.657  0.1971  0.3472  0.8147
 8380SOL     OW28031   0.999   1.267   4.727 -0.1523  0.2923 -0.0288
 8380SOL    HW128032   0.974   1.356   4.752 -1.3552  0.2295 -0.9428
 8380SOL    HW228033   0.977   1.261   4.634  1.1993 -0.5308 -0.3316
 8381SOL     OW28034   7.484   4.665   7.419  1.1262  0.0773  0.7790
 8381SOL    HW128035   7.556   4.605   7.399  1.2080  0.1874  0.7417
 8381SOL    HW228036   7.491   4.734   7.353  0.9767  0.0805  0.7654
 8382SOL     OW28037   3.194   6.134   1.898 -0.1408  0.0173  0.7901
 8382SOL    HW128038   3.257   6.068   1.867 -2.2004 -0.8811 -1.8344
 8382SOL    HW228039   3.234   6.218   1.875 -0.1030 -0.5547 -1.5223
 8383SOL     OW28040   7.144   2.917   6.489  0.0425  0.6911 -0.1764
 8383SOL    HW128041   7.120   2.992   6.544 -0.2072 -0.1116  0.8466
 8383SOL    HW228042   7.171   2.956   6.406 -2.6444  1.7982 -0.6428
 8384SOL     OW28043   1.236   3.561   2.764  0.5398 -0.1600  0.2958
 8384SOL    HW128044   1.182   3.636   2.790  1.0244 -0.0373  0.9675
 8384SOL    HW228045   1.173   3.489   2.751  0.0883  0.3121 -0.2138
 8385SOL     OW28046   9.529   9.462   3.781 -0.1392  0.1387  0.4022
 8385SOL    HW128047   9.484   9.534   3.738  0.2637  0.4688  0.5318
 8385SOL    HW228048   9.462   9.423   3.839 -0.1849  0.8043  0.8062
 8386SOL     OW28049   7.114   2.110   5.927  0.2460 -0.4682 -0.7353
 8386SOL    HW128050   7.179   2.137   5.863  0.4490  1.6171  0.2425
 8386SOL    HW228051   7.046   2.178   5.923  0.6552  0.2016  1.7316
 8387SOL     OW28052   2.002   7.515   1.624 -0.4188 -0.4120 -0.2157
 8387SOL    HW128053   2.017   7.424   1.598 -0.5503 -0.8360  1.1328
 8387SOL    HW228054   1.914   7.515   1.663  0.0858  0.0226  0.9506
 8388SOL     OW28055   4.801   6.329   6.521 -0.1407  0.2289  0.3885
 8388SOL    HW128056   4.709   6.319   6.545 -0.6918 -0.0157 -1.6127
 8388SOL    HW228057   4.803   6.409   6.468  0.7417  0.0574  0.1479
 8389SOL     OW28058   1.714   6.063   3.676 -0.3806 -1.1783  0.0161
 8389SOL    HW128059   1.633   6.088   3.721 -0.1210  0.8210 -0.5636
 8389SOL    HW228060   1.684   6.018   3.597 -0.9269 -0.5606 -0.1360
 8390SOL     OW28061   8.265   6.320   4.826 -0.4849  0.5576 -0.2009
 8390SOL    HW128062   8.176   6.348   4.805 -0.8126 -0.0590  0.3426
 8390SOL    HW228063   8.305   6.396   4.866 -1.4547  0.2157  1.5120
 8391SOL     OW28064   4.181   7.450   8.987 -0.1490  0.2686  0.4772
 8391SOL    HW128065   4.137   7.365   8.989 -0.8475  0.6153  2.1808
 8391SOL    HW228066   4.267   7.433   9.025  0.0484  0.1651 -0.0100
 8392SOL     OW28067   8.752   9.638   1.228 -0.4195 -0.5329 -0.2736
 8392SOL    HW128068   8.674   9.590   1.254 -0.9702 -0.6080 -1.9232
 8392SOL    HW228069   8.800   9.652   1.309 -2.3962 -0.0052  0.8750
 8393SOL     OW28070   0.826   7.626   3.981  0.2900  0.4055 -0.6487
 8393SOL    HW128071   0.762   7.582   4.036  1.4686 -0.1411  0.3391
 8393SOL    HW228072   0.794   7.716   3.974 -0.9931 -0.0530 -0.8548
 8394SOL     OW28073   6.365   1.042   0.929 -0.4972  0.1394  0.7112
 8394SOL    HW128074   6.404   1.083   1.006  1.8369  0.5809 -0.5963
 8394SOL    HW228075   6.363   1.112   0.863  2.4288 -1.3506 -1.1828
 8395SOL     OW28076   0.597   2.095   7.125  0.0642 -0.1124 -0.5323
 8395SOL    HW128077   0.534   2.158   7.162 -0.0938  0.6130 -1.9468
 8395SOL    HW228078   0.544   2.042   7.066  0.9894  1.6455 -3.1116
 8396SOL     OW28079   9.189   5.053   3.745  0.1503 -0.3337 -0.2230
 8396SOL    HW128080   9.237   4.991   3.800 -0.5367  0.5153  1.4200
 8396SOL    HW228081   9.243   5.063   3.667  1.2029 -1.5478  0.3080
 8397SOL     OW28082   0.672   6.028   0.606 -0.5429 -0.5442  0.5799
 8397SOL    HW128083   0.669   5.995   0.516  1.3742  0.6328  0.0323
 8397SOL    HW228084   0.763   6.014   0.634 -0.0145  2.6482  0.8689
 8398SOL     OW28085   8.803   8.162   5.845 -0.0281 -0.1521  0.0533
 8398SOL    HW128086   8.736   8.229   5.851 -0.1441 -0.1179 -1.2551
 8398SOL    HW228087   8.762   8.092   5.794  0.3720 -0.8552  0.6723
 8399SOL     OW28088   0.563   8.770   6.330  0.2808  0.0952  0.3413
 8399SOL    HW128089   0.555   8.847   6.273 -1.1417  0.0869  0.5094
 8399SOL    HW228090   0.545   8.696   6.272 -1.9958  0.1334  0.9272
 8400SOL     OW28091   0.171   9.572   1.903  0.0313  0.0426 -0.3063
 8400SOL    HW128092   0.094   9.603   1.951 -0.6255  0.1523 -1.4118
 8400SOL    HW228093   0.237   9.559   1.971 -1.4297 -1.5725  0.9045
 8401SOL     OW28094   2.557   6.429   1.478  0.1257  0.3898 -0.5177
 8401SOL    HW128095   2.498   6.409   1.550  0.4895 -1.2921 -0.6561
 8401SOL    HW228096   2.505   6.482   1.418  0.0128  2.4366  1.2494
 8402SOL     OW28097   6.295   2.571   3.106  0.2632 -0.3631 -0.3422
 8402SOL    HW128098   6.272   2.485   3.139  2.5110 -1.0073 -0.3425
 8402SOL    HW228099   6.278   2.566   3.012  0.2990 -0.7751 -0.3268
 8403SOL     OW28100   4.255   1.659   1.804 -0.0685  0.5633  0.0881
 8403SOL    HW128101   4.250   1.751   1.779  1.4782  0.4703 -0.6967
 8403SOL    HW228102   4.273   1.661   1.898 -1.5076  1.0066  0.3789
 8404SOL     OW28103   7.215   7.755   9.468  0.3276  0.1744 -0.2433
 8404SOL    HW128104   7.305   7.753   9.501 -0.2518 -0.3333  1.4308
 8404SOL    HW228105   7.161   7.741   9.546 -1.1867 -0.1193 -1.3040
 8405SOL     OW28106   0.516   9.106   4.800  0.0505 -0.2064 -0.4001
 8405SOL    HW128107   0.445   9.092   4.863 -0.1085 -3.2137 -1.1352
 8405SOL    HW228108   0.596   9.083   4.848  0.2048 -0.0471 -0.5762
 8406SOL     OW28109   5.396   4.805   9.363  0.0264 -0.8992 -0.5368
 8406SOL    HW128110   5.491   4.804   9.363  0.1076  0.6413 -2.5124
 8406SOL    HW228111   5.372   4.766   9.279 -0.8689  2.2885 -1.9226
 8407SOL     OW28112   1.226   7.241   0.653  0.0594  0.4850 -0.1011
 8407SOL    HW128113   1.276   7.200   0.582  0.2439 -0.1852  0.4021
 8407SOL    HW228114   1.204   7.168   0.711  0.4721  1.1301  0.8745
 8408SOL     OW28115   2.706   3.201   7.967  0.7433 -0.0150 -0.0688
 8408SOL    HW128116   2.755   3.269   8.013 -1.0957  1.1961  0.1899
 8408SOL    HW228117   2.701   3.129   8.029 -0.8773  1.2330  1.3443
 8409SOL     OW28118   4.336   5.343   0.404  0.3231  0.8653  0.5130
 8409SOL    HW128119   4.325   5.365   0.496  1.5208  0.3308  0.8176
 8409SOL    HW228120   4.298   5.416   0.356 -1.2040  0.6964  1.4070
 8410SOL     OW28121   7.689   7.169   5.930  0.1343  0.0276  0.0650
 8410SOL    HW128122   7.649   7.255   5.915 -0.0036  0.1509  1.0262
 8410SOL    HW228123   7.782   7.189   5.942  0.5899 -0.2875 -2.4281
 8411SOL     OW28124   1.833   7.302   2.949  0.2157 -0.8203 -0.5311
 8411SOL    HW128125   1.847   7.225   3.004 -1.2003 -0.8819 -0.2209
 8411SOL    HW228126   1.767   7.274   2.885 -1.8780  0.6677  0.8468
 8412SOL     OW28127   4.913   5.868   5.243  0.0887 -0.0132 -0.0504
 8412SOL    HW128128   4.928   5.902   5.154 -0.9055  0.0512 -0.2071
 8412SOL    HW228129   4.819   5.855   5.247  0.0087  0.9205  1.3510
 8413SOL     OW28130   9.161   0.583   1.656  0.5944  0.1869 -0.2883
 8413SOL    HW128131   9.255   0.602   1.664  0.4054  1.0613 -0.0169
 8413SOL    HW228132   9.138   0.539   1.737  0.1466  2.7801  1.1113
 8414SOL     OW28133   3.620   3.443   5.050  0.5300 -0.2095  0.2396
 8414SOL    HW128134   3.689   3.423   4.987 -0.4222  0.2164 -0.9644
 8414SOL    HW228135   3.568   3.363   5.055 -0.9112  0.5375 -1.5313
 8415SOL     OW28136   0.080   1.000   8.103 -0.4693  0.3040 -0.0678
 8415SOL    HW128137   0.046   1.026   8.189 -2.4240 -1.6297 -0.1723
 8415SOL    HW228138   0.160   0.953   8.122 -1.0243 -0.3396  0.7591
 8416SOL     OW28139   8.051   3.847   4.754  0.2270 -0.1286 -1.0585
 8416SOL    HW128140   8.131   3.879   4.712  0.1236  1.1850 -0.2969
 8416SOL    HW228141   7.985   3.912   4.732 -0.4061 -0.6965 -0.8683
 8417SOL     OW28142   7.900   7.545   2.994  0.0388 -0.4918 -0.1200
 8417SOL    HW128143   7.932   7.633   3.015  0.3840 -1.0176  1.7978
 8417SOL    HW228144   7.809   7.545   3.025  0.5237 -1.2563  1.4307
 8418SOL     OW28145   8.992   9.528   8.750  0.2825  0.0373  0.4519
 8418SOL    HW128146   9.007   9.594   8.682 -2.2131 -1.8083 -2.0827
 8418SOL    HW228147   9.052   9.457   8.728 -0.0249 -0.2730  0.6137
 8419SOL     OW28148   9.128   6.632   9.057  0.6373 -0.9286  0.3726
 8419SOL    HW128149   9.117   6.547   9.014  0.4155 -1.0766  0.7195
 8419SOL    HW228150   9.222   6.639   9.071  0.5776 -1.5212  1.1484
 8420SOL     OW28151   3.873   8.908   2.408  1.1490  0.3524  0.0399
 8420SOL    HW128152   3.908   8.923   2.320 -0.9145  1.5103 -0.6580
 8420SOL    HW228153   3.780   8.892   2.394  0.8598  0.0869  1.9977
 8421SOL     OW28154   2.113   5.558   9.079  0.6406 -0.2216  0.4381
 8421SOL    HW128155   2.100   5.600   9.164 -0.0306  0.3994  0.0341
 8421SOL    HW228156   2.042   5.591   9.024 -1.0612 -3.2859  0.6158
 8422SOL     OW28157   3.874   0.244   3.583 -0.5871 -0.6173 -0.3244
 8422SOL    HW128158   3.969   0.251   3.597 -0.6218  0.2535 -0.4851
 8422SOL    HW228159   3.858   0.150   3.578  0.0618 -0.8449  1.1392
 8423SOL     OW28160   0.524   9.370   7.034 -0.1012 -0.0066  0.0849
 8423SOL    HW128161   0.563   9.437   6.978 -0.6517  0.5332  0.3291
 8423SOL    HW228162   0.435   9.360   7.000 -0.8301  1.1542  1.5272
 8424SOL     OW28163   8.307   1.418   7.452 -0.3121  0.4028  0.2870
 8424SOL    HW128164   8.358   1.483   7.404 -0.7589  0.5397 -0.0096
 8424SOL    HW228165   8.369   1.379   7.514  0.4760 -0.3074 -0.9152
 8425SOL     OW28166   6.255   1.117   5.145 -0.4686  0.3779  0.2148
 8425SOL    HW128167   6.167   1.138   5.113 -1.2354 -0.1264  1.8863
 8425SOL    HW228168   6.242   1.040   5.201  0.5805  1.7949  2.5568
 8426SOL     OW28169   2.930   3.441   2.979 -0.2547  0.4133 -1.0618
 8426SOL    HW128170   2.983   3.480   2.908  1.3763 -0.2933 -0.2876
 8426SOL    HW228171   2.888   3.516   3.021  1.6603  1.2654 -0.5273
 8427SOL     OW28172   9.121   7.643   0.310 -0.3025  0.3619  0.6344
 8427SOL    HW128173   9.196   7.622   0.254  1.0115  2.4872  1.4638
 8427SOL    HW228174   9.067   7.701   0.257 -2.0579 -1.9907 -0.3592
 8428SOL     OW28175   2.460   5.640   5.860 -0.0118  0.2670  0.5826
 8428SOL    HW128176   2.527   5.643   5.928 -0.6318 -0.6939  1.2616
 8428SOL    HW228177   2.395   5.578   5.893 -0.1175 -0.5593 -1.0635
 8429SOL     OW28178   5.929   6.888   9.406  0.0342 -0.4542  0.3356
 8429SOL    HW128179   5.975   6.896   9.323 -1.2821  1.3768 -0.2857
 8429SOL    HW228180   5.856   6.950   9.400 -0.5318 -0.7835  2.5781
 8430SOL     OW28181   9.369   3.975   4.876 -0.3290 -0.3997  0.0087
 8430SOL    HW128182   9.327   4.014   4.799 -0.5459 -0.5211  0.0637
 8430SOL    HW228183   9.441   4.035   4.897 -1.5379  0.7905  0.9843
 8431SOL     OW28184   9.182   5.876   2.844  0.2554 -0.0841 -0.1772
 8431SOL    HW128185   9.276   5.884   2.828  0.1547  0.3179 -0.6099
 8431SOL    HW228186   9.172   5.889   2.938  0.6888 -0.7073 -0.0409
 8432SOL     OW28187   0.659   7.210   5.850  0.0471  0.5326 -0.4228
 8432SOL    HW128188   0.686   7.266   5.923  0.7399 -0.4220  0.0834
 8432SOL    HW228189   0.623   7.132   5.893 -0.8473  0.5539 -1.1092
 8433SOL     OW28190   2.693   1.011   9.520 -0.3000  0.1091  0.4003
 8433SOL    HW128191   2.717   0.936   9.575 -0.0541  0.7422  1.1755
 8433SOL    HW228192   2.602   0.994   9.496 -0.5396  0.0020  1.3225
 8434SOL     OW28193   4.660   6.282   7.680 -0.1827  0.2207  0.1733
 8434SOL    HW128194   4.566   6.294   7.667 -0.8582 -2.2832  1.9820
 8434SOL    HW228195   4.684   6.349   7.744 -0.4125  1.6435 -1.1612
 8435SOL     OW28196   2.029   0.473   3.633 -0.1722  0.5891 -0.0730
 8435SOL    HW128197   1.942   0.483   3.672 -0.3709  0.4955 -0.4870
 8435SOL    HW228198   2.017   0.410   3.563  0.8125 -1.7798  1.7470
 8436SOL     OW28199   6.922   8.799   6.412 -0.0121  0.5641 -0.2627
 8436SOL    HW128200   6.878   8.764   6.335 -1.7418  1.0927  0.4433
 8436SOL    HW228201   6.862   8.865   6.447  1.2738  1.2116  0.8497
 8437SOL     OW28202   1.588   0.915   4.776 -0.2895 -0.1643  0.5206
 8437SOL    HW128203   1.546   0.946   4.857 -0.6736  1.6857 -0.3465
 8437SOL    HW228204   1.679   0.900   4.801 -0.6451 -0.7351  1.5561
 8438SOL     OW28205   7.749   1.340   7.988  0.2133  0.3818  0.1105
 8438SOL    HW128206   7.737   1.384   8.072  0.2064  1.7118 -0.5506
 8438SOL    HW228207   7.664   1.347   7.945 -0.5617 -2.5688  0.9685
 8439SOL     OW28208   5.252   3.072   0.840 -0.0969 -0.0127 -0.4249
 8439SOL    HW128209   5.256   3.015   0.763 -0.8558 -0.7629  0.0799
 8439SOL    HW228210   5.166   3.114   0.834  0.2348  0.6811 -0.4968
 8440SOL     OW28211   7.395   4.881   6.994 -0.1971  0.0320  0.3546
 8440SOL    HW128212   7.366   4.880   7.085  2.8034 -0.4180  1.4005
 8440SOL    HW228213   7.436   4.795   6.981  0.2533  0.4434 -1.1334
 8441SOL     OW28214   7.735   8.579   6.682 -0.1409  0.0566 -0.4373
 8441SOL    HW128215   7.816   8.629   6.695  0.3307 -0.6049 -0.8126
 8441SOL    HW228216   7.757   8.513   6.616 -0.3635 -1.5518  1.0362
 8442SOL     OW28217   8.262   0.629   4.477 -0.5147 -0.1028 -0.3133
 8442SOL    HW128218   8.194   0.581   4.525 -1.4169  0.5407 -0.9193
 8442SOL    HW228219   8.294   0.567   4.411  0.8759 -1.0611  1.2004
 8443SOL     OW28220   3.703   2.520   1.086 -0.9643  0.6316 -0.5404
 8443SOL    HW128221   3.753   2.602   1.089 -2.0887  1.3230  0.0571
 8443SOL    HW228222   3.756   2.462   1.030  1.9493  0.3146  2.2499
 8444SOL     OW28223   2.872   1.284   8.984  0.7311 -0.0926  0.6778
 8444SOL    HW128224   2.810   1.265   9.055  2.2205 -1.8747  1.5715
 8444SOL    HW228225   2.825   1.257   8.904 -0.8761  1.7284  0.9299
 8445SOL     OW28226   6.595   4.538   7.205  0.7576 -0.3680  0.3326
 8445SOL    HW128227   6.524   4.479   7.230  1.5112 -1.8509 -0.7789
 8445SOL    HW228228   6.658   4.531   7.276  1.3102 -1.7981 -0.2420
 8446SOL     OW28229   2.754   2.416   7.000 -0.4765 -0.0009  0.1240
 8446SOL    HW128230   2.795   2.337   7.035 -0.6944  0.4121  1.3536
 8446SOL    HW228231   2.783   2.420   6.908 -1.3825 -2.1074 -0.3025
 8447SOL     OW28232   2.740   2.509   9.548 -0.1746 -0.3389  0.5691
 8447SOL    HW128233   2.718   2.466   9.465 -0.4843  3.0165 -1.2490
 8447SOL    HW228234   2.656   2.531   9.587 -0.0765  1.2121 -0.0395
 8448SOL     OW28235   5.566   4.727   0.260 -0.8106  0.1219  0.5119
 8448SOL    HW128236   5.484   4.728   0.209 -0.1693 -1.7111 -0.6926
 8448SOL    HW228237   5.634   4.749   0.196 -0.3361  1.5753  1.4905
 8449SOL     OW28238   4.635   0.858   5.333  0.5648 -0.7076 -0.1663
 8449SOL    HW128239   4.625   0.914   5.256 -0.5834  0.3109  0.6691
 8449SOL    HW228240   4.701   0.902   5.387  0.0174 -0.3916  0.2648
 8450SOL     OW28241   0.519   0.004   2.949 -0.1345 -0.4661 -0.0029
 8450SOL    HW128242   0.548   0.056   2.874 -0.8055 -2.9897 -2.1470
 8450SOL    HW228243   0.597  -0.043   2.978  0.3042  1.0792  1.4656
 8451SOL     OW28244   4.104   8.199   7.463 -0.4146 -0.4741  0.6414
 8451SOL    HW128245   4.033   8.262   7.471 -0.4284 -0.1559 -1.4994
 8451SOL    HW228246   4.180   8.252   7.438 -0.4101 -1.2540 -1.1365
 8452SOL     OW28247   3.929   2.872   9.354  0.0849 -0.0012 -0.0860
 8452SOL    HW128248   3.849   2.822   9.338  0.3391 -0.1412 -0.9825
 8452SOL    HW228249   3.954   2.850   9.443 -0.6161 -0.3242  0.0357
 8453SOL     OW28250   3.510   1.720   5.806  0.4258  0.0989 -0.0024
 8453SOL    HW128251   3.436   1.661   5.790  0.9484 -1.0802  1.5904
 8453SOL    HW228252   3.474   1.808   5.797 -0.3233 -0.4032 -2.7062
 8454SOL     OW28253   0.032   6.564   4.174  0.1855 -0.2393  0.1820
 8454SOL    HW128254   0.077   6.637   4.217 -0.4095 -0.5541  1.3871
 8454SOL    HW228255   0.044   6.490   4.234 -2.0756 -0.2874  0.6416
 8455SOL     OW28256   0.724   8.920   6.987 -0.1662  0.5947 -0.0273
 8455SOL    HW128257   0.781   8.994   6.970 -1.1543  1.8281  1.7514
 8455SOL    HW228258   0.695   8.891   6.900  2.3254  0.5298 -0.9049
 8456SOL     OW28259   1.653   0.051   7.581  0.2521 -0.3081 -0.0064
 8456SOL    HW128260   1.680  -0.037   7.607 -0.3843 -0.2383  0.9399
 8456SOL    HW228261   1.600   0.037   7.502 -1.1282 -0.9497  0.9914
 8457SOL     OW28262   7.705   1.091   2.544 -0.1821 -0.1891  0.3464
 8457SOL    HW128263   7.644   1.018   2.538 -0.8502  0.2678  1.3547
 8457SOL    HW228264   7.723   1.115   2.453  0.2169 -1.7316 -0.0042
 8458SOL     OW28265   8.852   6.022   3.187  0.1907  0.3216  0.2444
 8458SOL    HW128266   8.829   5.995   3.276 -2.2078 -0.8378 -0.6369
 8458SOL    HW228267   8.800   6.100   3.171  0.8048  0.6769 -0.0810
 8459SOL     OW28268   6.046   1.049   6.029  0.0435  0.0479 -0.5160
 8459SOL    HW128269   6.085   0.967   5.999  0.2670  0.5529 -1.6742
 8459SOL    HW228270   5.976   1.021   6.088 -1.3391 -1.1266 -2.5568
 8460SOL     OW28271   3.504   2.075   5.513  0.0266  0.5577  0.0217
 8460SOL    HW128272   3.424   2.093   5.564 -1.5582 -0.7739 -1.8482
 8460SOL    HW228273   3.548   2.005   5.561 -0.8010  0.1678  0.2247
 8461SOL     OW28274   5.292   5.044   8.214  0.0227 -0.2109 -0.0943
 8461SOL    HW128275   5.305   4.967   8.158 -3.2566 -1.1951  0.2650
 8461SOL    HW228276   5.316   5.118   8.159 -0.2279 -1.3094 -1.7632
 8462SOL     OW28277   7.752   4.462   5.359  0.0901 -0.3112 -0.2990
 8462SOL    HW128278   7.839   4.467   5.318  1.0311 -0.1135  1.6064
 8462SOL    HW228279   7.693   4.437   5.288  1.9072 -1.7153 -1.3942
 8463SOL     OW28280   3.233   5.725   1.580  0.0559  1.0353  0.1413
 8463SOL    HW128281   3.291   5.777   1.635 -0.1378  1.7902 -0.3589
 8463SOL    HW228282   3.255   5.634   1.602  0.7573  1.3164  0.6457
 8464SOL     OW28283   9.193   3.621   8.310 -0.0812  0.0545  0.0838
 8464SOL    HW128284   9.110   3.663   8.286 -0.2765 -1.0610 -1.3340
 8464SOL    HW228285   9.172   3.570   8.388 -0.4365  0.6688  0.3995
 8465SOL     OW28286   1.650   2.482   4.492 -0.1693  0.0821 -0.2839
 8465SOL    HW128287   1.603   2.547   4.439 -2.2091 -1.3451 -0.3601
 8465SOL    HW228288   1.684   2.419   4.428 -0.7279 -0.4473 -0.0818
 8466SOL     OW28289   1.873   4.022   5.842 -0.1118 -0.5420 -0.5806
 8466SOL    HW128290   1.790   3.974   5.838 -0.5359  0.0283  0.7381
 8466SOL    HW228291   1.898   4.035   5.750 -2.5245  1.0633 -1.0896
 8467SOL     OW28292   1.127   3.276   1.414  0.1454 -0.3166  0.0333
 8467SOL    HW128293   1.219   3.300   1.430  0.0689  2.0443 -2.4034
 8467SOL    HW228294   1.130   3.222   1.336 -0.5007 -0.7332  0.2933
 8468SOL     OW28295   0.162   5.166   6.443 -0.8124 -0.0175 -0.6834
 8468SOL    HW128296   0.169   5.071   6.456 -1.1861 -0.3391 -2.5116
 8468SOL    HW228297   0.252   5.194   6.427 -0.6440  0.0286  0.2770
 8469SOL     OW28298   1.265   1.472   9.256 -0.4081  0.0681  0.2245
 8469SOL    HW128299   1.254   1.448   9.348  0.2090 -0.9473  0.0546
 8469SOL    HW228300   1.350   1.515   9.253 -1.3469  2.0145  0.4605
 8470SOL     OW28301   1.140   4.854   6.213  0.2647 -0.4542  0.5060
 8470SOL    HW128302   1.055   4.820   6.241 -0.2975  0.9051  0.5269
 8470SOL    HW228303   1.204   4.796   6.254 -0.6050 -0.1136  2.4752
 8471SOL     OW28304   7.523   1.760   4.967 -0.0950 -0.4442 -0.8079
 8471SOL    HW128305   7.510   1.767   5.062 -1.8650  0.3109 -1.0808
 8471SOL    HW228306   7.542   1.667   4.953 -0.5427 -0.7078  0.2045
 8472SOL     OW28307   2.865   2.720   7.371  0.7837 -0.3643 -0.7207
 8472SOL    HW128308   2.913   2.724   7.454  0.3685 -0.6546 -0.4646
 8472SOL    HW228309   2.909   2.651   7.321  0.3242 -0.9838 -0.2821
 8473SOL     OW28310   1.633   1.414   3.502  0.0116  0.5101 -0.0574
 8473SOL    HW128311   1.555   1.358   3.510  0.6986 -0.4291  0.1577
 8473SOL    HW228312   1.683   1.376   3.431  0.6762  0.6276  0.3422
 8474SOL     OW28313   1.053   0.819   8.371  0.1148  0.1408 -0.8622
 8474SOL    HW128314   1.090   0.766   8.300 -0.5148  0.8180 -1.7242
 8474SOL    HW228315   1.031   0.902   8.329  0.5369  0.8758  0.3360
 8475SOL     OW28316   1.458   0.427   6.824  0.3464 -0.2159 -0.2735
 8475SOL    HW128317   1.384   0.412   6.765 -0.3914 -1.1006  0.8424
 8475SOL    HW228318   1.446   0.364   6.895  2.2751 -0.5096 -0.1440
 8476SOL     OW28319   2.775   0.228   7.925  0.1653  0.7130  0.2944
 8476SOL    HW128320   2.709   0.289   7.956 -0.9104 -0.8342  1.1516
 8476SOL    HW228321   2.725   0.158   7.882  1.2606 -0.2702  0.5675
 8477SOL     OW28322   0.320   6.576   1.817  0.3109 -0.0390  0.0282
 8477SOL    HW128323   0.381   6.646   1.792 -0.0665  0.8295  1.4342
 8477SOL    HW228324   0.311   6.522   1.738  0.3607  1.6831 -1.2007
 8478SOL     OW28325   4.075   3.396   8.450 -0.4090 -0.0719 -0.2238
 8478SOL    HW128326   4.164   3.397   8.484 -0.8229  2.8269  1.0438
 8478SOL    HW228327   4.041   3.310   8.474  0.9518  0.0169  2.4136
 8479SOL     OW28328   0.194   7.173   1.369  0.1118  0.0772  0.0810
 8479SOL    HW128329   0.283   7.139   1.385  0.0879  0.5603  1.4008
 8479SOL    HW228330   0.201   7.223   1.288  1.5776  1.8301  1.2094
 8480SOL     OW28331   2.038   1.298   3.056 -0.6270  0.3775 -0.0189
 8480SOL    HW128332   1.999   1.320   2.971 -0.3947  1.4633  0.1452
 8480SOL    HW228333   2.128   1.329   3.050  0.1224 -1.6752 -0.2134
 8481SOL     OW28334   8.213   1.675   1.716 -0.1350 -0.1404  0.6218
 8481SOL    HW128335   8.248   1.603   1.662 -0.2413  0.0243  0.3338
 8481SOL    HW228336   8.288   1.734   1.728 -0.0677 -0.2592  0.7960
 8482SOL     OW28337   6.031   3.929   4.320  0.2273 -0.6370  0.3404
 8482SOL    HW128338   6.117   3.950   4.283 -0.2048 -0.8839 -0.8200
 8482SOL    HW228339   6.001   3.852   4.271 -0.1421 -1.3009  1.5567
 8483SOL     OW28340   8.106   6.500   2.910  0.4471 -0.5911  0.9197
 8483SOL    HW128341   8.199   6.499   2.887  0.1755 -0.7072 -0.1955
 8483SOL    HW228342   8.099   6.440   2.985  1.4268  0.2269  1.6984
 8484SOL     OW28343   3.029   1.330   0.745 -0.3202 -0.0729 -0.0913
 8484SOL    HW128344   3.017   1.236   0.758 -1.0640 -0.1631 -1.3260
 8484SOL    HW228345   2.979   1.371   0.816  0.8136 -0.6013  1.0460
 8485SOL     OW28346   6.750   5.899   9.296  0.0715  0.1344 -0.1804
 8485SOL    HW128347   6.701   5.916   9.215 -1.4616  0.1043  0.6997
 8485SOL    HW228348   6.842   5.896   9.268 -0.3473  0.9122 -1.7868
 8486SOL     OW28349   8.626   5.026   0.848  0.1739  0.3023 -0.1848
 8486SOL    HW128350   8.686   4.974   0.900 -0.1164  1.0857  0.9649
 8486SOL    HW228351   8.682   5.072   0.785  0.4894 -0.8944 -0.8156
 8487SOL     OW28352   6.840   2.398   9.286  0.6261  0.4041 -0.0095
 8487SOL    HW128353   6.851   2.388   9.191  0.0895 -0.4285  0.0063
 8487SOL    HW228354   6.774   2.334   9.309  0.2965  1.0336  0.8442
 8488SOL     OW28355   4.746   8.294   5.393  0.0207  0.2312 -0.3057
 8488SOL    HW128356   4.805   8.218   5.396  2.4948  2.0003 -1.1945
 8488SOL    HW228357   4.665   8.259   5.358  0.7201 -2.1930  0.2592
 8489SOL     OW28358   3.667   7.147   4.426 -0.4957 -0.2632  0.3528
 8489SOL    HW128359   3.715   7.202   4.488 -1.1347 -0.4982  1.0693
 8489SOL    HW228360   3.659   7.202   4.347 -0.7636  0.5233  0.9093
 8490SOL     OW28361   6.562   8.766   2.123  0.4186  0.0518  0.6358
 8490SOL    HW128362   6.472   8.798   2.130 -0.0052 -1.1121  0.7194
 8490SOL    HW228363   6.553   8.672   2.110  1.4993  0.2573 -2.7681
 8491SOL     OW28364   4.797   3.221   9.631  0.4456 -0.2299  0.2018
 8491SOL    HW128365   4.821   3.232   9.539 -0.0637 -1.1678 -0.0576
 8491SOL    HW228366   4.769   3.130   9.638 -0.0411 -0.0252  1.1754
 8492SOL     OW28367   4.382   2.141   3.528 -0.0897  0.5056  0.0206
 8492SOL    HW128368   4.430   2.110   3.605 -0.0696  3.0882  1.1515
 8492SOL    HW228369   4.443   2.130   3.455  0.1203 -1.3940  0.4245
 8493SOL     OW28370   4.940   0.473   8.971  0.0972  0.6967  0.0920
 8493SOL    HW128371   4.997   0.472   9.048 -0.3526 -1.9140  0.4677
 8493SOL    HW228372   4.995   0.438   8.900 -0.5830 -0.5350  0.1434
 8494SOL     OW28373   8.308   7.547   3.561  0.5943  0.1870 -0.1643
 8494SOL    HW128374   8.357   7.527   3.481  1.2172  0.8328  0.0555
 8494SOL    HW228375   8.303   7.463   3.607 -1.7561 -0.7627 -1.9190
 8495SOL     OW28376   5.869   1.751   3.265 -0.3941  0.2660 -0.0826
 8495SOL    HW128377   5.919   1.756   3.346 -0.1526  1.3277 -0.2890
 8495SOL    HW228378   5.801   1.686   3.283  0.4477 -0.4840  0.5283
 8496SOL     OW28379   6.700   3.156   7.165 -0.4118 -0.2423  0.5096
 8496SOL    HW128380   6.608   3.180   7.162  0.0003  1.6944  1.6432
 8496SOL    HW228381   6.746   3.231   7.126  0.7444 -0.8570  0.6284
 8497SOL     OW28382   3.607   7.759   5.927 -0.2075 -0.0590  0.2252
 8497SOL    HW128383   3.662   7.686   5.956 -1.5951 -0.4998  1.9164
 8497SOL    HW228384   3.568   7.794   6.007 -2.4961  0.1015 -0.8728
 8498SOL     OW28385   9.532   1.864   3.549  0.1024 -0.0110 -0.1071
 8498SOL    HW128386   9.566   1.935   3.604 -0.1748  1.0129 -1.1973
 8498SOL    HW228387   9.468   1.819   3.604  1.4143 -0.4152  1.1372
 8499SOL     OW28388   2.071   2.312   2.148 -0.2163 -0.0174  0.0814
 8499SOL    HW128389   2.012   2.251   2.191 -0.0054  0.7145  1.4601
 8499SOL    HW228390   2.054   2.299   2.054 -0.7339 -1.6023  0.3550
 8500SOL     OW28391   9.368   5.894   5.159  0.2012  0.0881 -0.3634
 8500SOL    HW128392   9.340   5.865   5.246  0.5310 -0.1739 -0.3416
 8500SOL    HW228393   9.406   5.980   5.174 -1.6211  0.9812 -0.5683
 8501SOL     OW28394   0.975   0.417   3.599 -0.4484 -0.4422  0.4479
 8501SOL    HW128395   1.033   0.348   3.631 -0.1191 -1.2056 -1.5946
 8501SOL    HW228396   0.991   0.491   3.657  1.2453 -1.2101  1.0210
 8502SOL     OW28397   6.997   0.841   5.132  0.8733 -0.3534 -0.1875
 8502SOL    HW128398   7.001   0.786   5.210 -0.7564  1.1696  1.0388
 8502SOL    HW228399   7.072   0.900   5.141 -0.7886  1.6116  1.7238
 8503SOL     OW28400   1.076   3.790   8.566 -0.6826  0.2562  0.8839
 8503SOL    HW128401   0.992   3.768   8.607 -1.0612  0.9215  0.4839
 8503SOL    HW228402   1.066   3.881   8.538 -0.1020  0.1066  0.1559
 8504SOL     OW28403   3.401   9.326   1.466 -0.1382  0.2091 -0.7359
 8504SOL    HW128404   3.306   9.333   1.466 -0.0758  1.4440  0.1575
 8504SOL    HW228405   3.429   9.382   1.538  1.2562 -0.3496 -0.8100
 8505SOL     OW28406   8.148   1.412   9.120 -0.3693  0.0938  0.2949
 8505SOL    HW128407   8.166   1.319   9.105  0.1310 -0.0490  1.6699
 8505SOL    HW228408   8.076   1.432   9.060 -0.7234 -1.2684  0.2341
 8506SOL     OW28409   5.278   1.840   8.708 -0.5350  0.5856  0.3091
 8506SOL    HW128410   5.329   1.759   8.705 -1.8844 -0.3204  1.0149
 8506SOL    HW228411   5.205   1.821   8.767 -1.8913  1.7312 -0.9242
 8507SOL     OW28412   2.886   2.078   2.867  0.6576 -0.2879 -0.4520
 8507SOL    HW128413   2.833   2.000   2.883  0.9262 -0.3944 -0.0740
 8507SOL    HW228414   2.823   2.149   2.856  0.4595 -0.2741  0.7367
 8508SOL     OW28415   8.542   7.717   1.019  0.2387  0.6403  0.0422
 8508SOL    HW128416   8.604   7.645   1.028 -0.8497 -0.3101  0.1802
 8508SOL    HW228417   8.597   7.794   1.000  1.4425 -0.1496  0.2106
 8509SOL     OW28418   2.370   6.952   2.034 -0.1938  0.8508 -0.4406
 8509SOL    HW128419   2.385   6.932   2.126  0.8697 -0.2091 -0.8120
 8509SOL    HW228420   2.314   6.881   2.003 -0.0576  0.8742 -0.7471
 8510SOL     OW28421   5.561   3.485   1.534 -0.8418 -0.2116 -0.0883
 8510SOL    HW128422   5.566   3.577   1.558 -0.3313 -1.0019  3.3045
 8510SOL    HW228423   5.467   3.469   1.521 -0.8443  0.9597 -1.8801
 8511SOL     OW28424   2.427   4.787   0.670 -0.2035 -0.0052 -0.2969
 8511SOL    HW128425   2.408   4.830   0.586  1.9813  0.5468 -0.5671
 8511SOL    HW228426   2.459   4.700   0.647  1.3681  0.5023 -0.1364
 8512SOL     OW28427   1.649   8.923   3.736 -0.5709  0.0099 -0.5556
 8512SOL    HW128428   1.744   8.937   3.743 -0.6470  1.1585 -1.4056
 8512SOL    HW228429   1.629   8.859   3.804  0.7704 -0.0317 -0.1649
 8513SOL     OW28430   1.712   9.026   0.088 -0.4506  0.2680 -0.2821
 8513SOL    HW128431   1.776   8.972   0.042 -1.1360 -0.9145  0.1116
 8513SOL    HW228432   1.764   9.084   0.143  0.3027 -1.6515  1.1407
 8514SOL     OW28433   0.982   2.807   3.184  0.4318  0.6863  0.2149
 8514SOL    HW128434   0.938   2.744   3.126  0.6879  1.7800 -1.2322
 8514SOL    HW228435   0.910   2.853   3.228  0.0568  1.9677 -1.5982
 8515SOL     OW28436   6.597   8.769   7.485  0.1298 -0.2690  0.1257
 8515SOL    HW128437   6.527   8.822   7.446  1.4657  0.4478 -1.3991
 8515SOL    HW228438   6.662   8.760   7.415  1.4888 -1.0633  1.4413
 8516SOL     OW28439   6.790   7.708   3.902 -0.0737 -0.6424 -0.0475
 8516SOL    HW128440   6.746   7.782   3.945 -0.7429 -1.0020 -0.1082
 8516SOL    HW228441   6.749   7.630   3.939 -0.3088 -0.9672 -0.9498
 8517SOL     OW28442   2.635   1.539   5.567  0.1118 -0.1620  0.1514
 8517SOL    HW128443   2.680   1.533   5.483  1.6568  1.5487  0.7900
 8517SOL    HW228444   2.673   1.469   5.620 -0.6914 -1.0857 -0.4537
 8518SOL     OW28445   4.100   7.526   2.582  0.1805 -0.4363 -0.3017
 8518SOL    HW128446   4.082   7.551   2.491  0.9804 -0.5505 -0.4980
 8518SOL    HW228447   4.155   7.448   2.575  2.9708  1.3449  0.2087
 8519SOL     OW28448   2.358   4.342   7.449 -0.2743  0.3719  0.5497
 8519SOL    HW128449   2.294   4.334   7.378 -0.8579 -1.1929  1.2079
 8519SOL    HW228450   2.438   4.373   7.406 -0.1470 -1.9978 -1.1119
 8520SOL     OW28451   6.360   2.813   7.325  0.3062  0.6118  0.1443
 8520SOL    HW128452   6.414   2.890   7.341 -1.1066  2.2854 -2.4369
 8520SOL    HW228453   6.331   2.822   7.234  0.2365 -3.1260 -0.3733
 8521SOL     OW28454   8.985   3.438   8.855  0.1526 -0.4156  0.3909
 8521SOL    HW128455   8.969   3.530   8.836 -0.6684 -0.7028 -0.4082
 8521SOL    HW228456   8.916   3.392   8.806 -0.0461 -1.3920  1.5533
 8522SOL     OW28457   4.018   3.188   3.724  0.0546 -1.0078 -0.3135
 8522SOL    HW128458   4.010   3.256   3.791 -1.3102  0.7805 -2.1706
 8522SOL    HW228459   4.104   3.203   3.685  0.1844 -1.0100 -0.0289
 8523SOL     OW28460   9.606   3.985   0.357 -0.0784 -0.1230 -0.3147
 8523SOL    HW128461   9.544   3.943   0.416 -0.1666  0.3502 -0.0737
 8523SOL    HW228462   9.685   3.931   0.363  0.0986  0.2328  0.6493
 8524SOL     OW28463   0.290   5.466   1.787  0.4214 -0.3255  0.7033
 8524SOL    HW128464   0.214   5.488   1.734  1.1259  0.0882 -0.1783
 8524SOL    HW228465   0.267   5.493   1.876  0.2954  1.7234  0.1036
 8525SOL     OW28466   1.720   7.920   8.313 -0.0119  0.5881  0.1394
 8525SOL    HW128467   1.633   7.943   8.345  0.5009  2.0423  0.6076
 8525SOL    HW228468   1.718   7.941   8.220 -0.1367  0.7274  0.1731
 8526SOL     OW28469   7.813   1.281   4.935  0.3916 -0.0042 -0.0441
 8526SOL    HW128470   7.785   1.219   4.868  1.0460  0.4235 -0.7343
 8526SOL    HW228471   7.848   1.226   5.006 -0.4169 -0.4628  0.0140
 8527SOL     OW28472   2.518   2.365   5.609 -0.0394  0.6091  0.1854
 8527SOL    HW128473   2.610   2.383   5.585  0.0024  1.0502  0.6596
 8527SOL    HW228474   2.467   2.409   5.541  0.0774  1.9991  0.9495
 8528SOL     OW28475   3.153   8.870   8.884  0.2054  0.1549  0.3104
 8528SOL    HW128476   3.147   8.776   8.900  0.6100 -0.6567 -3.4308
 8528SOL    HW228477   3.241   8.894   8.914  1.1264 -1.3000 -1.0422
 8529SOL     OW28478   6.735   6.395   7.729 -0.4155  0.2367  0.0441
 8529SOL    HW128479   6.642   6.418   7.727 -0.6629 -0.6913 -0.0262
 8529SOL    HW228480   6.751   6.355   7.643  0.0584  0.4150  0.0480
 8530SOL     OW28481   3.880   0.070   1.663 -0.0796  0.4819  0.4326
 8530SOL    HW128482   3.849   0.159   1.647  0.8630  1.0737  1.6634
 8530SOL    HW228483   3.902   0.069   1.756 -0.0192 -1.0334  0.4264
 8531SOL     OW28484   2.160   5.838   4.528  0.3846 -0.3491  0.1113
 8531SOL    HW128485   2.234   5.786   4.557 -0.1867 -1.7351 -0.8249
 8531SOL    HW228486   2.103   5.844   4.604  0.5525 -0.9245  0.2864
 8532SOL     OW28487   3.016   1.306   8.111  0.0860  0.2442  0.1659
 8532SOL    HW128488   2.960   1.363   8.059 -0.5028  0.2776  0.8214
 8532SOL    HW228489   3.102   1.313   8.070 -0.4135  0.0842 -0.9448
 8533SOL     OW28490   2.879   6.796   4.594  0.7021  0.0100  0.1101
 8533SOL    HW128491   2.925   6.716   4.619  0.3556  0.1827  1.3735
 8533SOL    HW228492   2.894   6.804   4.500  0.6093 -1.6345 -0.0822
 8534SOL     OW28493   6.124   7.841   1.546 -0.5762  0.5450 -0.0297
 8534SOL    HW128494   6.068   7.772   1.582 -3.0366  1.5017 -1.7210
 8534SOL    HW228495   6.142   7.812   1.456  3.4711 -0.6794  0.9585
 8535SOL     OW28496   1.145   8.192   9.513  0.6712 -0.3779  0.0849
 8535SOL    HW128497   1.187   8.271   9.546  0.4417 -0.6315  1.0097
 8535SOL    HW228498   1.051   8.209   9.521  0.6154 -1.1628  1.3573
 8536SOL     OW28499   4.815   1.366   6.378  0.1014 -0.5003  0.3033
 8536SOL    HW128500   4.783   1.412   6.300 -2.2664 -0.7539  1.0269
 8536SOL    HW228501   4.836   1.436   6.440  2.6572 -0.2729 -0.7262
 8537SOL     OW28502   2.835   9.441   1.773  0.0380  0.0938 -0.1024
 8537SOL    HW128503   2.751   9.482   1.751  0.0066 -0.7965 -1.7608
 8537SOL    HW228504   2.901   9.504   1.742  0.0746  1.4792  2.4911
 8538SOL     OW28505   9.193   4.794   4.232  0.8435 -0.1439 -0.0613
 8538SOL    HW128506   9.206   4.740   4.310 -0.2720  0.4197  0.5477
 8538SOL    HW228507   9.099   4.815   4.234  0.6043 -0.8358 -2.0248
 8539SOL     OW28508   1.064   2.061   8.512  0.3407  0.1808 -0.1672
 8539SOL    HW128509   1.031   2.112   8.586  0.2799 -0.2141  0.0809
 8539SOL    HW228510   1.113   1.989   8.552 -1.9641 -1.6256 -0.3921
 8540SOL     OW28511   5.078   1.372   5.846  0.8034 -0.1633  0.8145
 8540SOL    HW128512   5.076   1.285   5.885  0.3140  0.4647  2.2639
 8540SOL    HW228513   5.165   1.406   5.869  1.1267 -0.3930 -0.0484
 8541SOL     OW28514   8.447   3.585   7.795 -0.4866 -0.2899 -0.6263
 8541SOL    HW128515   8.421   3.667   7.835 -2.7223 -0.3071 -1.8702
 8541SOL    HW228516   8.385   3.521   7.829  1.6806 -1.7130  0.9259
 8542SOL     OW28517   6.235   3.335   4.453  0.1560 -0.6208  0.2432
 8542SOL    HW128518   6.255   3.351   4.545  0.1230 -2.8517  0.7029
 8542SOL    HW228519   6.321   3.334   4.409  0.1123  1.2835  0.0602
 8543SOL     OW28520   8.331   8.282   5.303 -0.5487  0.0021  0.0992
 8543SOL    HW128521   8.412   8.310   5.344 -0.0585 -1.3126  0.0883
 8543SOL    HW228522   8.346   8.190   5.281 -1.8521 -0.1186 -0.3801
 8544SOL     OW28523   5.540   6.811   2.690  0.1293  0.7695  0.2850
 8544SOL    HW128524   5.587   6.887   2.725  0.0598 -0.0283  2.1847
 8544SOL    HW228525   5.521   6.836   2.599  1.9202  2.1636  0.2206
 8545SOL     OW28526   8.807   5.763   8.834  0.1298 -0.3336  0.2937
 8545SOL    HW128527   8.814   5.750   8.740 -2.7690  3.4014 -0.6677
 8545SOL    HW228528   8.764   5.684   8.866  1.9387 -2.0482 -1.2798
 8546SOL     OW28529   1.504   4.678   6.722 -0.6765 -0.0431  0.2535
 8546SOL    HW128530   1.586   4.628   6.726 -1.0882 -0.6897  0.8571
 8546SOL    HW228531   1.494   4.701   6.630 -0.1953 -0.6020  0.0563
 8547SOL     OW28532   7.510   5.250   5.640 -0.3723  1.2201  0.5735
 8547SOL    HW128533   7.496   5.228   5.732 -0.0421 -2.8159 -0.1618
 8547SOL    HW228534   7.583   5.313   5.641 -0.6305  1.5736  3.0404
 8548SOL     OW28535   8.178   7.779   5.047 -0.1998  0.1907  0.1969
 8548SOL    HW128536   8.253   7.719   5.038 -0.5198 -0.0985 -0.7564
 8548SOL    HW228537   8.184   7.811   5.136  1.2217  0.3852  0.0652
 8549SOL     OW28538   1.202   5.012   7.356 -0.4356  0.3084  0.3449
 8549SOL    HW128539   1.201   5.088   7.298 -0.1821 -1.0931 -1.5815
 8549SOL    HW228540   1.134   4.954   7.321  0.2193 -0.8886  1.0000
 8550SOL     OW28541   6.979   0.171   3.668  0.0818 -0.1514 -0.6250
 8550SOL    HW128542   6.900   0.128   3.637  0.1709 -0.6668 -0.1482
 8550SOL    HW228543   6.947   0.250   3.713 -0.0845  0.2406 -1.4104
 8551SOL     OW28544   0.707   2.843   7.656 -0.3055  0.1966  0.9268
 8551SOL    HW128545   0.781   2.865   7.713  0.1218  3.0285 -0.5146
 8551SOL    HW228546   0.630   2.848   7.712 -0.0194  3.9291  1.2083
 8552SOL     OW28547   6.335   2.922   8.893 -0.0918 -0.1991 -0.4318
 8552SOL    HW128548   6.335   2.862   8.968  0.7102  1.7759  1.2472
 8552SOL    HW228549   6.260   2.978   8.907  0.4650  0.6405 -0.7161
 8553SOL     OW28550   8.568   0.128   0.401  0.4472  0.2442  0.3771
 8553SOL    HW128551   8.553   0.201   0.341 -0.1383  0.3147  0.6055
 8553SOL    HW228552   8.618   0.166   0.473 -2.0355  1.0757  1.7895
 8554SOL     OW28553   8.078   7.432   1.231  0.7557 -0.2219 -0.3580
 8554SOL    HW128554   7.990   7.410   1.199  0.6931  1.8818 -1.8773
 8554SOL    HW228555   8.072   7.525   1.252  2.4312 -0.2441  0.3226
 8555SOL     OW28556   6.557   0.183   2.805  0.0579  0.4396 -0.0551
 8555SOL    HW128557   6.553   0.252   2.739  0.1086 -1.4092 -2.0864
 8555SOL    HW228558   6.632   0.207   2.860  1.0195  1.2126 -1.6382
 8556SOL     OW28559   4.899   2.609   1.431  0.6441  0.6895 -0.2495
 8556SOL    HW128560   4.880   2.664   1.507  0.7632  0.1278  0.1979
 8556SOL    HW228561   4.858   2.654   1.357  1.4919  1.8487 -0.0533
 8557SOL     OW28562   6.467   2.101   7.837  0.2602 -0.5102 -0.1155
 8557SOL    HW128563   6.515   2.106   7.755  0.3563  3.3365  0.0116
 8557SOL    HW228564   6.382   2.065   7.813  0.3991  0.2603 -1.8507
 8558SOL     OW28565   2.071   2.299   5.525  0.1894  0.1062  0.7443
 8558SOL    HW128566   2.137   2.332   5.586  0.3615 -0.3216  0.7917
 8558SOL    HW228567   2.071   2.204   5.539 -0.0346  0.0472  0.3437
 8559SOL     OW28568   8.215   0.791   7.219  0.4904  0.1154 -0.1242
 8559SOL    HW128569   8.171   0.861   7.169  1.2134  1.8670  1.5788
 8559SOL    HW228570   8.144   0.747   7.265 -0.0789 -0.9210 -1.8684
 8560SOL     OW28571   8.593   5.245   6.658 -0.2134 -0.0354 -0.0780
 8560SOL    HW128572   8.647   5.193   6.717 -0.4829 -1.9259 -1.4111
 8560SOL    HW228573   8.509   5.254   6.704 -0.4917 -1.6677 -0.1905
 8561SOL     OW28574   8.465   0.664   7.232 -0.5491  0.3191  0.1025
 8561SOL    HW128575   8.377   0.671   7.194 -1.1596  0.6599  1.5007
 8561SOL    HW228576   8.482   0.751   7.268  0.2146  0.1472  0.1759
 8562SOL     OW28577   5.898   9.079   3.734  0.1139 -0.5071 -0.2828
 8562SOL    HW128578   5.847   9.097   3.655 -1.6233  1.4773  1.2030
 8562SOL    HW228579   5.917   9.165   3.772 -0.1223 -1.4032  2.0596
 8563SOL     OW28580   5.992   8.796   9.377  0.1307 -0.3922 -0.1138
 8563SOL    HW128581   5.928   8.763   9.440 -1.1014 -0.7833 -1.4998
 8563SOL    HW228582   6.044   8.719   9.354  0.8628 -0.1603  0.7049
 8564SOL     OW28583   0.299   2.527   6.764 -0.1873  0.3644  0.4368
 8564SOL    HW128584   0.311   2.620   6.786  0.7819  0.6618 -1.1143
 8564SOL    HW228585   0.237   2.528   6.691 -1.2250 -0.3463  1.2772
 8565SOL     OW28586   3.140   8.450   9.420 -0.3480 -0.2686  0.1983
 8565SOL    HW128587   3.081   8.390   9.375 -1.6937  0.7522  0.5618
 8565SOL    HW228588   3.083   8.505   9.473  0.6507  2.3584 -1.2749
 8566SOL     OW28589   1.677   2.203   1.826  0.0173 -0.6112 -0.2710
 8566SOL    HW128590   1.753   2.149   1.849  0.3416 -0.7347 -1.5520
 8566SOL    HW228591   1.640   2.229   1.910  1.6178 -0.3459  0.3935
 8567SOL     OW28592   6.878   7.930   2.971  0.2190  0.7655 -0.2990
 8567SOL    HW128593   6.819   7.980   3.028  1.2300  0.2254  1.2944
 8567SOL    HW228594   6.926   7.873   3.031 -1.7566 -3.1433 -2.0766
 8568SOL     OW28595   1.772   4.537   4.315 -0.1042  0.2746 -0.2310
 8568SOL    HW128596   1.758   4.444   4.335  1.9648 -0.0022  0.1906
 8568SOL    HW228597   1.781   4.579   4.400  2.8150  0.1253 -0.3642
 8569SOL     OW28598   8.373   4.847   2.168 -0.1151 -0.1787 -0.0140
 8569SOL    HW128599   8.431   4.831   2.243  1.3846 -2.3372 -1.5329
 8569SOL    HW228600   8.298   4.790   2.183 -0.0538 -0.2292  0.0983
 8570SOL     OW28601   2.607   7.783   0.141  0.0926 -0.3349 -0.2309
 8570SOL    HW128602   2.680   7.839   0.116  1.0072 -1.8397 -1.0921
 8570SOL    HW228603   2.542   7.843   0.179  1.6551  1.0662  0.3385
 8571SOL     OW28604   6.922   7.746   6.308 -0.3793 -0.4060  0.2794
 8571SOL    HW128605   6.957   7.796   6.234 -0.4277  0.8240  1.0568
 8571SOL    HW228606   6.997   7.734   6.366 -0.8380  0.8841  1.2125
 8572SOL     OW28607   4.666   8.648   8.213  0.0845  0.3020  0.0431
 8572SOL    HW128608   4.617   8.731   8.209  0.3450  0.4813  0.4789
 8572SOL    HW228609   4.619   8.590   8.153 -1.3344  0.1325  1.2548
 8573SOL     OW28610   0.992   2.182   4.485 -0.1365 -0.3152  0.4435
 8573SOL    HW128611   0.918   2.123   4.474 -0.0349 -0.0836 -2.0869
 8573SOL    HW228612   0.955   2.260   4.526 -0.5743 -1.4222  2.3136
 8574SOL     OW28613   6.723   1.178   6.118 -0.6779  0.1707  0.1694
 8574SOL    HW128614   6.745   1.123   6.042  0.2013 -0.9657  1.2143
 8574SOL    HW228615   6.806   1.218   6.143 -1.4620  2.8950 -1.1965
 8575SOL     OW28616   2.500   2.108   7.817  0.1463  0.6959 -0.1934
 8575SOL    HW128617   2.540   2.151   7.892  1.6049 -0.5730 -0.1924
 8575SOL    HW228618   2.564   2.120   7.746 -0.5212  0.5848 -0.8247
 8576SOL     OW28619   7.467   4.145   4.470  0.0014 -0.6231  0.2539
 8576SOL    HW128620   7.506   4.223   4.509  0.7791 -0.9239  0.0999
 8576SOL    HW228621   7.373   4.162   4.470  0.0905 -0.0849  1.0832
 8577SOL     OW28622   6.524   1.563   0.165 -0.5396 -0.0494  0.0147
 8577SOL    HW128623   6.442   1.521   0.193 -0.7842 -0.2855 -1.0247
 8577SOL    HW228624   6.578   1.565   0.244 -0.6731 -1.9854  0.1904
 8578SOL     OW28625   5.485   1.241   1.173  0.2756 -0.2268 -0.4602
 8578SOL    HW128626   5.555   1.176   1.180  0.1781 -0.2593  0.3355
 8578SOL    HW228627   5.453   1.251   1.263 -1.5414 -1.0592 -0.9928
 8579SOL     OW28628   6.757   7.359   1.801 -1.1746 -0.4449  0.4575
 8579SOL    HW128629   6.818   7.432   1.794 -1.0140 -0.6120  0.1291
 8579SOL    HW228630   6.790   7.307   1.875  1.1857 -2.4949 -1.8663
 8580SOL     OW28631   1.527   1.911   7.617 -0.1830  0.2592  0.6325
 8580SOL    HW128632   1.469   1.940   7.546 -0.5600  0.4456  1.0115
 8580SOL    HW228633   1.589   1.851   7.575 -1.7302 -1.3503  0.5017
 8581SOL     OW28634   3.703   4.289   7.054 -0.3053  0.2765  0.0494
 8581SOL    HW128635   3.786   4.288   7.006  0.3530 -1.1041  1.1563
 8581SOL    HW228636   3.719   4.349   7.127 -0.6299  0.8049 -0.3114
 8582SOL     OW28637   7.125   3.506   5.573  0.0759 -0.2539  0.0014
 8582SOL    HW128638   7.107   3.423   5.617  0.2120 -0.5870 -0.5633
 8582SOL    HW228639   7.185   3.552   5.632 -0.8023 -0.1058  0.8113
 8583SOL     OW28640   0.430   3.531   7.393 -0.9767 -0.2025 -0.3739
 8583SOL    HW128641   0.392   3.516   7.306 -0.4845 -0.1468 -0.6061
 8583SOL    HW228642   0.359   3.512   7.454 -1.0032 -1.3477 -0.7442
 8584SOL     OW28643   7.043   0.945   7.859 -0.1135 -0.3673  0.0017
 8584SOL    HW128644   7.067   0.894   7.937 -1.4896  0.6620  1.1358
 8584SOL    HW228645   6.962   0.989   7.883  0.3622  1.3810 -1.3861
 8585SOL     OW28646   2.432   1.038   4.014  0.3805 -0.0604 -0.3102
 8585SOL    HW128647   2.440   0.954   4.059 -0.1785  0.1270  0.1488
 8585SOL    HW228648   2.486   1.098   4.065  0.6576 -0.1062 -0.5493
 8586SOL     OW28649   3.697   5.790   3.314 -0.1864 -0.3088 -0.1193
 8586SOL    HW128650   3.620   5.793   3.256  0.1071  1.4587 -0.4663
 8586SOL    HW228651   3.770   5.768   3.255  0.1310  1.6042 -0.4800
 8587SOL     OW28652   6.255   9.460   2.890 -0.0586  0.5327  0.4534
 8587SOL    HW128653   6.289   9.515   2.961  2.5958  1.0639 -1.1240
 8587SOL    HW228654   6.280   9.506   2.810 -0.9436 -1.2108 -0.8842
 8588SOL     OW28655   9.126   0.480   1.056 -0.2816  0.5597  0.8277
 8588SOL    HW128656   9.204   0.462   1.003 -0.2961  0.1614  0.9409
 8588SOL    HW228657   9.098   0.395   1.088 -1.0483  0.6482  0.4015
 8589SOL     OW28658   8.249   4.124   6.603  0.1780 -0.0863  0.3201
 8589SOL    HW128659   8.319   4.108   6.539  0.4321 -0.7437  0.7521
 8589SOL    HW228660   8.255   4.218   6.622  0.4424  0.0101 -0.2217
 8590SOL     OW28661   7.716   0.869   1.468 -0.4702 -0.3200 -0.3640
 8590SOL    HW128662   7.740   0.778   1.449 -1.0281 -0.2347 -1.5671
 8590SOL    HW228663   7.776   0.921   1.416 -1.3901 -0.0578 -1.1989
 8591SOL     OW28664   6.515   4.196   1.460 -0.2328  0.0866  0.5472
 8591SOL    HW128665   6.551   4.278   1.493 -0.6662  0.3644  0.3425
 8591SOL    HW228666   6.434   4.184   1.509 -0.4338  0.0530  0.2133
 8592SOL     OW28667   5.986   5.295   4.157 -0.0882  0.3604  0.2312
 8592SOL    HW128668   5.928   5.264   4.226 -0.3473 -0.8177 -0.4802
 8592SOL    HW228669   5.927   5.332   4.091 -0.2493 -2.0880 -1.1391
 8593SOL     OW28670   8.817   2.376   1.148 -0.6288 -0.6134  0.6923
 8593SOL    HW128671   8.884   2.312   1.172  1.8829  1.6609  0.1739
 8593SOL    HW228672   8.810   2.367   1.053  0.6811  0.6688  0.4439
 8594SOL     OW28673   2.870   3.631   7.998 -0.3967 -0.0669  0.0470
 8594SOL    HW128674   2.929   3.648   7.925 -1.1922  1.6557 -0.2732
 8594SOL    HW228675   2.896   3.694   8.065 -1.1854  0.0097  0.2960
 8595SOL     OW28676   2.626   0.086   7.755  0.0990 -0.2649  0.0945
 8595SOL    HW128677   2.633   0.167   7.705  0.5777 -1.0664 -1.2014
 8595SOL    HW228678   2.542   0.048   7.728  2.1589 -2.8125 -3.5813
 8596SOL     OW28679   7.484   6.809   7.366  0.0514 -0.4455 -0.2966
 8596SOL    HW128680   7.395   6.844   7.370  0.6478  1.1558 -0.4862
 8596SOL    HW228681   7.510   6.796   7.457 -0.7139 -1.9203 -0.2474
 8597SOL     OW28682   4.397   5.738   8.386 -0.2944 -0.0912 -0.7273
 8597SOL    HW128683   4.312   5.743   8.430 -0.6932 -0.8782 -1.3889
 8597SOL    HW228684   4.396   5.811   8.324  0.1130  0.7849  0.2600
 8598SOL     OW28685   4.101   1.505   7.132 -0.1041  0.0448  0.0148
 8598SOL    HW128686   4.159   1.431   7.152 -0.0812 -0.1685 -0.8151
 8598SOL    HW228687   4.016   1.465   7.114  0.5338 -0.1163 -3.2792
 8599SOL     OW28688   0.494   4.308   2.608 -0.4046  0.0612  0.2316
 8599SOL    HW128689   0.574   4.273   2.568 -0.3872  0.6797 -0.3026
 8599SOL    HW228690   0.522   4.391   2.647 -0.5275 -0.3089  1.1231
 8600SOL     OW28691   6.825   8.327   8.830  0.1824  0.1874 -0.0116
 8600SOL    HW128692   6.881   8.337   8.906  0.2747  0.4707 -0.1171
 8600SOL    HW228693   6.848   8.400   8.773 -0.3278  0.3309 -0.0345
 8601SOL     OW28694   5.004   9.384   2.527 -0.3622  0.5885  0.1424
 8601SOL    HW128695   4.941   9.391   2.599 -0.3383  1.3921  0.0866
 8601SOL    HW228696   4.996   9.467   2.480  2.1588  1.5643  1.2855
 8602SOL     OW28697   7.437   9.108   1.446  0.4696 -0.2708  0.3516
 8602SOL    HW128698   7.475   9.121   1.359  1.9694 -2.1759  0.6825
 8602SOL    HW228699   7.476   9.178   1.499  0.8259 -0.1037 -0.1165
 8603SOL     OW28700   3.459   7.467   6.093  0.2453 -0.9078  0.8686
 8603SOL    HW128701   3.424   7.479   6.004  1.0462  0.4756  0.7061
 8603SOL    HW228702   3.437   7.548   6.138  2.0640 -0.5226  1.1367
 8604SOL     OW28703   5.953   8.109   4.345  0.0865 -0.1255  0.3109
 8604SOL    HW128704   6.007   8.063   4.281  1.4765 -0.4105  1.6369
 8604SOL    HW228705   5.864   8.080   4.326  0.1816  1.0786 -2.5347
 8605SOL     OW28706   4.481   7.369   7.970 -0.0852 -0.3128 -0.3580
 8605SOL    HW128707   4.530   7.368   8.051 -0.4374  0.5803 -0.1216
 8605SOL    HW228708   4.540   7.409   7.906 -0.4284  0.6108 -0.1123
 8606SOL     OW28709   1.058   1.575   5.333  0.6736  0.0625 -0.4752
 8606SOL    HW128710   1.093   1.490   5.359  0.4768  0.5879  1.6833
 8606SOL    HW228711   1.050   1.624   5.415 -0.8193  1.5628 -1.4473
 8607SOL     OW28712   3.153   3.845   0.889 -0.5867 -0.2404 -0.2917
 8607SOL    HW128713   3.236   3.835   0.936 -1.0032  2.2102  1.1700
 8607SOL    HW228714   3.089   3.799   0.944 -0.5383 -0.1997 -0.2000
 8608SOL     OW28715   7.061   6.834   9.162 -0.3721 -0.4084  0.5378
 8608SOL    HW128716   7.063   6.921   9.203  1.7537  0.0547 -0.4003
 8608SOL    HW228717   7.018   6.778   9.226 -2.1560  1.3774  1.0204
 8609SOL     OW28718   7.307   0.247   5.774  0.4491 -0.3626  0.4367
 8609SOL    HW128719   7.346   0.254   5.687 -1.5179  2.0560 -0.3696
 8609SOL    HW228720   7.221   0.209   5.759 -0.0370  0.3630  1.3003
 8610SOL     OW28721   3.181   5.372   2.727  0.3032 -0.5151  0.1064
 8610SOL    HW128722   3.161   5.374   2.821  0.9155 -0.9009  0.2477
 8610SOL    HW228723   3.217   5.459   2.709  2.8642 -1.3281  0.8512
 8611SOL     OW28724   1.965   8.942   9.129 -0.3178 -0.5503  0.0683
 8611SOL    HW128725   1.999   8.861   9.167  1.9262  0.3249  0.0216
 8611SOL    HW228726   1.931   8.990   9.205  1.3130 -0.1608  0.5937
 8612SOL     OW28727   7.396   9.076   0.895 -0.0111 -0.1396  0.4595
 8612SOL    HW128728   7.358   9.014   0.957 -0.2628  0.3936  0.8437
 8612SOL    HW228729   7.446   9.021   0.834  0.0110 -0.6916  0.9653
 8613SOL     OW28730   6.219   1.034   9.587  0.3715 -0.1112 -0.0866
 8613SOL    HW128731   6.220   0.943   9.559  0.0358  0.1690 -1.0516
 8613SOL    HW228732   6.126   1.056   9.593  0.4412 -0.0424  0.8803
 8614SOL     OW28733   3.698   2.601   3.692  0.4992 -0.3689 -0.2322
 8614SOL    HW128734   3.745   2.673   3.733 -1.8374  0.2896  1.5117
 8614SOL    HW228735   3.632   2.643   3.637 -0.5108 -1.1339  0.3485
 8615SOL     OW28736   4.866   8.705   3.322  0.2617  0.0821  0.4355
 8615SOL    HW128737   4.934   8.642   3.343  0.1075  0.1380  1.1228
 8615SOL    HW228738   4.793   8.653   3.289 -0.1298 -0.1789  1.6673
 8616SOL     OW28739   1.951   7.045   2.737 -0.5874 -0.1503 -0.1180
 8616SOL    HW128740   2.009   7.067   2.810  0.1321 -2.4109  0.0827
 8616SOL    HW228741   1.870   7.092   2.755  0.0469  0.4101  1.4086
 8617SOL     OW28742   6.128   8.944   1.600  0.6132  0.2986  0.0537
 8617SOL    HW128743   6.052   8.928   1.655 -0.1226  3.3677  0.1401
 8617SOL    HW228744   6.094   8.948   1.511  1.0874 -0.5334 -0.1765
 8618SOL     OW28745   7.743   9.053   5.942  0.5753 -0.5841  0.4833
 8618SOL    HW128746   7.679   9.027   5.875  1.6548 -0.2335 -0.7175
 8618SOL    HW228747   7.794   9.122   5.902 -0.3267  1.4446  2.5861
 8619SOL     OW28748   8.205   1.655   8.077  0.1219 -0.3534  0.2518
 8619SOL    HW128749   8.190   1.685   8.167  0.3724 -0.5107  0.3463
 8619SOL    HW228750   8.119   1.661   8.035 -0.2803 -1.5403  0.8681
 8620SOL     OW28751   7.219   4.028   6.007 -0.6230 -0.2387  0.0457
 8620SOL    HW128752   7.235   4.045   5.914  1.3785 -2.6931 -0.1447
 8620SOL    HW228753   7.144   3.969   6.007 -0.0417 -0.9870 -0.0924
 8621SOL     OW28754   0.955   1.340   8.804 -0.2527 -0.6161 -0.1157
 8621SOL    HW128755   1.004   1.417   8.830 -0.5027 -0.3251 -0.5004
 8621SOL    HW228756   0.865   1.357   8.834 -1.1431  0.8098 -3.1576
 8622SOL     OW28757   5.075   4.633   0.009 -0.6641 -0.0637  0.1825
 8622SOL    HW128758   4.987   4.635  -0.026 -0.6876  2.7663  0.1577
 8622SOL    HW228759   5.131   4.615  -0.066 -1.0854 -0.0558 -0.1350
 8623SOL     OW28760   0.402   3.127   7.693 -0.2224  0.0349 -0.0866
 8623SOL    HW128761   0.438   3.157   7.609 -0.7708 -0.5115 -0.5299
 8623SOL    HW228762   0.313   3.100   7.672 -0.0954 -0.8827  0.4975
 8624SOL     OW28763   6.671   2.233   8.371 -0.2547  0.2176 -0.5247
 8624SOL    HW128764   6.609   2.300   8.341  0.6287  0.9222 -0.8225
 8624SOL    HW228765   6.749   2.247   8.317  1.3469  1.4423  1.9261
 8625SOL     OW28766   0.207   8.102   2.052  0.1888  0.4637  0.0663
 8625SOL    HW128767   0.210   8.175   1.990 -0.3992 -0.9025 -1.6378
 8625SOL    HW228768   0.295   8.099   2.089  0.7965  0.8530 -1.2897
 8626SOL     OW28769   0.362   3.019   1.206  0.3439  0.2134  0.3850
 8626SOL    HW128770   0.353   2.952   1.275  1.6127  0.6275  0.9789
 8626SOL    HW228771   0.390   3.097   1.253  2.9808  0.0417 -0.7807
 8627SOL     OW28772   8.838   6.216   7.288 -0.1618 -0.3025  0.1654
 8627SOL    HW128773   8.784   6.153   7.336 -1.3563  1.1420  0.8150
 8627SOL    HW228774   8.891   6.259   7.355  2.3245 -2.0833 -0.5193
 8628SOL     OW28775   6.217   9.416   6.751  0.1361  0.2876  0.5632
 8628SOL    HW128776   6.180   9.404   6.664 -0.1469  1.8821  0.4353
 8628SOL    HW228777   6.287   9.480   6.739 -0.0049  0.6389  1.5338
 8629SOL     OW28778   8.933   5.148   2.138 -0.2279 -0.0924  0.6018
 8629SOL    HW128779   9.001   5.198   2.183  1.2350 -0.4341 -1.1365
 8629SOL    HW228780   8.935   5.180   2.048 -0.7750 -1.7459 -0.0262
 8630SOL     OW28781   1.967   0.474   0.398  0.0226 -0.0536 -0.4027
 8630SOL    HW128782   1.992   0.504   0.485  0.6025 -1.2369 -0.1463
 8630SOL    HW228783   1.956   0.555   0.347 -3.0993  0.8755  1.4415
 8631SOL     OW28784   9.385   4.810   7.501  0.0023  0.1075  0.1440
 8631SOL    HW128785   9.480   4.796   7.502  0.0200  0.1475  1.5369
 8631SOL    HW228786   9.366   4.845   7.588 -1.0396  1.8316 -0.7205
 8632SOL     OW28787   4.135   2.198   8.737 -0.5062 -0.1725 -0.5819
 8632SOL    HW128788   4.064   2.255   8.710 -2.7061 -2.0411  0.9101
 8632SOL    HW228789   4.172   2.165   8.655  2.3731  4.7438 -1.7242
 8633SOL     OW28790   8.462   9.192   6.098  0.6157  0.7894 -0.1193
 8633SOL    HW128791   8.495   9.210   6.010 -0.1046  1.5894 -0.2368
 8633SOL    HW228792   8.539   9.201   6.155  1.3102 -0.7301 -0.7563
 8634SOL     OW28793   4.671   5.844   7.020 -0.3305  0.2681 -0.2230
 8634SOL    HW128794   4.707   5.776   6.964 -2.2267  0.1730 -1.4133
 8634SOL    HW228795   4.586   5.865   6.981 -1.3275  0.8679  2.0942
 8635SOL     OW28796   2.319   0.004   7.005  0.0500  0.2222 -0.3259
 8635SOL    HW128797   2.296   0.030   7.094 -0.8737 -0.9512 -0.1965
 8635SOL    HW228798   2.364   0.080   6.969 -0.6651  1.1810  0.7256
 8636SOL     OW28799   8.542   2.940   4.235  0.1455 -0.0502  0.8001
 8636SOL    HW128800   8.457   2.954   4.193 -0.1357 -0.7689  1.1239
 8636SOL    HW228801   8.522   2.934   4.329  0.6723  0.7423  0.9737
 8637SOL     OW28802   6.352   0.439   3.283 -0.0339 -0.7781 -0.3645
 8637SOL    HW128803   6.387   0.350   3.272 -0.9911 -0.9580 -2.3250
 8637SOL    HW228804   6.258   0.427   3.296 -0.7977 -0.0424 -4.0497
 8638SOL     OW28805   6.695   5.250   1.011 -0.2811  0.3604  0.1498
 8638SOL    HW128806   6.770   5.198   0.980  1.0514  1.9972  0.4918
 8638SOL    HW228807   6.683   5.222   1.101  0.4610  0.6516  0.3494
 8639SOL     OW28808   3.161   7.275   4.241  0.3428 -0.4763 -0.0089
 8639SOL    HW128809   3.131   7.193   4.280 -0.0970 -1.2647 -1.9021
 8639SOL    HW228810   3.243   7.253   4.198  1.6206  0.7344  1.6502
 8640SOL     OW28811   0.750   4.883   3.279 -0.1596 -0.0153 -0.5309
 8640SOL    HW128812   0.823   4.889   3.341 -0.5335  0.2207 -0.1015
 8640SOL    HW228813   0.759   4.960   3.223  0.1720 -0.2203 -0.7590
 8641SOL     OW28814   5.380   6.086   3.083  0.6287 -0.1046  0.0807
 8641SOL    HW128815   5.427   6.019   3.133  0.2909 -0.5743 -0.2297
 8641SOL    HW228816   5.410   6.169   3.122 -2.4890 -0.4340  3.7969
 8642SOL     OW28817   3.861   0.172   9.175 -0.1364  0.3417  0.1211
 8642SOL    HW128818   3.849   0.146   9.267  1.6298 -0.7171  0.1104
 8642SOL    HW228819   3.950   0.208   9.172 -0.6383  1.5462 -0.9417
 8643SOL     OW28820   5.144   1.455   2.767  0.1821  0.0389 -0.2201
 8643SOL    HW128821   5.118   1.364   2.749  0.6179 -0.3796  1.1795
 8643SOL    HW228822   5.180   1.486   2.684 -0.0700 -1.0270 -0.7486
 8644SOL     OW28823   1.402   0.967   7.760 -0.3821 -0.7636 -0.0833
 8644SOL    HW128824   1.350   1.006   7.831 -0.9653 -0.6415 -0.5757
 8644SOL    HW228825   1.338   0.925   7.703  0.1792 -1.8235  0.0446
 8645SOL     OW28826   6.870   0.871   0.824 -0.1294  0.6161 -0.1787
 8645SOL    HW128827   6.851   0.872   0.730  1.1184 -0.7720 -0.4907
 8645SOL    HW228828   6.966   0.868   0.829 -0.1284  1.6489  1.1807
 8646SOL     OW28829   0.069   3.987   4.622 -0.3837  0.2436 -0.0805
 8646SOL    HW128830   0.118   4.007   4.542 -1.2030  1.4548 -0.3026
 8646SOL    HW228831   0.137   3.969   4.687  0.2996 -0.6212 -0.9912
 8647SOL     OW28832   3.140   4.317   2.522 -0.2564 -0.1528 -0.6373
 8647SOL    HW128833   3.209   4.361   2.570  1.5148 -1.3482 -1.9473
 8647SOL    HW228834   3.092   4.387   2.479  0.0987  0.7059  0.3403
 8648SOL     OW28835   2.280   8.759   3.147 -0.0394  0.5020 -0.0631
 8648SOL    HW128836   2.229   8.678   3.145 -0.6012  0.8624 -1.7744
 8648SOL    HW228837   2.312   8.765   3.237 -1.0564 -0.9541  0.4275
 8649SOL     OW28838   5.879   4.647   3.926 -0.0881 -0.8268 -0.1572
 8649SOL    HW128839   5.852   4.703   3.999 -1.9701 -0.3957 -1.1278
 8649SOL    HW228840   5.926   4.706   3.867 -0.4630 -0.6790 -0.3111
 8650SOL     OW28841   1.409   1.068   2.761 -0.2466 -0.1151  0.0659
 8650SOL    HW128842   1.461   1.025   2.693 -2.3429 -0.1732 -1.6117
 8650SOL    HW228843   1.443   1.157   2.765  0.7382 -0.4696 -0.1321
 8651SOL     OW28844   0.098   8.093   8.533 -0.1921 -0.2233 -0.6575
 8651SOL    HW128845   0.004   8.085   8.547 -0.1475  0.9040  0.3669
 8651SOL    HW228846   0.107   8.100   8.438 -1.1276 -0.3792 -0.7689
 8652SOL     OW28847   6.141   2.714   4.947  0.1548  0.4091 -0.1999
 8652SOL    HW128848   6.234   2.728   4.961 -0.1663  1.7906  0.7354
 8652SOL    HW228849   6.135   2.625   4.911  1.8700  0.5600 -0.9435
 8653SOL     OW28850   5.290   5.486   3.034 -0.0155  0.3448 -0.2012
 8653SOL    HW128851   5.218   5.425   3.053 -0.1856  0.7479  0.4795
 8653SOL    HW228852   5.279   5.507   2.941  0.7240 -1.5376 -0.7710
 8654SOL     OW28853   9.438   5.911   2.524 -0.1561 -0.3700  0.6889
 8654SOL    HW128854   9.357   5.958   2.544 -0.5094 -1.5741  2.2457
 8654SOL    HW228855   9.506   5.979   2.522 -1.2646  0.7786 -1.4215
 8655SOL     OW28856   3.075   2.258   6.908  0.4994  0.2917 -0.1831
 8655SOL    HW128857   3.031   2.195   6.851 -0.1784 -0.2233  0.8839
 8655SOL    HW228858   3.164   2.223   6.917 -0.3144 -1.5473  1.7795
 8656SOL     OW28859   4.059   1.064   1.331  0.2889 -0.1366 -0.4648
 8656SOL    HW128860   3.996   1.136   1.329 -0.3118 -0.6586 -0.8860
 8656SOL    HW228861   4.115   1.078   1.255  1.2193  0.7865  0.3691
 8657SOL     OW28862   8.113   8.538   3.043  0.0622 -0.0329 -1.0681
 8657SOL    HW128863   8.187   8.569   2.991  0.8393  0.5020  0.2994
 8657SOL    HW228864   8.094   8.451   3.009  1.2164 -0.1113 -1.5492
 8658SOL     OW28865   8.265   0.673   3.810 -0.0740 -0.0975 -0.6894
 8658SOL    HW128866   8.186   0.723   3.790 -0.5655 -0.9826 -0.9981
 8658SOL    HW228867   8.288   0.700   3.899  0.7853  2.1117 -1.4966
 8659SOL     OW28868   2.415   5.195   2.000  0.5260 -0.3518  0.8478
 8659SOL    HW128869   2.376   5.258   2.060  0.5164 -0.3727  0.8634
 8659SOL    HW228870   2.432   5.118   2.054  1.9832  0.1823  1.1991
 8660SOL     OW28871   3.717   0.607   6.933 -0.1680 -0.2201  0.3383
 8660SOL    HW128872   3.783   0.571   6.873 -0.7373  0.3444 -0.6554
 8660SOL    HW228873   3.757   0.688   6.966 -0.1108 -0.2013  0.2243
 8661SOL     OW28874   6.114   7.309   4.120 -0.5470  0.0427 -0.1338
 8661SOL    HW128875   6.107   7.373   4.049 -0.7626 -0.1176 -0.2563
 8661SOL    HW228876   6.206   7.283   4.120 -0.5956 -0.1222 -0.4951
 8662SOL     OW28877   7.155   1.136   0.699 -0.4440  0.8765  0.4840
 8662SOL    HW128878   7.228   1.088   0.739 -0.6282  2.2800  2.6428
 8662SOL    HW228879   7.144   1.095   0.613  2.9915  0.7218 -0.0114
 8663SOL     OW28880   5.159   7.528   9.387 -0.0081 -0.4314 -0.0643
 8663SOL    HW128881   5.071   7.497   9.409  0.4490 -0.1673  2.4486
 8663SOL    HW228882   5.218   7.460   9.420  0.8228  0.9144  1.3637
 8664SOL     OW28883   4.080   5.339   7.053  0.0332  0.2719 -0.1753
 8664SOL    HW128884   4.048   5.299   6.973  0.6580 -0.3352 -0.1358
 8664SOL    HW228885   4.176   5.333   7.046  0.2161  2.9347 -0.7557
 8665SOL     OW28886   3.830   2.790   8.055 -0.3442  0.0082  0.1334
 8665SOL    HW128887   3.881   2.711   8.038  3.0160  2.3713 -1.9921
 8665SOL    HW228888   3.883   2.841   8.117 -2.4703  0.6304  1.5623
 8666SOL     OW28889   7.818   2.664   1.808  0.6121 -0.4337 -0.4132
 8666SOL    HW128890   7.872   2.585   1.817 -0.4565 -1.2254 -0.6669
 8666SOL    HW228891   7.879   2.732   1.781  1.2597 -1.6195 -2.0982
 8667SOL     OW28892   9.237   9.115   5.639 -0.2141 -0.3712 -0.1956
 8667SOL    HW128893   9.231   9.071   5.554  0.0710  0.1259 -0.4760
 8667SOL    HW228894   9.326   9.151   5.641  0.1991 -1.3772  0.8077
 8668SOL     OW28895   5.566   1.175   7.490 -0.3017  0.4402 -0.1688
 8668SOL    HW128896   5.483   1.172   7.442  0.0024  2.8081 -0.9601
 8668SOL    HW228897   5.554   1.245   7.555  1.4402  1.7339 -1.1462
 8669SOL     OW28898   3.468   4.375   4.162 -0.5829  0.0802 -0.2439
 8669SOL    HW128899   3.526   4.450   4.145 -1.9590  1.0928 -0.5962
 8669SOL    HW228900   3.525   4.299   4.151  1.0476  1.0603  0.8093
 8670SOL     OW28901   0.155   3.657   6.205  0.4902  0.3046  0.0031
 8670SOL    HW128902   0.245   3.688   6.195  0.9587 -1.0356 -0.1249
 8670SOL    HW228903   0.134   3.671   6.297  0.6133  1.1624 -0.0953
 8671SOL     OW28904   8.261   4.200   9.590 -0.1899 -0.2443  0.2432
 8671SOL    HW128905   8.233   4.209   9.499 -0.1731 -0.3200  0.2303
 8671SOL    HW228906   8.197   4.251   9.640 -0.0503  0.0064  0.1643
 8672SOL     OW28907   8.543   4.860   5.327 -0.0283 -0.4672  0.1497
 8672SOL    HW128908   8.571   4.899   5.410  1.2730 -1.1832  0.0726
 8672SOL    HW228909   8.598   4.782   5.317  1.5475  0.8549 -2.5163
 8673SOL     OW28910   1.271   8.674   0.383  0.3457 -0.1019  0.1077
 8673SOL    HW128911   1.365   8.683   0.368  0.7885 -4.0062 -0.4876
 8673SOL    HW228912   1.237   8.634   0.303 -2.2888  2.8799 -0.4469
 8674SOL     OW28913   8.768   5.575   3.686 -0.0996  0.1929 -0.2362
 8674SOL    HW128914   8.715   5.611   3.615 -0.7888  0.5735  0.4514
 8674SOL    HW228915   8.735   5.620   3.765 -0.3538 -1.2649  0.5160
 8675SOL     OW28916   9.142   3.714   6.286 -0.1390 -0.0703  0.0434
 8675SOL    HW128917   9.236   3.706   6.268 -0.0147 -0.2942  0.7828
 8675SOL    HW228918   9.133   3.693   6.379 -0.9066  0.0808  0.0091
 8676SOL     OW28919   4.241   6.657   2.809 -0.1770 -0.0929  0.3538
 8676SOL    HW128920   4.230   6.607   2.890 -0.1376  0.9951  1.0553
 8676SOL    HW228921   4.193   6.739   2.825  2.1536  1.3570  0.3898
 8677SOL     OW28922   4.062   4.240   3.629  0.2339 -0.0950 -0.5689
 8677SOL    HW128923   4.109   4.266   3.549 -1.6414  3.0247 -0.8113
 8677SOL    HW228924   4.031   4.151   3.610  1.7687 -0.3282 -2.3555
 8678SOL     OW28925   1.860   8.974   5.433  0.0576 -0.2366  0.6876
 8678SOL    HW128926   1.837   9.049   5.379 -0.3720 -0.9259 -0.1022
 8678SOL    HW228927   1.897   9.013   5.512 -0.1328  0.8054  0.2869
 8679SOL     OW28928   2.997   1.466   5.126  0.3270 -0.5418 -0.2208
 8679SOL    HW128929   3.067   1.511   5.079  0.5955  1.8388  2.2400
 8679SOL    HW228930   2.921   1.474   5.068  1.0828  0.5452 -1.1095
 8680SOL     OW28931   5.220   1.997   7.680 -0.2937  0.0321 -0.5083
 8680SOL    HW128932   5.278   2.035   7.614 -0.9815  1.1675 -0.4782
 8680SOL    HW228933   5.132   2.006   7.643 -0.5224 -1.1176 -0.2879
 8681SOL     OW28934   3.288   9.318   5.805 -0.5064 -0.6402  0.2565
 8681SOL    HW128935   3.297   9.282   5.893  0.9792 -1.7297 -0.2964
 8681SOL    HW228936   3.373   9.360   5.787 -0.8143 -0.3571 -0.6063
 8682SOL     OW28937   0.297   6.426   4.868  0.0171 -0.7198  0.6436
 8682SOL    HW128938   0.248   6.460   4.794  0.6944 -1.2582 -0.0660
 8682SOL    HW228939   0.258   6.340   4.885  1.0142 -1.3558 -0.2312
 8683SOL     OW28940   2.551   5.941   3.754  0.0491  0.5426  0.1103
 8683SOL    HW128941   2.479   5.901   3.801  0.0254 -0.2027 -0.5522
 8683SOL    HW228942   2.575   6.017   3.807 -1.1075  0.7081  0.4183
 8684SOL     OW28943   3.617   7.552   0.683  0.8723 -0.2425  0.4296
 8684SOL    HW128944   3.691   7.608   0.703  2.3805 -2.2981  0.9522
 8684SOL    HW228945   3.547   7.582   0.741  1.1671  1.8874 -0.2530
 8685SOL     OW28946   0.133   0.643   1.276 -0.1184 -0.6572 -0.0738
 8685SOL    HW128947   0.127   0.718   1.335 -1.7108 -1.3787  0.7535
 8685SOL    HW228948   0.222   0.646   1.242  0.9864 -0.3649  2.6084
 8686SOL     OW28949   2.597   4.378   0.316  0.1469  0.0458  0.0025
 8686SOL    HW128950   2.669   4.404   0.374  1.1171  0.2594 -1.2605
 8686SOL    HW228951   2.629   4.397   0.228 -2.0637  1.6727 -0.5501
 8687SOL     OW28952   0.744   0.103   3.730  0.0765 -0.8648  0.1066
 8687SOL    HW128953   0.653   0.078   3.715 -0.6566  1.7411 -0.3197
 8687SOL    HW228954   0.757   0.181   3.676  2.8758 -1.7006 -0.5594
 8688SOL     OW28955   9.495   4.533   5.114  0.4674  0.0036  0.5647
 8688SOL    HW128956   9.536   4.454   5.150  2.8067  1.2420  0.8355
 8688SOL    HW228957   9.408   4.504   5.087  1.0059 -2.5161  1.1938
 8689SOL     OW28958   2.826   0.037   1.485  0.0921  0.1436 -0.1121
 8689SOL    HW128959   2.840   0.099   1.557  1.1155  2.4989 -2.2162
 8689SOL    HW228960   2.732   0.040   1.470  0.2024  1.8649 -0.6895
 8690SOL     OW28961   7.225   7.552   1.242  0.7468 -0.3087  0.4005
 8690SOL    HW128962   7.281   7.488   1.285  0.6103 -1.8743 -1.5923
 8690SOL    HW228963   7.167   7.500   1.186  0.3630  1.5161 -1.0226
 8691SOL     OW28964   1.259   6.088   0.198 -0.5365 -0.3227  0.4581
 8691SOL    HW128965   1.272   6.033   0.120  1.3764  0.5331  0.1173
 8691SOL    HW228966   1.263   6.026   0.271  0.3077 -0.8226  0.0076
 8692SOL     OW28967   0.096   1.981   7.634  0.3063 -0.9119  0.4712
 8692SOL    HW128968   0.104   1.967   7.728 -2.2331  1.7812  1.2379
 8692SOL    HW228969   0.161   2.048   7.614 -0.5992  0.1040  0.8194
 8693SOL     OW28970   4.106   1.117   8.117 -0.3028  0.3753  0.0446
 8693SOL    HW128971   4.029   1.169   8.139 -0.7113 -0.6597  1.1765
 8693SOL    HW228972   4.074   1.053   8.053  0.0673  1.1006 -0.8992
 8694SOL     OW28973   4.687   5.581   2.852  0.1482  0.6029  0.9673
 8694SOL    HW128974   4.681   5.660   2.799 -2.4141 -0.6585 -0.8169
 8694SOL    HW228975   4.605   5.578   2.901 -0.1411 -1.2864  0.4513
 8695SOL     OW28976   3.225   6.067   6.926 -0.1521  0.1355  0.4346
 8695SOL    HW128977   3.197   6.004   6.993 -1.0610 -0.7609 -0.7333
 8695SOL    HW228978   3.157   6.135   6.928 -3.0447 -2.3191 -2.7802
 8696SOL     OW28979   3.362   7.950   9.330 -0.0841  0.3390 -0.1875
 8696SOL    HW128980   3.343   7.995   9.247 -3.1003 -2.2226 -1.0977
 8696SOL    HW228981   3.419   7.878   9.304  0.5801  0.6691  0.3469
 8697SOL     OW28982   0.145   8.506   2.081 -0.0602  0.1510 -0.2366
 8697SOL    HW128983   0.165   8.594   2.050 -0.8326  0.3685 -0.1381
 8697SOL    HW228984   0.193   8.448   2.022  1.1273  0.6550  0.2174
 8698SOL     OW28985   7.874   8.172   1.033 -0.2480  0.0210  0.1162
 8698SOL    HW128986   7.945   8.113   1.059 -1.0128 -0.4082  1.2895
 8698SOL    HW228987   7.919   8.247   0.992  1.0847  0.8048  2.7897
 8699SOL     OW28988   0.500   1.003   0.154  0.1249 -0.0468  0.1526
 8699SOL    HW128989   0.536   0.957   0.230 -0.0860 -1.0116 -0.3131
 8699SOL    HW228990   0.407   0.980   0.154  0.0452  0.2688 -0.1720
 8700SOL     OW28991   1.970   7.658   0.220 -0.5544  0.5594  0.2044
 8700SOL    HW128992   2.031   7.723   0.256 -0.1356  0.1990  0.1535
 8700SOL    HW228993   2.020   7.577   0.218 -0.6424  0.5135 -0.9575
 8701SOL     OW28994   2.605   0.782   7.242  0.4070  0.1560  0.2088
 8701SOL    HW128995   2.556   0.828   7.310 -0.2483 -1.1339  0.6449
 8701SOL    HW228996   2.695   0.781   7.273  0.5315  1.5737 -0.0589
 8702SOL     OW28997   0.438   9.573   8.817  0.0594 -0.0489  0.1473
 8702SOL    HW128998   0.493   9.499   8.793 -0.7763 -0.6848  0.1406
 8702SOL    HW228999   0.379   9.585   8.743 -1.0990 -0.6404  0.9405
 8703SOL     OW29000   4.868   5.690   3.028 -0.6712 -0.3231  0.4601
 8703SOL    HW129001   4.783   5.689   2.985  0.4565 -0.8677 -1.9060
 8703SOL    HW229002   4.887   5.783   3.041 -1.9817 -0.2142  1.8764
 8704SOL     OW29003   5.311   0.316   7.905  0.0560  0.3066 -1.0331
 8704SOL    HW129004   5.346   0.405   7.908  0.9097 -0.0130 -1.1683
 8704SOL    HW229005   5.237   0.321   7.845  1.2355  0.5589 -2.5414
 8705SOL     OW29006   2.926   7.632   3.699  0.6504  0.0946 -0.1252
 8705SOL    HW129007   2.982   7.563   3.735  1.6613  0.1447 -1.5606
 8705SOL    HW229008   2.887   7.593   3.621 -1.1641  0.1517  0.6881
 8706SOL     OW29009   8.441   2.391   2.468  0.1585  0.3241  0.4250
 8706SOL    HW129010   8.402   2.354   2.388 -0.5378  0.4342  0.7056
 8706SOL    HW229011   8.367   2.400   2.528  0.7670 -0.2821  1.2870
 8707SOL     OW29012   4.738   3.230   8.339  0.4363  0.1299 -0.0561
 8707SOL    HW129013   4.800   3.215   8.268  0.2649  2.2363 -0.6964
 8707SOL    HW229014   4.783   3.289   8.399 -0.4627  0.6346  0.1395
 8708SOL     OW29015   9.349   2.899   1.745  0.1359 -0.0800  0.4577
 8708SOL    HW129016   9.372   2.908   1.837  0.6072 -1.7843  0.5475
 8708SOL    HW229017   9.387   2.815   1.719  0.7568  0.7565 -1.5282
 8709SOL     OW29018   5.614   7.607   6.405 -0.5868 -0.5617  0.0724
 8709SOL    HW129019   5.653   7.641   6.325  0.5073  0.6509  1.0697
 8709SOL    HW229020   5.682   7.620   6.472 -1.4463 -1.5915  1.1856
 8710SOL     OW29021   7.033   5.444   6.299  0.3616 -0.1796 -0.5111
 8710SOL    HW129022   6.939   5.449   6.317  0.5563  1.6395  0.2752
 8710SOL    HW229023   7.062   5.366   6.347 -0.5295  0.0410  0.4341
 8711SOL     OW29024   3.820   1.222   0.401 -0.2550  0.4571 -0.2549
 8711SOL    HW129025   3.824   1.164   0.325  1.7016  0.3606 -0.1357
 8711SOL    HW229026   3.793   1.166   0.473 -0.7706  0.2470 -0.6071
 8712SOL     OW29027   3.892   3.980   0.202 -0.4134 -0.2881 -0.1824
 8712SOL    HW129028   3.913   3.915   0.136  0.7278 -0.4244  0.2772
 8712SOL    HW229029   3.845   3.932   0.270 -1.2666 -0.2221 -0.7167
 8713SOL     OW29030   4.142   0.224   9.192  0.0587 -0.1910 -0.4994
 8713SOL    HW129031   4.139   0.181   9.107 -1.8359  0.7695 -0.9621
 8713SOL    HW229032   4.161   0.316   9.171  1.7745 -0.3231  0.3055
 8714SOL     OW29033   6.863   2.780   2.658  0.2772  0.1028  0.4419
 8714SOL    HW129034   6.815   2.745   2.583 -0.4940  1.4509  0.2723
 8714SOL    HW229035   6.878   2.704   2.714  0.1852 -0.7905 -0.7003
 8715SOL     OW29036   3.022   2.243   2.530 -0.1924 -0.1939 -0.1973
 8715SOL    HW129037   2.947   2.302   2.539  0.6933  0.7761  1.1102
 8715SOL    HW229038   3.054   2.231   2.619  0.3538 -1.7563 -0.5738
 8716SOL     OW29039   4.670   1.532   6.622 -0.0294 -0.1403 -0.1231
 8716SOL    HW129040   4.574   1.534   6.628 -0.1829 -0.9261 -1.7596
 8716SOL    HW229041   4.697   1.490   6.704 -0.9591  1.4091  1.0344
 8717SOL     OW29042   4.335   5.931   1.894  0.3662 -0.6038  0.0958
 8717SOL    HW129043   4.334   6.007   1.837  0.7539 -0.8215 -0.2108
 8717SOL    HW229044   4.250   5.890   1.881  1.2721 -1.9851 -2.1821
 8718SOL     OW29045   8.108   4.666   3.695  0.3164 -0.3738 -0.2664
 8718SOL    HW129046   8.028   4.694   3.651 -0.5356 -0.5909  1.0891
 8718SOL    HW229047   8.131   4.739   3.752 -1.0598 -1.6874  2.1338
 8719SOL     OW29048   3.084   1.896   9.605 -0.2205  0.1106 -0.2253
 8719SOL    HW129049   3.152   1.935   9.660  0.4242 -0.0321 -0.9124
 8719SOL    HW229050   3.024   1.855   9.667  0.0816  0.6047  0.4106
 8720SOL     OW29051   6.945   0.166   8.223  0.2805 -0.4527  0.2835
 8720SOL    HW129052   6.938   0.260   8.206  1.7709 -0.4948 -0.7688
 8720SOL    HW229053   6.979   0.160   8.312 -0.0276 -0.0120  0.4362
 8721SOL     OW29054   9.226   5.909   0.935 -0.1825  0.3894 -0.2302
 8721SOL    HW129055   9.163   5.848   0.974 -0.7564  1.9425  1.4464
 8721SOL    HW229056   9.172   5.972   0.888  0.1167  1.3454  0.6574
 8722SOL     OW29057   3.087   1.677   0.622  0.2760  0.4389  0.2394
 8722SOL    HW129058   3.140   1.754   0.602  0.9973 -0.6126 -2.2524
 8722SOL    HW229059   3.150   1.610   0.646 -0.0445 -0.2564 -0.7757
 8723SOL     OW29060   3.040   0.015   8.946 -0.2557  0.2651 -0.0883
 8723SOL    HW129061   3.046   0.035   9.040  0.0618  1.3959 -0.3275
 8723SOL    HW229062   3.007  -0.074   8.943  2.0892 -0.7506  1.1444
 8724SOL     OW29063   9.399   4.050   1.143  0.2725  0.1943  0.4217
 8724SOL    HW129064   9.483   4.021   1.178 -0.9618 -2.5156  1.3826
 8724SOL    HW229065   9.339   4.045   1.217 -0.2505  5.6758  0.8391
 8725SOL     OW29066   7.093   3.935   8.490  0.7061 -0.4062  0.3396
 8725SOL    HW129067   7.074   4.007   8.550 -0.5016 -1.4021  1.1932
 8725SOL    HW229068   7.034   3.950   8.415 -1.0064 -1.5352  1.3959
 8726SOL     OW29069   2.890   5.529   0.985  0.3040 -0.1068 -0.2307
 8726SOL    HW129070   2.853   5.555   1.070  0.6762 -1.0173  0.2221
 8726SOL    HW229071   2.847   5.586   0.922  1.2830  1.8595  0.7436
 8727SOL     OW29072   6.820   6.789   2.798 -0.2610  0.9737 -0.3656
 8727SOL    HW129073   6.747   6.740   2.835 -0.6581  1.7882 -0.0279
 8727SOL    HW229074   6.789   6.815   2.711 -0.6775  1.9067  0.0371
 8728SOL     OW29075   5.488   0.549   4.320  0.2199 -0.3422 -0.3975
 8728SOL    HW129076   5.511   0.456   4.311 -1.6794 -0.7593 -1.3857
 8728SOL    HW229077   5.489   0.582   4.230  0.0529  0.3935 -0.1338
 8729SOL     OW29078   7.990   5.141   2.965 -0.2573  0.1156  0.1913
 8729SOL    HW129079   7.943   5.120   3.046 -0.6617  0.0469 -0.0607
 8729SOL    HW229080   8.069   5.186   2.995 -1.0331  1.2847  0.5761
 8730SOL     OW29081   5.449   4.422   4.523 -0.4031  0.2792  0.0038
 8730SOL    HW129082   5.383   4.369   4.477 -0.9357  2.0585 -1.4368
 8730SOL    HW229083   5.405   4.506   4.537  1.1651  1.1068  0.1101
 8731SOL     OW29084   3.659   3.860   7.283 -0.0982  0.9596 -0.0149
 8731SOL    HW129085   3.671   3.770   7.251  1.9832  0.2749  2.3761
 8731SOL    HW229086   3.690   3.915   7.211  0.8511 -0.3440 -0.6535
 8732SOL     OW29087   6.264   6.244   3.286 -0.3094  0.4245 -0.3653
 8732SOL    HW129088   6.178   6.275   3.314 -1.4545 -0.7452 -2.4007
 8732SOL    HW229089   6.288   6.177   3.350 -1.2595  0.2196 -0.2119
 8733SOL     OW29090   7.619   5.375   7.907  0.4845  0.0645  0.1476
 8733SOL    HW129091   7.679   5.308   7.873 -1.0999 -1.6679  0.5855
 8733SOL    HW229092   7.616   5.441   7.838  0.1329 -1.5997 -1.5485
 8734SOL     OW29093   4.556   5.518   0.291  0.4986 -0.2511 -0.3538
 8734SOL    HW129094   4.472   5.493   0.255  0.2976 -0.8447  0.5093
 8734SOL    HW229095   4.615   5.447   0.266  0.0992 -1.2613  1.4364
 8735SOL     OW29096   2.645   6.412   4.674 -0.0239  0.0739 -0.3078
 8735SOL    HW129097   2.625   6.505   4.687  0.9650  0.0127  2.1720
 8735SOL    HW229098   2.560   6.368   4.681 -0.2033  0.5974  1.1761
 8736SOL     OW29099   5.943   9.591   1.050 -0.3330 -0.8297  0.2824
 8736SOL    HW129100   6.037   9.585   1.063 -0.4868 -0.6153  1.5827
 8736SOL    HW229101   5.909   9.629   1.131 -1.1999  2.3071 -1.3997
 8737SOL     OW29102   1.825   1.363   9.375  0.0337 -0.0117  0.1979
 8737SOL    HW129103   1.866   1.277   9.359 -1.8943 -0.9473  0.0270
 8737SOL    HW229104   1.769   1.349   9.451 -0.6440  0.9805 -0.1056
 8738SOL     OW29105   6.206   4.180   7.739 -0.0212 -0.0314 -0.0100
 8738SOL    HW129106   6.230   4.143   7.654  2.2740 -0.8961  0.9282
 8738SOL    HW229107   6.244   4.119   7.803 -2.7038 -0.0706  1.6911
 8739SOL     OW29108   2.176   5.119   9.263  0.5349 -0.2866 -0.2648
 8739SOL    HW129109   2.103   5.123   9.200  0.0246  3.6665  0.3573
 8739SOL    HW229110   2.251   5.093   9.210 -0.1650  1.5563 -2.3148
 8740SOL     OW29111   6.128   8.313   9.482  0.2370  0.3209  0.0759
 8740SOL    HW129112   6.138   8.338   9.574 -0.0033  0.6227  0.0223
 8740SOL    HW229113   6.113   8.219   9.484 -0.1804  0.3938  0.3736
 8741SOL     OW29114   6.063   0.157   8.282  0.1392  0.3513 -0.2050
 8741SOL    HW129115   6.156   0.150   8.299  0.0632 -1.1936 -0.3405
 8741SOL    HW229116   6.057   0.168   8.187  0.1905  0.6824 -0.1706
 8742SOL     OW29117   4.265   1.811   2.783 -0.8033 -0.2006 -0.0671
 8742SOL    HW129118   4.301   1.791   2.696 -1.2533 -0.8980 -0.0978
 8742SOL    HW229119   4.282   1.732   2.835  2.3246  1.3155  1.4517
 8743SOL     OW29120   6.009   4.836   3.784  0.2257 -0.0200 -0.2414
 8743SOL    HW129121   6.068   4.840   3.709  1.0795 -2.3495  0.2124
 8743SOL    HW229122   6.031   4.914   3.836 -0.7238  1.9133 -2.5400
 8744SOL     OW29123   2.064   1.921   7.826  0.2453 -0.1111  0.1882
 8744SOL    HW129124   2.066   2.009   7.862 -0.7704  0.2618 -0.6014
 8744SOL    HW229125   2.099   1.865   7.895  1.0605  0.9262  0.6348
 8745SOL     OW29126   0.770   1.062   6.355  0.1702  0.3729 -0.9920
 8745SOL    HW129127   0.813   1.086   6.437 -2.6518 -1.8702  1.3549
 8745SOL    HW229128   0.820   0.987   6.323 -2.0106 -2.7326  2.1351
 8746SOL     OW29129   7.453   5.453   7.455 -0.1857  0.2754 -0.2906
 8746SOL    HW129130   7.494   5.464   7.541 -0.4000  0.5666 -0.2258
 8746SOL    HW229131   7.526   5.445   7.394 -0.0331 -0.0716 -0.0624
 8747SOL     OW29132   3.077   0.002   1.907 -0.2973  0.0564 -0.2489
 8747SOL    HW129133   3.121  -0.075   1.943  0.9328  0.8671  0.0536
 8747SOL    HW229134   3.122   0.020   1.825 -0.7080  0.3433 -0.4175
 8748SOL     OW29135   9.298   8.003   2.011 -0.2124 -0.3323  0.2998
 8748SOL    HW129136   9.317   7.912   2.033 -1.7095 -0.7903 -0.2037
 8748SOL    HW229137   9.271   8.042   2.094 -0.9569 -0.7268  0.2481
 8749SOL     OW29138   6.131   3.830   6.050  0.2069  0.1449  0.2160
 8749SOL    HW129139   6.116   3.829   6.145 -0.1851 -1.2543  0.1669
 8749SOL    HW229140   6.225   3.842   6.041  0.5782 -1.8781  0.8748
 8750SOL     OW29141   3.720   7.320   3.192 -0.0183 -0.3482  0.0993
 8750SOL    HW129142   3.745   7.387   3.128  2.0389 -1.3570 -0.2188
 8750SOL    HW229143   3.640   7.282   3.156  0.0028  0.4416 -0.8325
 8751SOL     OW29144   5.667   4.458   4.734 -0.1367 -0.3895 -0.2158
 8751SOL    HW129145   5.632   4.448   4.645 -0.9918 -0.8688  0.1621
 8751SOL    HW229146   5.614   4.527   4.774 -0.6579 -1.0970  0.3479
 8752SOL     OW29147   1.527   7.002   1.792  0.6515 -0.2104  0.0276
 8752SOL    HW129148   1.499   6.913   1.813  1.5324 -0.7673 -1.0886
 8752SOL    HW229149   1.591   7.024   1.860  2.4834 -1.4989 -1.1889
 8753SOL     OW29150   9.396   6.223   6.345  0.3978  0.3721  0.1534
 8753SOL    HW129151   9.408   6.289   6.413  0.0780 -1.1847  1.7849
 8753SOL    HW229152   9.303   6.201   6.349  0.6696 -0.8089  0.2640
 8754SOL     OW29153   2.814   2.027   5.190 -0.2321 -0.0630  0.1031
 8754SOL    HW129154   2.860   1.970   5.128 -1.7044  0.1454 -1.2518
 8754SOL    HW229155   2.788   2.103   5.138  1.8194  2.0090  1.9030
 8755SOL     OW29156   4.234   5.866   4.892  0.3752 -0.3050 -0.3485
 8755SOL    HW129157   4.139   5.878   4.882  0.0398 -2.3662 -0.1750
 8755SOL    HW229158   4.242   5.810   4.969  1.7912  0.3983  0.0295
 8756SOL     OW29159   8.080   4.263   5.121 -0.3339  0.4212 -0.3994
 8756SOL    HW129160   8.122   4.218   5.047 -1.8502  0.5053 -1.3509
 8756SOL    HW229161   8.069   4.196   5.188 -2.0367 -0.5351 -1.5775
 8757SOL     OW29162   4.740   0.861   0.099 -0.1269  0.0275  0.5122
 8757SOL    HW129163   4.736   0.880   0.193  1.0895 -0.2984  0.6458
 8757SOL    HW229164   4.771   0.770   0.094 -1.1914 -0.3202 -0.1962
 8758SOL     OW29165   7.630   3.631   0.854  0.2253  0.5856  0.1472
 8758SOL    HW129166   7.552   3.578   0.837  1.3875 -1.5008  0.9254
 8758SOL    HW229167   7.687   3.614   0.779 -0.4342  3.0069 -1.0066
 8759SOL     OW29168   0.355   6.909   8.312  0.6833 -0.1627  0.2581
 8759SOL    HW129169   0.304   6.902   8.393  0.1810 -0.9671 -0.1137
 8759SOL    HW229170   0.423   6.843   8.320  1.0100  0.1691  0.2759
 8760SOL     OW29171   3.588   2.139   4.434 -1.0809 -0.4808  0.4414
 8760SOL    HW129172   3.504   2.091   4.433 -0.7517 -1.0711 -0.7214
 8760SOL    HW229173   3.597   2.172   4.345 -0.1124 -0.3433  0.5884
 8761SOL     OW29174   0.208   8.957   6.168 -0.0545  0.1151  0.0477
 8761SOL    HW129175   0.128   9.009   6.183 -0.2153 -0.1284  0.0432
 8761SOL    HW229176   0.276   9.004   6.215  0.1961  1.3711 -1.4873
 8762SOL     OW29177   9.260   1.039   8.765  0.1913  0.3589 -0.1389
 8762SOL    HW129178   9.214   0.977   8.821  0.7226  1.6747  1.8472
 8762SOL    HW229179   9.329   1.075   8.820  2.2386  0.1145 -2.3276
 8763SOL     OW29180   1.347   7.686   5.026  0.1820 -0.2654 -0.3102
 8763SOL    HW129181   1.424   7.727   4.987 -1.0844  2.2263 -0.4103
 8763SOL    HW229182   1.286   7.676   4.953  0.1759 -1.6847 -0.1313
 8764SOL     OW29183   0.500   4.021   5.751  0.3861 -0.5301  0.2158
 8764SOL    HW129184   0.478   4.100   5.702 -2.0301 -0.7672  0.7854
 8764SOL    HW229185   0.443   3.954   5.715  0.8328 -1.4869  1.2209
 8765SOL     OW29186   5.890   2.198   6.244 -0.0642 -0.0877  0.0057
 8765SOL    HW129187   5.796   2.216   6.241  0.2923  1.7479 -1.2011
 8765SOL    HW229188   5.924   2.257   6.312  0.4350  0.4046 -0.6601
 8766SOL     OW29189   2.320   9.259   7.351  0.2121 -0.3770 -0.0295
 8766SOL    HW129190   2.243   9.258   7.295  0.4329  2.7606 -0.5367
 8766SOL    HW229191   2.389   9.219   7.298 -0.4937 -1.0312 -0.4674
 8767SOL     OW29192   3.145   4.148   8.167  0.3063 -0.0087  0.2858
 8767SOL    HW129193   3.217   4.146   8.230 -1.3841  1.9522  2.4777
 8767SOL    HW229194   3.120   4.240   8.163 -2.0692 -0.6102 -0.3531
 8768SOL     OW29195   0.115   8.906   0.411 -0.5439 -0.2686 -0.1165
 8768SOL    HW129196   0.109   8.984   0.356 -1.1795  0.6111  1.1431
 8768SOL    HW229197   0.024   8.877   0.420 -0.4045 -0.6160  0.1585
 8769SOL     OW29198   1.877   0.517   3.288 -0.1915  0.1946 -0.1879
 8769SOL    HW129199   1.916   0.602   3.311 -1.3407  1.3038 -2.0041
 8769SOL    HW229200   1.802   0.540   3.232 -1.6416 -1.9679  0.7363
 8770SOL     OW29201   5.451   5.956   8.325  0.4700 -0.0069  0.0921
 8770SOL    HW129202   5.387   5.889   8.350  0.3034  0.5513  1.2092
 8770SOL    HW229203   5.533   5.925   8.362  0.4744  0.1898  0.2495
 8771SOL     OW29204   3.113   9.164   0.327  0.1024 -0.0715 -0.6507
 8771SOL    HW129205   3.054   9.122   0.264 -0.3148 -0.5302  0.0328
 8771SOL    HW229206   3.080   9.254   0.334 -2.4142 -1.0451  1.8895
 8772SOL     OW29207   6.527   8.964   7.148  0.7183  0.2398  0.0418
 8772SOL    HW129208   6.474   8.965   7.228  1.1257 -0.5717  0.3340
 8772SOL    HW229209   6.581   8.885   7.156  0.9579  0.2939 -0.9111
 8773SOL     OW29210   1.940   8.038   1.804 -0.1956  0.0399  0.2043
 8773SOL    HW129211   1.867   8.050   1.864  0.1603 -3.6159  1.5859
 8773SOL    HW229212   2.018   8.064   1.854 -0.2300  1.3137 -0.3414
 8774SOL     OW29213   6.495   8.666   6.729  0.2298  0.3770 -0.2027
 8774SOL    HW129214   6.446   8.744   6.750  1.0669  1.1441 -0.9802
 8774SOL    HW229215   6.586   8.695   6.724  0.6458 -0.7830  0.1596
 8775SOL     OW29216   1.110   6.375   9.456 -0.2279  0.6628 -0.4483
 8775SOL    HW129217   1.142   6.356   9.544  0.1267  1.6224 -0.3580
 8775SOL    HW229218   1.017   6.351   9.459  0.0938 -0.5896 -0.2287
 8776SOL     OW29219   7.083   3.674   8.610  0.3984 -0.0946 -0.4845
 8776SOL    HW129220   7.003   3.679   8.663  1.5009 -0.0439  1.2780
 8776SOL    HW229221   7.083   3.754   8.558 -0.0101  0.6163  0.5636
 8777SOL     OW29222   3.855   8.613   2.361 -0.5381 -0.1872  0.0565
 8777SOL    HW129223   3.788   8.604   2.293  0.7727 -0.0213 -1.3109
 8777SOL    HW229224   3.855   8.528   2.406 -1.7903 -0.1179  0.2278
 8778SOL     OW29225   8.766   5.049   4.616  0.2055  0.0694  0.1904
 8778SOL    HW129226   8.691   5.042   4.676 -0.3806  1.0216 -0.4077
 8778SOL    HW229227   8.823   5.115   4.657 -0.0027  0.4297 -0.1008
 8779SOL     OW29228   9.385   5.510   8.673 -0.3434 -0.2728  0.5668
 8779SOL    HW129229   9.371   5.491   8.766  1.3043 -0.8364  0.7337
 8779SOL    HW229230   9.333   5.444   8.627 -1.7826  0.4801  1.0507
 8780SOL     OW29231   3.499   6.201   9.195 -0.2002 -0.4247 -0.2357
 8780SOL    HW129232   3.481   6.295   9.192 -0.4923 -0.4994 -1.4286
 8780SOL    HW229233   3.499   6.174   9.103  0.0586 -1.5631  0.0832
 8781SOL     OW29234   5.058   7.598   1.536 -0.2070 -0.1225  0.1100
 8781SOL    HW129235   5.150   7.580   1.522 -0.8458 -2.6912 -1.5224
 8781SOL    HW229236   5.032   7.542   1.609 -0.3578  1.1460  1.0627
 8782SOL     OW29237   2.976   1.940   1.321 -0.1556 -0.1269 -0.0269
 8782SOL    HW129238   3.009   1.921   1.232  0.9510  0.7235  0.1845
 8782SOL    HW229239   3.049   1.916   1.378 -0.7850 -0.4475  0.6511
 8783SOL     OW29240   8.822   7.674   5.236 -0.1407 -0.2647  0.4431
 8783SOL    HW129241   8.843   7.756   5.193  1.7696 -0.7068  0.4483
 8783SOL    HW229242   8.792   7.700   5.323 -0.2707  0.4520  0.1915
 8784SOL     OW29243   1.258   9.149   8.470 -0.1241 -0.1172  0.5983
 8784SOL    HW129244   1.311   9.110   8.539  2.0214 -0.4776 -1.1308
 8784SOL    HW229245   1.249   9.241   8.496  1.5845  0.0142  0.8719
 8785SOL     OW29246   3.300   4.071   0.581 -0.3527  0.4056 -0.7713
 8785SOL    HW129247   3.268   4.129   0.650 -1.0362 -0.5376 -0.2665
 8785SOL    HW229248   3.396   4.079   0.587 -0.3398 -0.4140  1.0197
 8786SOL     OW29249   5.320   5.017   3.023 -0.9444 -0.1491 -0.7476
 8786SOL    HW129250   5.352   4.932   2.993  0.0901 -0.5684  1.3700
 8786SOL    HW229251   5.391   5.078   3.001  0.5070 -0.7106  1.9891
 8787SOL     OW29252   4.120   5.995   3.249 -0.0649 -0.1709 -0.2155
 8787SOL    HW129253   4.206   6.004   3.207 -0.2199 -1.0278 -0.7585
 8787SOL    HW229254   4.069   6.069   3.215 -0.3047 -1.0541 -1.9015
 8788SOL     OW29255   7.233   1.175   2.774 -0.1306 -0.4036  0.0981
 8788SOL    HW129256   7.285   1.254   2.792  1.3090 -1.7817  2.4171
 8788SOL    HW229257   7.156   1.183   2.830  0.3593 -0.9268  0.8669
 8789SOL     OW29258   4.137   4.875   3.601  0.3871 -0.3561  0.1051
 8789SOL    HW129259   4.195   4.858   3.527  2.8245  0.1280  1.7725
 8789SOL    HW229260   4.171   4.819   3.671 -0.2961  0.9657  1.5513
 8790SOL     OW29261   3.908   2.539   9.215  0.0066 -0.5218 -0.3106
 8790SOL    HW129262   3.855   2.619   9.212  0.4644 -0.1127  1.3142
 8790SOL    HW229263   3.934   2.524   9.125  0.4772  1.5829 -0.5843
 8791SOL     OW29264   9.358   7.354   5.729  0.6933 -0.4367 -0.2355
 8791SOL    HW129265   9.269   7.389   5.721  0.1892 -1.8901 -1.2246
 8791SOL    HW229266   9.372   7.349   5.824 -0.4297 -0.5732 -0.0537
 8792SOL     OW29267   7.683   9.222   9.397  0.5749  0.1635  0.8792
 8792SOL    HW129268   7.728   9.160   9.340 -0.8380  0.1389 -0.2770
 8792SOL    HW229269   7.753   9.263   9.448  1.5915 -1.9367  1.2683
 8793SOL     OW29270   5.571   0.391   6.764 -0.6370  0.2074  0.2778
 8793SOL    HW129271   5.598   0.395   6.856  1.9544 -2.3557 -0.2026
 8793SOL    HW229272   5.654   0.383   6.715 -1.8997  1.8017 -2.3410
 8794SOL     OW29273   6.300   8.302   3.534 -0.3300 -0.7246 -0.1156
 8794SOL    HW129274   6.277   8.392   3.556  1.2781 -0.4356  0.4606
 8794SOL    HW229275   6.323   8.305   3.441 -0.0936 -0.5011 -0.0499
 8795SOL     OW29276   3.644   5.424   1.897  0.1822 -0.7028 -0.1422
 8795SOL    HW129277   3.677   5.364   1.963 -1.2834 -1.4703 -0.0828
 8795SOL    HW229278   3.579   5.477   1.942 -1.5017 -1.8452 -1.1319
 8796SOL     OW29279   0.609   2.247   8.275 -0.1642  0.1477 -0.2483
 8796SOL    HW129280   0.582   2.159   8.249 -2.5311  0.7556 -0.0644
 8796SOL    HW229281   0.705   2.246   8.268  0.0717 -3.0117  1.5937
 8797SOL     OW29282   5.620   4.091   1.555  0.4897  0.1551 -0.4574
 8797SOL    HW129283   5.547   4.147   1.581  0.2437 -0.5703  0.4729
 8797SOL    HW229284   5.658   4.062   1.638  0.4522 -1.2614 -0.9027
 8798SOL     OW29285   7.880   3.280   4.148 -0.0302  0.0574  0.4430
 8798SOL    HW129286   7.890   3.189   4.119  0.0408 -0.1001  0.9462
 8798SOL    HW229287   7.835   3.274   4.232 -2.0959  0.6213 -0.5667
 8799SOL     OW29288   7.739   1.259   9.415 -0.7440  0.2227 -0.0218
 8799SOL    HW129289   7.728   1.241   9.508 -2.0410 -1.5647 -0.4612
 8799SOL    HW229290   7.650   1.261   9.380 -0.2455 -0.4908 -1.4210
 8800SOL     OW29291   6.787   0.387   5.256 -0.0546  0.6966  0.0821
 8800SOL    HW129292   6.852   0.346   5.198  1.1291  1.1957  1.0065
 8800SOL    HW229293   6.783   0.328   5.331 -1.8585 -0.1454 -0.6239
 8801SOL     OW29294   0.786   4.860   5.363 -0.0371 -0.4137 -0.4590
 8801SOL    HW129295   0.858   4.859   5.427 -0.3832 -1.1660 -0.0651
 8801SOL    HW229296   0.718   4.914   5.404  0.6209  1.0491 -1.2185
 8802SOL     OW29297   3.036   4.635   3.081  0.2967  0.0880 -0.1039
 8802SOL    HW129298   2.989   4.637   2.998  1.9499 -0.9170 -1.1062
 8802SOL    HW229299   2.972   4.667   3.145 -0.7205  1.8098 -1.8742
 8803SOL     OW29300   9.555   1.827   5.345  0.0105 -0.1225 -0.0105
 8803SOL    HW129301   9.563   1.835   5.440 -1.5210  0.1565  0.1254
 8803SOL    HW229302   9.517   1.740   5.331 -2.4779  0.9233 -0.1413
 8804SOL     OW29303   5.864   2.705   0.167 -0.3570 -0.0602 -0.1449
 8804SOL    HW129304   5.952   2.737   0.182 -0.1302 -0.8023  0.1057
 8804SOL    HW229305   5.849   2.639   0.234 -0.7961 -0.5366 -0.6962
 8805SOL     OW29306   8.788   0.211   0.177 -0.8451  0.8592  0.1718
 8805SOL    HW129307   8.813   0.255   0.258  0.2541  1.5503 -0.5288
 8805SOL    HW229308   8.849   0.138   0.169 -0.3637  1.3253 -0.4852
 8806SOL     OW29309   5.917   5.127   0.211  0.6202 -1.0729  0.1589
 8806SOL    HW129310   5.828   5.096   0.230  0.4791  0.2724  1.9502
 8806SOL    HW229311   5.923   5.212   0.255  2.0164  0.0240 -1.9708
 8807SOL     OW29312   1.789   5.822   7.230  0.3663  0.0400 -0.2863
 8807SOL    HW129313   1.821   5.747   7.280 -0.0550 -0.8894 -1.3666
 8807SOL    HW229314   1.699   5.800   7.209  0.2896  0.7819 -0.7630
 8808SOL     OW29315   2.240   3.239   6.854 -0.5339  0.5354  0.1468
 8808SOL    HW129316   2.191   3.258   6.934 -0.0316 -0.1984  0.6403
 8808SOL    HW229317   2.184   3.272   6.783 -1.6951 -0.1804  0.7012
 8809SOL     OW29318   7.987   5.486   4.231 -0.2447 -0.0621 -0.2993
 8809SOL    HW129319   7.903   5.441   4.233 -0.7932  0.9415  0.4238
 8809SOL    HW229320   7.980   5.546   4.157  0.2799 -0.7622 -0.9333
 8810SOL     OW29321   7.365   5.345   8.132 -0.3401  0.9790 -0.3373
 8810SOL    HW129322   7.363   5.399   8.053 -2.6418  0.9239 -0.3923
 8810SOL    HW229323   7.299   5.278   8.117  1.3734 -0.9534  0.3788
 8811SOL     OW29324   4.258   6.349   2.384 -0.3838 -0.6641  0.0579
 8811SOL    HW129325   4.177   6.388   2.351  0.9441  2.4063  0.1344
 8811SOL    HW229326   4.278   6.398   2.463  2.1072 -0.5579 -0.5578
 8812SOL     OW29327   5.654   7.014   9.086 -0.3136  0.3290  0.7000
 8812SOL    HW129328   5.613   6.993   9.170 -1.3496  0.3965  0.2328
 8812SOL    HW229329   5.748   7.013   9.104 -0.3377 -2.6581  1.2063
 8813SOL     OW29330   3.887   3.094   8.431 -0.1225 -0.5383  0.2441
 8813SOL    HW129331   3.870   3.176   8.385 -0.0812 -0.7336 -0.1191
 8813SOL    HW229332   3.800   3.060   8.453 -0.1656 -0.8152 -0.3456
 8814SOL     OW29333   7.978   6.869   1.669  0.2078  0.2873 -0.0923
 8814SOL    HW129334   7.940   6.950   1.637 -1.6044 -0.9202 -1.1931
 8814SOL    HW229335   7.937   6.854   1.754  1.5950  1.1714  0.7826
 8815SOL     OW29336   5.984   7.879   7.206 -0.3340 -0.4538  0.4724
 8815SOL    HW129337   6.074   7.879   7.241 -0.1570  1.3979  0.1455
 8815SOL    HW229338   5.991   7.931   7.125 -1.8811  0.6670  1.0209
 8816SOL     OW29339   2.991   6.979   1.240 -0.1475 -0.0434  0.4081
 8816SOL    HW129340   2.981   7.074   1.234  0.1531 -0.0739 -1.0345
 8816SOL    HW229341   3.084   6.964   1.228  0.0513 -0.4491  2.2588
 8817SOL     OW29342   1.756   2.636   4.677 -0.4162  0.8355 -0.5438
 8817SOL    HW129343   1.765   2.720   4.631 -1.7712  2.0312  1.2250
 8817SOL    HW229344   1.756   2.571   4.607  4.2916  1.8347 -1.8170
 8818SOL     OW29345   7.568   3.900   5.387 -0.2178 -0.0009  0.0785
 8818SOL    HW129346   7.554   3.815   5.346  0.6213  0.5040 -1.3601
 8818SOL    HW229347   7.624   3.882   5.463  1.5845 -0.5687 -1.3053
 8819SOL     OW29348   5.218   7.827   9.380 -0.2422 -0.2137 -0.1644
 8819SOL    HW129349   5.149   7.869   9.432  1.5833  0.9229  1.4442
 8819SOL    HW229350   5.195   7.734   9.380  0.0445 -0.3890  3.3689
 8820SOL     OW29351   7.960   9.110   3.526  0.8662  0.4066 -0.2442
 8820SOL    HW129352   7.920   9.152   3.449 -0.7590  0.7214  0.7118
 8820SOL    HW229353   7.885   9.073   3.574  2.1474 -3.1034 -0.6935
 8821SOL     OW29354   4.876   4.073   1.668  0.3185  0.5703 -0.1813
 8821SOL    HW129355   4.906   4.138   1.732  2.6098 -1.6531  1.1960
 8821SOL    HW229356   4.876   3.990   1.716 -1.4220 -0.6691 -2.1499
 8822SOL     OW29357   8.557   3.443   5.484 -0.6375  0.5351  0.3249
 8822SOL    HW129358   8.538   3.408   5.571 -0.6708  0.4587  0.2863
 8822SOL    HW229359   8.600   3.372   5.438 -0.5531  0.6003  0.3025
 8823SOL     OW29360   0.440   0.516   3.563 -0.0611  1.2569 -0.0832
 8823SOL    HW129361   0.536   0.516   3.567  0.0513 -1.3457 -1.0730
 8823SOL    HW229362   0.414   0.440   3.615 -1.4618  0.8415 -1.3242
 8824SOL     OW29363   0.630   0.273   4.062  0.2796  0.2193  0.3879
 8824SOL    HW129364   0.612   0.328   3.986  0.1960  0.0241  0.2663
 8824SOL    HW229365   0.716   0.235   4.045  0.8719  1.2508  1.0282
 8825SOL     OW29366   3.362   9.321   8.071 -0.1600  0.6101  0.3310
 8825SOL    HW129367   3.342   9.355   8.158 -1.1344  3.3119 -0.8544
 8825SOL    HW229368   3.391   9.231   8.087 -0.1579  1.0546  3.4282
 8826SOL     OW29369   3.035   2.712   1.126  0.0191  0.1002  0.0608
 8826SOL    HW129370   3.011   2.620   1.129  0.4434 -0.0056  0.3326
 8826SOL    HW229371   3.095   2.719   1.052 -0.3729  0.2468 -0.2438
 8827SOL     OW29372   7.413   6.577   9.163  0.3078 -0.1878  0.7931
 8827SOL    HW129373   7.438   6.569   9.071  0.4684  0.3355  0.7878
 8827SOL    HW229374   7.320   6.553   9.164  0.8399 -2.5141  0.8750
 8828SOL     OW29375   1.814   8.668   2.129 -0.3466 -0.1026  0.4930
 8828SOL    HW129376   1.907   8.654   2.146 -0.4598  0.4724  1.6579
 8828SOL    HW229377   1.772   8.660   2.214 -1.1455  1.3195  0.2689
 8829SOL     OW29378   0.954   9.301   5.888  0.2920  0.3479 -0.4805
 8829SOL    HW129379   0.872   9.350   5.896  0.7153  0.8968  0.7470
 8829SOL    HW229380   1.011   9.359   5.837  0.6687  1.0022  0.6520
 8830SOL     OW29381   2.187   4.659   1.905 -0.6516  0.3289  0.2808
 8830SOL    HW129382   2.280   4.661   1.929 -0.9594  0.5397  1.5253
 8830SOL    HW229383   2.141   4.655   1.988 -1.7620 -0.1521 -0.3381
 8831SOL     OW29384   7.866   0.344   1.248  0.7123 -0.5937  0.4564
 8831SOL    HW129385   7.881   0.290   1.171 -1.6319  0.5232 -0.9091
 8831SOL    HW229386   7.942   0.402   1.253  1.0636 -0.9267 -0.7926
 8832SOL     OW29387   0.746   4.540   9.074 -0.0157 -0.3146 -0.3652
 8832SOL    HW129388   0.686   4.591   9.127  0.3777  0.7429 -0.9115
 8832SOL    HW229389   0.754   4.589   8.992  0.9120 -0.8878 -0.6356
 8833SOL     OW29390   0.695   8.331   7.842  0.2272  0.5382  0.3696
 8833SOL    HW129391   0.742   8.329   7.759 -0.9261 -1.1116 -0.3024
 8833SOL    HW229392   0.605   8.308   7.820  0.2033 -1.5749  2.2268
 8834SOL     OW29393   1.650   2.874   9.071  0.0194  0.1014 -0.1923
 8834SOL    HW129394   1.562   2.847   9.097  0.5636 -1.1411  0.4805
 8834SOL    HW229395   1.705   2.848   9.145  1.0409  0.2652 -0.8783
 8835SOL     OW29396   3.608   7.800   7.037 -0.6434  0.0011  0.4260
 8835SOL    HW129397   3.698   7.828   7.051 -0.8191  0.5077  0.5906
 8835SOL    HW229398   3.614   7.710   7.005 -0.0786  0.0895  0.2908
 8836SOL     OW29399   7.054   3.281   5.711  0.1160 -0.2242 -0.1074
 8836SOL    HW129400   6.987   3.227   5.754  1.0714 -0.2449  1.4599
 8836SOL    HW229401   7.116   3.217   5.674 -0.7433 -0.2067 -1.6419
 8837SOL     OW29402   3.726   4.996   0.574 -0.1903 -0.4518  0.0787
 8837SOL    HW129403   3.786   4.981   0.501  0.9304  2.2979  0.3162
 8837SOL    HW229404   3.640   5.004   0.532 -0.0653 -1.9460 -0.5419
 8838SOL     OW29405   7.219   8.230   1.807 -0.0531  0.3756  0.0833
 8838SOL    HW129406   7.159   8.295   1.771 -2.7099 -1.0327  1.7272
 8838SOL    HW229407   7.264   8.276   1.879 -0.5610  0.9119  0.0591
 8839SOL     OW29408   3.189   5.914   3.533 -0.5862  0.1667 -0.5366
 8839SOL    HW129409   3.218   5.997   3.572 -2.7295  0.6220  0.2645
 8839SOL    HW229410   3.258   5.852   3.556  0.1417  1.3121  0.5619
 8840SOL     OW29411   7.507   0.709   5.295 -0.4336  0.0825 -0.5531
 8840SOL    HW129412   7.520   0.757   5.213  1.3304 -0.5468 -0.6796
 8840SOL    HW229413   7.472   0.774   5.355  2.3241  1.7628 -0.5794
 8841SOL     OW29414   1.797   1.935   1.872  0.5920 -0.2098 -0.0713
 8841SOL    HW129415   1.879   1.895   1.845 -0.2638 -0.5003 -2.5145
 8841SOL    HW229416   1.730   1.872   1.845 -0.5828  1.2223 -0.6130
 8842SOL     OW29417   0.898   7.015   1.022  0.0110  0.3678  0.3065
 8842SOL    HW129418   0.963   7.007   0.953 -0.5848 -3.6173 -0.0266
 8842SOL    HW229419   0.843   7.089   0.996  3.4841  3.1170 -0.0142
 8843SOL     OW29420   6.139   4.338   1.006 -0.3982 -0.8666  0.1006
 8843SOL    HW129421   6.156   4.257   0.958 -1.8166 -1.9237  1.2763
 8843SOL    HW229422   6.116   4.309   1.094  0.9871  0.9495  1.1243
 8844SOL     OW29423   8.772   1.949   5.831  0.3771 -0.3293  0.3980
 8844SOL    HW129424   8.770   2.044   5.819  0.0897 -0.6485 -3.1854
 8844SOL    HW229425   8.686   1.919   5.802  0.2088 -1.6812  2.1582
 8845SOL     OW29426   1.433   5.460   0.337  0.3511 -0.0080 -0.0515
 8845SOL    HW129427   1.491   5.428   0.268 -1.1358 -2.8144 -0.1602
 8845SOL    HW229428   1.451   5.403   0.412 -1.8507 -0.6395  0.0675
 8846SOL     OW29429   0.890   8.282   0.527  0.0830  0.3626  0.4270
 8846SOL    HW129430   0.873   8.360   0.473 -0.4799 -0.1400 -0.1338
 8846SOL    HW229431   0.810   8.270   0.577 -1.5180 -2.1623 -2.3973
 8847SOL     OW29432   7.306   4.490   5.678 -0.0728  0.2998 -0.1860
 8847SOL    HW129433   7.378   4.496   5.615 -0.7062  1.6286 -0.8144
 8847SOL    HW229434   7.237   4.442   5.632 -0.2279  0.5477 -0.2172
 8848SOL     OW29435   6.233   2.187   8.233 -0.1009 -0.2266  0.2259
 8848SOL    HW129436   6.244   2.235   8.150  0.5596  0.3414  0.6306
 8848SOL    HW229437   6.314   2.137   8.243 -0.2384 -0.4048  0.4636
 8849SOL     OW29438   2.514   0.314   6.725 -0.1487 -0.1984  0.1391
 8849SOL    HW129439   2.537   0.272   6.808 -0.2490 -0.5362 -0.0061
 8849SOL    HW229440   2.531   0.407   6.741  0.4262 -0.3309  0.3405
 8850SOL     OW29441   8.639   7.994   2.126 -0.0204  0.5431 -0.1627
 8850SOL    HW129442   8.573   8.059   2.152 -2.5776 -2.2931  1.1119
 8850SOL    HW229443   8.594   7.941   2.059  1.0477 -1.3139  0.5187
 8851SOL     OW29444   3.004   0.378   3.717 -0.0179 -0.1147  0.0861
 8851SOL    HW129445   2.912   0.393   3.737  0.1860  0.2028  0.7816
 8851SOL    HW229446   3.045   0.464   3.725  0.9946 -0.7837  3.2845
 8852SOL     OW29447   9.305   3.062   0.142  0.5056 -0.2239 -0.0565
 8852SOL    HW129448   9.398   3.046   0.125  0.6039 -0.1228  0.3707
 8852SOL    HW229449   9.279   2.989   0.199 -0.1926 -1.4200 -1.8199
 8853SOL     OW29450   4.124   5.995   3.982  0.2326  0.7481 -0.0951
 8853SOL    HW129451   4.051   6.010   4.041  1.2085 -0.0625  1.3834
 8853SOL    HW229452   4.086   5.945   3.909 -0.4738 -0.7975  1.2629
 8854SOL     OW29453   4.117   7.202   2.839  0.4677  0.2607 -0.0161
 8854SOL    HW129454   4.098   7.296   2.841  1.5199  0.5084 -0.7877
 8854SOL    HW229455   4.132   7.179   2.931 -1.3828  0.4796  0.3774
 8855SOL     OW29456   4.155   6.259   7.795 -0.0745 -0.0272  0.0177
 8855SOL    HW129457   4.123   6.341   7.832  0.6315 -0.3302  1.3534
 8855SOL    HW229458   4.186   6.209   7.870  2.1154 -0.3580 -1.0058
 8856SOL     OW29459   5.309   1.978   5.228 -0.1383  0.1270  0.3763
 8856SOL    HW129460   5.224   1.964   5.185 -1.5098 -0.5017  3.0344
 8856SOL    HW229461   5.362   1.904   5.200 -0.7592  0.0702 -0.6971
 8857SOL     OW29462   6.490   2.341   4.358  0.4177  0.1476 -0.1710
 8857SOL    HW129463   6.496   2.430   4.394 -2.2545  0.2805  0.1402
 8857SOL    HW229464   6.511   2.284   4.433  0.1536  0.4933  0.1713
 8858SOL     OW29465   5.301   7.539   4.109 -0.7882 -0.1836 -0.3723
 8858SOL    HW129466   5.250   7.604   4.061 -0.1644  0.2903 -0.4127
 8858SOL    HW229467   5.384   7.534   4.060 -1.6505 -2.6955 -1.7358
 8859SOL     OW29468   1.582   5.660   2.043  0.4263 -0.0055 -0.2346
 8859SOL    HW129469   1.529   5.625   1.971  1.4674 -1.4927 -0.3402
 8859SOL    HW229470   1.536   5.739   2.071 -3.8888 -2.8908  2.0187
 8860SOL     OW29471   0.117   6.631   3.449 -0.3368 -0.7925  0.5634
 8860SOL    HW129472   0.196   6.599   3.492  0.6283 -1.0137 -1.2777
 8860SOL    HW229473   0.133   6.616   3.356 -1.0864  2.2754 -0.1747
 8861SOL     OW29474   0.979   8.289   8.325 -0.1430  0.3247 -0.2321
 8861SOL    HW129475   1.002   8.381   8.333  2.4014 -0.3836  3.5837
 8861SOL    HW229476   0.938   8.267   8.409 -1.0190 -1.9422 -1.1636
 8862SOL     OW29477   1.728   0.493   5.944  0.6448 -0.2992 -0.1696
 8862SOL    HW129478   1.693   0.551   5.876  0.0634 -0.7264 -0.2348
 8862SOL    HW229479   1.657   0.434   5.965  1.1973 -0.9242 -0.0202
 8863SOL     OW29480   6.135   2.497   1.458 -0.3194 -0.0055 -0.3442
 8863SOL    HW129481   6.103   2.499   1.368 -0.2484 -3.4863 -0.5974
 8863SOL    HW229482   6.209   2.559   1.459 -0.3713  0.1859 -2.6458
 8864SOL     OW29483   8.887   7.289   5.703  0.3445  0.7502  0.0717
 8864SOL    HW129484   8.891   7.225   5.632  2.5546  1.1124 -0.1775
 8864SOL    HW229485   8.854   7.239   5.778  0.9519 -0.4155 -0.4127
 8865SOL     OW29486   5.531   2.943   1.061 -0.2699 -0.3578 -0.1982
 8865SOL    HW129487   5.558   2.924   0.972  0.2284 -2.7540  0.4013
 8865SOL    HW229488   5.513   3.037   1.061  0.8366 -0.0820 -2.5003
 8866SOL     OW29489   1.169   2.532   6.814 -1.1099 -0.0296 -0.3311
 8866SOL    HW129490   1.186   2.593   6.886 -0.7319  2.1573 -2.1331
 8866SOL    HW229491   1.130   2.456   6.856  1.4133  0.0279  2.4661
 8867SOL     OW29492   9.220   4.203   7.128  0.4070 -0.0316  0.2799
 8867SOL    HW129493   9.294   4.170   7.078  0.0461  0.2416 -0.4478
 8867SOL    HW229494   9.228   4.298   7.124 -0.5073  0.0193 -0.6230
 8868SOL     OW29495   6.112   4.223   4.159 -0.2848 -0.3912  0.0267
 8868SOL    HW129496   6.173   4.270   4.102  0.4149 -1.2606  0.0330
 8868SOL    HW229497   6.166   4.198   4.234 -1.2981  1.1709  1.3472
 8869SOL     OW29498   8.741   1.987   8.367 -0.1218 -0.0301  0.2456
 8869SOL    HW129499   8.752   1.931   8.290 -0.2424  0.4549 -0.1270
 8869SOL    HW229500   8.802   1.951   8.432 -1.3390 -1.5900  0.5809
 8870SOL     OW29501   2.430   5.567   3.822  0.8665 -0.1363 -0.2220
 8870SOL    HW129502   2.380   5.490   3.846 -0.1484  0.0956 -1.4575
 8870SOL    HW229503   2.479   5.540   3.744  0.4121  0.4915 -0.7327
 8871SOL     OW29504   2.752   6.418   3.690 -0.0696 -0.3522  0.4089
 8871SOL    HW129505   2.787   6.502   3.661  0.1925 -0.6985 -0.3014
 8871SOL    HW229506   2.764   6.418   3.785  2.7817 -0.8583  0.1300
 8872SOL     OW29507   7.565   2.221   1.986 -0.3536 -0.7353  0.7457
 8872SOL    HW129508   7.552   2.301   2.038 -0.8676 -0.2409 -0.1029
 8872SOL    HW229509   7.530   2.244   1.900  1.8444 -1.0106 -0.2865
 8873SOL     OW29510   6.835   5.028   1.946  0.0488  0.4426 -0.0587
 8873SOL    HW129511   6.782   5.104   1.924  1.4715  1.5598  0.2531
 8873SOL    HW229512   6.842   5.030   2.042 -0.0401 -0.1784 -0.0347
 8874SOL     OW29513   5.116   4.600   7.220 -0.3109 -0.1242  0.0095
 8874SOL    HW129514   5.093   4.526   7.277  0.6110  0.1700  0.7908
 8874SOL    HW229515   5.212   4.602   7.221 -0.3222  1.7588  0.9175
 8875SOL     OW29516   7.537   5.008   6.286 -0.0983 -0.0194 -0.2574
 8875SOL    HW129517   7.628   4.996   6.258 -0.0077 -3.0806  0.9697
 8875SOL    HW229518   7.534   5.097   6.321  2.3931  0.2156 -0.4966
 8876SOL     OW29519   9.009   2.242   5.146  0.2060  0.4381  0.2026
 8876SOL    HW129520   9.068   2.280   5.080  2.0951 -0.5342  1.2605
 8876SOL    HW229521   8.970   2.167   5.102 -1.4651  1.9267 -1.0006
 8877SOL     OW29522   6.691   7.214   5.031 -0.1797  0.1915 -0.0623
 8877SOL    HW129523   6.680   7.121   5.012  1.8576 -0.1405  0.0951
 8877SOL    HW229524   6.690   7.220   5.126  2.6449 -0.2176  0.0990
 8878SOL     OW29525   5.356   7.339   3.782  0.5409  0.4009 -0.2551
 8878SOL    HW129526   5.412   7.416   3.781  1.0790  0.0128 -0.5782
 8878SOL    HW229527   5.401   7.277   3.839 -0.1884  0.5336  0.4887
 8879SOL     OW29528   7.078   6.696   0.094 -0.0088 -0.3204  0.0727
 8879SOL    HW129529   7.128   6.726   0.170 -1.3970  0.4219  0.7374
 8879SOL    HW229530   7.109   6.750   0.021 -0.2977  0.5844  0.6067
 8880SOL     OW29531   6.123   9.086   2.564  0.6958 -0.2975 -0.3773
 8880SOL    HW129532   6.208   9.122   2.589  0.7927 -0.8171  0.0477
 8880SOL    HW229533   6.130   9.075   2.469  0.4856  1.2462 -0.5928
 8881SOL     OW29534   7.472   2.500   0.019  0.2544 -0.3630  0.0715
 8881SOL    HW129535   7.475   2.456  -0.066 -0.8488  0.5231 -0.4548
 8881SOL    HW229536   7.551   2.554   0.020 -0.0648  0.1418 -0.7057
 8882SOL     OW29537   5.946   4.668   1.530  0.2402  0.1084  0.2410
 8882SOL    HW129538   5.888   4.607   1.483  2.7459 -2.9952  0.7960
 8882SOL    HW229539   6.009   4.696   1.464  1.1505 -0.7538  0.7145
 8883SOL     OW29540   6.386   4.321   8.189 -0.1370  0.2146  0.3844
 8883SOL    HW129541   6.467   4.332   8.140 -0.5442  1.4520 -0.0493
 8883SOL    HW229542   6.409   4.344   8.279  0.5563 -1.8339  0.7743
 8884SOL     OW29543   0.973   1.510   3.717  0.1943  0.7846  0.6040
 8884SOL    HW129544   1.018   1.531   3.799  2.5114 -0.5841 -0.2209
 8884SOL    HW229545   0.927   1.591   3.694  0.8349  1.7154  2.4009
 8885SOL     OW29546   5.819   0.311   6.625 -0.3088  0.1563 -0.1357
 8885SOL    HW129547   5.860   0.225   6.618 -0.9475 -0.1182 -0.5174
 8885SOL    HW229548   5.886   0.365   6.667  0.6168 -0.1670 -1.1452
 8886SOL     OW29549   3.163   5.740   0.772  0.0400 -0.3232 -0.4956
 8886SOL    HW129550   3.162   5.813   0.711 -1.5265  0.7315  0.7139
 8886SOL    HW229551   3.231   5.764   0.836 -0.1183 -0.1754 -0.3828
 8887SOL     OW29552   8.765   3.364   1.932 -0.5621  0.6221 -0.4421
 8887SOL    HW129553   8.744   3.305   1.859 -0.0134  0.8150 -0.7655
 8887SOL    HW229554   8.836   3.320   1.979  1.3556  1.9451 -1.9206
 8888SOL     OW29555   0.528   6.590   5.336 -0.6842 -0.2101  0.1182
 8888SOL    HW129556   0.531   6.497   5.316  0.5772 -0.3125  0.7367
 8888SOL    HW229557   0.434   6.610   5.342 -1.0468 -1.0163 -1.8792
 8889SOL     OW29558   6.211   2.515   0.144 -0.2508  0.1621  0.4603
 8889SOL    HW129559   6.154   2.503   0.220  0.4969 -2.1775  0.7402
 8889SOL    HW229560   6.289   2.558   0.180 -0.0464 -0.6190  0.9994
 8890SOL     OW29561   0.403   9.518   9.093  0.1722  0.1750  0.1686
 8890SOL    HW129562   0.382   9.592   9.150  1.7401  0.9857 -0.2654
 8890SOL    HW229563   0.383   9.549   9.005 -1.4407 -0.7823  0.1616
 8891SOL     OW29564   5.198   5.712   3.160 -0.1884  0.6808  0.5619
 8891SOL    HW129565   5.185   5.768   3.083 -2.8310 -1.0765 -0.4367
 8891SOL    HW229566   5.245   5.636   3.127  0.5537  0.8598  1.1893
 8892SOL     OW29567   4.166   2.220   2.387 -0.0810 -0.4897 -0.4083
 8892SOL    HW129568   4.076   2.247   2.367 -0.4378 -0.8263  0.6195
 8892SOL    HW229569   4.171   2.130   2.355 -1.1076 -1.5378  2.0609
 8893SOL     OW29570   2.916   2.999   0.747  0.0015 -0.1919  0.1052
 8893SOL    HW129571   2.965   3.011   0.666 -0.0787 -0.1789  0.0592
 8893SOL    HW229572   2.982   3.010   0.816  0.6112 -2.6207  0.0066
 8894SOL     OW29573   7.790   7.624   5.858  0.1246 -0.1079 -0.0454
 8894SOL    HW129574   7.829   7.705   5.891 -0.0283 -0.2343  0.4511
 8894SOL    HW229575   7.777   7.571   5.936  1.0015 -0.9478 -0.4521
 8895SOL     OW29576   0.582   4.122   4.692  0.5026  0.2371 -0.5722
 8895SOL    HW129577   0.570   4.035   4.654  1.5008  0.5368 -1.6567
 8895SOL    HW229578   0.665   4.153   4.655  1.4771  0.6434  1.7623
 8896SOL     OW29579   5.598   9.537   0.643 -0.2427 -0.2133 -0.5596
 8896SOL    HW129580   5.572   9.543   0.735 -0.2545  0.1738 -0.5854
 8896SOL    HW229581   5.679   9.486   0.643 -0.9878 -1.4267 -0.4735
 8897SOL     OW29582   1.800   5.947   0.670 -0.3569  0.4216 -0.1373
 8897SOL    HW129583   1.858   6.008   0.623 -2.2286  3.1958  0.9004
 8897SOL    HW229584   1.855   5.912   0.741  0.9578  0.3221 -1.1594
 8898SOL     OW29585   0.300   5.851   4.882  0.0361 -0.1973  0.6665
 8898SOL    HW129586   0.213   5.810   4.891 -0.4292  0.8183  0.8818
 8898SOL    HW229587   0.292   5.905   4.804  0.5540 -0.2605  0.5694
 8899SOL     OW29588   0.574   7.937   1.431  0.2316 -0.0511 -0.2449
 8899SOL    HW129589   0.482   7.961   1.423 -0.2070 -0.6030  2.2913
 8899SOL    HW229590   0.590   7.877   1.358 -2.0154 -1.5048  0.3660
 8900SOL     OW29591   7.400   5.084   3.697  0.3057  0.7098  0.3455
 8900SOL    HW129592   7.408   5.016   3.764  1.4936 -1.1636 -1.5596
 8900SOL    HW229593   7.308   5.108   3.698 -0.6546 -2.4944 -0.2760
 8901SOL     OW29594   1.258   4.517   0.253  0.6739  0.2696  0.0640
 8901SOL    HW129595   1.204   4.592   0.277  1.5260  1.2430 -0.9881
 8901SOL    HW229596   1.287   4.534   0.164 -1.1124 -2.5061 -1.1832
 8902SOL     OW29597   6.944   0.832   9.243  0.6941  0.0773  0.0504
 8902SOL    HW129598   6.965   0.921   9.217  0.0772  0.6493  1.4019
 8902SOL    HW229599   6.849   0.826   9.231  0.7587 -0.4708 -0.2251
 8903SOL     OW29600   0.677   3.721   5.565 -0.3325 -0.0546  0.0587
 8903SOL    HW129601   0.749   3.668   5.531  0.5870  0.9123  0.4264
 8903SOL    HW229602   0.678   3.800   5.511 -0.6970  0.2451  0.4830
 8904SOL     OW29603   2.597   6.985   5.627  0.1248 -0.8326  0.1284
 8904SOL    HW129604   2.677   7.035   5.643 -1.0139  2.0200 -2.1916
 8904SOL    HW229605   2.621   6.922   5.560  0.4170  0.1385 -0.6952
 8905SOL     OW29606   4.919   7.902   8.552 -0.1100 -0.0349 -0.2951
 8905SOL    HW129607   4.836   7.926   8.512 -0.2335 -2.9419 -2.1356
 8905SOL    HW229608   4.897   7.827   8.608  1.1037 -0.2876 -0.1292
 8906SOL     OW29609   9.066   8.277   1.685  1.1331 -0.0670  0.1110
 8906SOL    HW129610   8.999   8.338   1.655 -1.0938 -1.9137  1.0245
 8906SOL    HW229611   9.127   8.332   1.735  0.2079  1.6612 -0.5623
 8907SOL     OW29612   4.953   1.329   1.959  0.1525  0.0470  0.7521
 8907SOL    HW129613   4.899   1.384   1.903  0.5348 -0.8901 -0.5746
 8907SOL    HW229614   4.891   1.286   2.018 -0.1204  2.2168  2.1801
 8908SOL     OW29615   5.048   2.095   9.516 -0.1270 -0.1421 -0.0078
 8908SOL    HW129616   4.994   2.099   9.437 -0.5288  1.0211  0.3085
 8908SOL    HW229617   5.123   2.151   9.497  0.5665 -1.0861 -0.1272
 8909SOL     OW29618   2.657   2.488   6.018  0.1804  0.5663  0.2267
 8909SOL    HW129619   2.613   2.570   6.042 -2.8769 -1.1128  0.9289
 8909SOL    HW229620   2.708   2.465   6.096  0.0163  1.1543  0.5145
 8910SOL     OW29621   5.057   2.686   9.370  0.3509 -0.1723  0.6719
 8910SOL    HW129622   5.139   2.645   9.343  0.6491  1.0957 -0.4131
 8910SOL    HW229623   4.990   2.640   9.320  0.7075  0.7953 -0.7362
 8911SOL     OW29624   8.528   3.272   9.122 -0.2322 -0.5093 -0.2177
 8911SOL    HW129625   8.584   3.224   9.060  0.8599  0.0767  0.2748
 8911SOL    HW229626   8.499   3.207   9.185  0.6729 -0.6652  0.0495
 8912SOL     OW29627   5.256   5.988   5.067  0.0513  0.0857  0.3333
 8912SOL    HW129628   5.214   6.016   4.986  2.2550  0.9200 -0.5922
 8912SOL    HW229629   5.255   5.892   5.063 -0.8040  0.1035 -0.1412
 8913SOL     OW29630   0.522   5.845   4.622 -0.1349  0.4436  0.0432
 8913SOL    HW129631   0.592   5.899   4.585  0.6823  0.5916  1.7068
 8913SOL    HW229632   0.451   5.907   4.639  0.9443  1.1746  2.3157
 8914SOL     OW29633   4.019   2.897   3.458 -0.0079 -0.2725 -0.2165
 8914SOL    HW129634   3.994   2.832   3.524  0.5124  0.9426  1.2577
 8914SOL    HW229635   4.002   2.981   3.501 -2.5130  0.6646 -2.7358
 8915SOL     OW29636   5.882   5.909   1.141  0.0164 -0.4734 -0.8043
 8915SOL    HW129637   5.896   5.815   1.151 -3.5663 -1.3075 -2.1254
 8915SOL    HW229638   5.938   5.934   1.067  3.3465 -0.7260  1.3863
 8916SOL     OW29639   2.627   4.434   7.364  0.3664 -0.0728 -0.1262
 8916SOL    HW129640   2.709   4.482   7.356  0.3849  0.2538  1.6506
 8916SOL    HW229641   2.623   4.381   7.285  1.8732  0.5422 -0.6517
 8917SOL     OW29642   8.950   4.925   6.852 -0.2378 -0.0660 -0.6384
 8917SOL    HW129643   9.036   4.937   6.812 -0.2322 -0.3256 -0.7050
 8917SOL    HW229644   8.954   4.976   6.933 -0.4154  0.8723 -1.2022
 8918SOL     OW29645   9.060   0.909   8.931 -0.0700  0.2013 -0.3624
 8918SOL    HW129646   9.059   0.952   9.016 -4.3819 -1.4664  0.7084
 8918SOL    HW229647   9.107   0.827   8.946 -2.0548 -0.7803  1.0048
 8919SOL     OW29648   3.890   5.282   5.645 -0.3495 -0.1696 -0.4085
 8919SOL    HW129649   3.818   5.317   5.697  1.3419  1.2442  1.1347
 8919SOL    HW229650   3.969   5.310   5.691  1.2181 -1.8634 -1.8766
 8920SOL     OW29651   4.018   9.384   1.914  0.5599  0.3161  0.0288
 8920SOL    HW129652   4.043   9.344   1.997  0.9532  1.4811  0.4871
 8920SOL    HW229653   3.959   9.455   1.938  1.3540  1.2221 -0.5929
 8921SOL     OW29654   7.981   5.643   7.966  0.0263 -0.3717 -0.6429
 8921SOL    HW129655   7.926   5.667   7.892 -1.0977 -2.4124 -0.5347
 8921SOL    HW229656   8.056   5.599   7.927  0.6464  0.6734 -0.6713
 8922SOL     OW29657   4.474   6.084   7.560  0.1701 -0.2557  0.1184
 8922SOL    HW129658   4.501   5.998   7.590  0.6206  0.2819  1.2932
 8922SOL    HW229659   4.392   6.068   7.512 -0.6045 -1.1436  1.6734
 8923SOL     OW29660   3.969   2.368   3.583  0.1353 -0.1383 -0.0869
 8923SOL    HW129661   4.045   2.370   3.641  0.0885 -0.8106  0.0039
 8923SOL    HW229662   4.007   2.367   3.495  0.2194  0.0454 -0.0535
 8924SOL     OW29663   4.980   3.226   6.965  0.1551 -0.3578  0.4347
 8924SOL    HW129664   5.021   3.268   6.890  0.5272 -1.1044  0.2202
 8924SOL    HW229665   4.937   3.148   6.929 -0.2548 -0.3484  0.8863
 8925SOL     OW29666   4.193   2.976   5.674  0.6129 -0.7633 -0.2115
 8925SOL    HW129667   4.232   3.037   5.736 -0.7573 -0.1577  0.0951
 8925SOL    HW229668   4.175   3.030   5.597 -1.5347 -0.4856  0.4243
 8926SOL     OW29669   4.271   7.506   8.034  0.5125  0.2555 -0.4653
 8926SOL    HW129670   4.345   7.448   8.020  1.0559  1.3302 -2.3403
 8926SOL    HW229671   4.237   7.525   7.946 -1.6583  0.2332  0.2902
 8927SOL     OW29672   2.634   0.423   1.837 -0.4755 -0.1770 -0.0055
 8927SOL    HW129673   2.688   0.415   1.915 -0.9038 -0.4727  0.2650
 8927SOL    HW229674   2.630   0.517   1.820  0.1907 -0.1564 -0.0858
 8928SOL     OW29675   9.350   4.853   0.180 -0.0407 -0.3587 -0.0568
 8928SOL    HW129676   9.377   4.780   0.124 -1.6638 -1.3720  0.4151
 8928SOL    HW229677   9.270   4.886   0.141 -0.7796 -0.5790  1.2093
 8929SOL     OW29678   6.390   6.339   9.057 -0.8671 -0.1531  0.8999
 8929SOL    HW129679   6.416   6.427   9.083 -2.0931 -0.0722  1.9677
 8929SOL    HW229680   6.295   6.338   9.068 -1.0299 -1.1999 -0.3847
 8930SOL     OW29681   8.632   9.360   4.755  0.0436  0.0842  0.2085
 8930SOL    HW129682   8.606   9.437   4.806 -0.7532 -0.0132 -0.0412
 8930SOL    HW229683   8.601   9.286   4.806 -1.9104  0.0085 -0.9820
 8931SOL     OW29684   5.234   1.202   1.791  0.1445  0.0963 -0.1262
 8931SOL    HW129685   5.316   1.249   1.808 -0.9755  1.4775  1.7431
 8931SOL    HW229686   5.170   1.270   1.772 -0.9976 -0.8102  0.3235
 8932SOL     OW29687   1.953   0.954   8.571 -0.3103 -0.1639 -0.1063
 8932SOL    HW129688   1.901   0.920   8.644 -0.0445  0.4326  0.3725
 8932SOL    HW229689   1.896   0.946   8.495 -0.0409 -2.2515 -0.1410
 8933SOL     OW29690   4.642   3.399   0.781  0.3925 -0.9820  0.8365
 8933SOL    HW129691   4.550   3.397   0.755  0.4810  0.4285  0.3076
 8933SOL    HW229692   4.646   3.463   0.852  1.3322  1.1188 -0.9896
 8934SOL     OW29693   1.235   9.097   0.938 -0.6131  0.4524  0.0292
 8934SOL    HW129694   1.263   9.107   0.847  1.8159  1.1711  0.7793
 8934SOL    HW229695   1.161   9.157   0.947  0.8098  2.4539 -0.8213
 8935SOL     OW29696   0.906   5.024   3.858 -0.6185 -0.1314  0.4030
 8935SOL    HW129697   0.855   5.019   3.777 -0.5831  0.5547  0.3257
 8935SOL    HW229698   0.843   5.007   3.928 -0.5945 -1.0021  0.2245
 8936SOL     OW29699   3.336   5.140   3.385  0.2607  0.0249 -0.3203
 8936SOL    HW129700   3.296   5.227   3.374  1.0384  0.2342 -1.7439
 8936SOL    HW229701   3.262   5.080   3.385 -0.3367  0.7108  1.2566
 8937SOL     OW29702   6.744   6.307   1.879  0.4193 -0.0017 -0.3180
 8937SOL    HW129703   6.815   6.243   1.885 -0.0903 -0.5274  0.3992
 8937SOL    HW229704   6.665   6.254   1.869 -0.1708  0.4058  1.6274
 8938SOL     OW29705   6.666   3.915   9.498 -0.1956  0.1148  0.1467
 8938SOL    HW129706   6.736   3.850   9.496 -0.8082 -0.5338 -0.8854
 8938SOL    HW229707   6.623   3.902   9.582  1.0660  0.7062  0.9141
 8939SOL     OW29708   1.151   6.872   4.231  0.2134  0.6929 -0.1013
 8939SOL    HW129709   1.144   6.955   4.183 -1.4393  1.4954  1.4037
 8939SOL    HW229710   1.223   6.886   4.293 -0.1031  1.0377  0.1928
 8940SOL     OW29711   6.219   5.504   8.751 -0.0415 -0.2300 -0.2526
 8940SOL    HW129712   6.213   5.423   8.700  1.9715  0.3454 -1.5140
 8940SOL    HW229713   6.303   5.497   8.796 -0.8027  0.2645  1.3165
 8941SOL     OW29714   5.471   3.937   8.429 -0.7515  0.2285 -0.8204
 8941SOL    HW129715   5.416   4.004   8.471 -1.7844 -2.2614  2.2162
 8941SOL    HW229716   5.413   3.862   8.419  1.0647 -1.1587 -1.5104
 8942SOL     OW29717   7.269   2.997   8.002  0.0576 -0.1419  0.4275
 8942SOL    HW129718   7.196   3.055   8.026  0.3727  0.0007  1.0620
 8942SOL    HW229719   7.284   2.945   8.081  1.0697  0.2791  0.5196
 8943SOL     OW29720   6.242   4.427   1.312 -0.5482 -0.3571 -0.1126
 8943SOL    HW129721   6.237   4.505   1.366 -2.8424 -0.6372  0.1763
 8943SOL    HW229722   6.336   4.413   1.299  0.0452  0.5639  2.5426
 8944SOL     OW29723   0.950   4.022   5.680  0.0430 -0.4853  0.9284
 8944SOL    HW129724   0.963   4.010   5.586 -2.7112  0.1148  0.3603
 8944SOL    HW229725   1.036   4.047   5.714  1.4638 -2.2719 -1.1181
 8945SOL     OW29726   4.513   6.769   6.294 -0.1655 -0.3379 -0.1727
 8945SOL    HW129727   4.433   6.820   6.305 -0.9070 -1.3055 -0.9586
 8945SOL    HW229728   4.583   6.828   6.324 -0.8961  1.4733 -1.8072
 8946SOL     OW29729   5.958   1.552   3.787 -0.5148 -0.3732  0.1545
 8946SOL    HW129730   5.945   1.512   3.873  0.6372  0.8444  0.9330
 8946SOL    HW229731   6.053   1.547   3.772 -0.6656 -0.3045 -0.9164
 8947SOL     OW29732   9.064   1.560   2.148 -0.2459 -0.1574  0.3877
 8947SOL    HW129733   9.051   1.473   2.184 -1.3218  0.0562  0.5378
 8947SOL    HW229734   9.102   1.544   2.061  1.7316 -0.6819  1.2829
 8948SOL     OW29735   3.001   1.773   7.070 -0.4322 -0.4283 -0.7980
 8948SOL    HW129736   3.072   1.826   7.033  1.1975 -1.8248  0.1877
 8948SOL    HW229737   3.000   1.795   7.163 -1.8771  0.1758 -0.9297
 8949SOL     OW29738   3.870   4.512   8.737  0.5907  0.0814  0.1260
 8949SOL    HW129739   3.792   4.509   8.793 -0.2811 -2.6852 -1.0587
 8949SOL    HW229740   3.909   4.425   8.746  0.9878 -0.1240 -2.6918
 8950SOL     OW29741   7.977   2.225   8.146 -0.1101  0.2442  0.5146
 8950SOL    HW129742   7.982   2.145   8.199 -1.2327  1.1487  2.0674
 8950SOL    HW229743   8.031   2.288   8.192  0.9691  0.3470 -0.8397
 8951SOL     OW29744   4.426   6.201   4.133 -0.8922 -0.2279 -0.2856
 8951SOL    HW129745   4.389   6.211   4.221 -0.0271  0.6435 -0.0018
 8951SOL    HW229746   4.442   6.291   4.104  1.2976 -0.5614 -0.2578
 8952SOL     OW29747   1.275   4.396   3.773 -0.0536 -0.1850  0.3468
 8952SOL    HW129748   1.351   4.389   3.831 -1.0387 -0.1051  1.7043
 8952SOL    HW229749   1.236   4.480   3.796  0.0036  0.2547 -1.0703
 8953SOL     OW29750   5.565   1.856   2.358 -0.3782 -0.2029  0.2060
 8953SOL    HW129751   5.525   1.838   2.443  1.5086 -0.6563  1.0507
 8953SOL    HW229752   5.564   1.772   2.313 -0.1072 -0.2930  0.3622
 8954SOL     OW29753   1.129   4.405   8.045  0.0326 -0.2345  0.1660
 8954SOL    HW129754   1.042   4.420   8.082  0.1332  1.6341 -0.2879
 8954SOL    HW229755   1.190   4.429   8.116  0.1962 -0.4211  0.0904
 8955SOL     OW29756   1.229   5.924   4.135  0.3543  0.1738  0.3569
 8955SOL    HW129757   1.255   5.865   4.064 -0.4947  0.2315 -0.0210
 8955SOL    HW229758   1.144   5.890   4.163 -0.7188  1.8594 -0.6493
 8956SOL     OW29759   7.422   4.359   6.133  0.9833  0.6904  0.5562
 8956SOL    HW129760   7.381   4.426   6.078  0.2686  0.3271  0.6401
 8956SOL    HW229761   7.477   4.408   6.194  0.9257  1.1615  0.2336
 8957SOL     OW29762   1.879   8.250   3.888 -0.1633  0.5478 -0.2344
 8957SOL    HW129763   1.888   8.219   3.978  0.0886 -1.2780 -0.8430
 8957SOL    HW229764   1.868   8.344   3.896  1.8254  0.7105  1.6100
 8958SOL     OW29765   3.271   0.301   6.356  0.5740 -0.2608  0.1631
 8958SOL    HW129766   3.235   0.223   6.314  0.1899 -1.0863  1.9414
 8958SOL    HW229767   3.248   0.292   6.449  1.9465  1.1581  0.6974
 8959SOL     OW29768   8.767   8.182   9.168  0.1765  0.7295  0.3537
 8959SOL    HW129769   8.737   8.266   9.133 -1.8397 -0.6180 -1.4134
 8959SOL    HW229770   8.742   8.118   9.101 -0.8016 -1.6192  2.7958
 8960SOL     OW29771   1.942   8.023   3.362  0.4075 -0.0273  1.0602
 8960SOL    HW129772   1.982   8.048   3.279 -0.5344  1.2083  0.9466
 8960SOL    HW229773   1.993   7.948   3.391  0.4705 -0.7812 -0.8511
 8961SOL     OW29774   9.644   0.624   1.592  0.0917  0.3298 -0.7669
 8961SOL    HW129775   9.680   0.658   1.510 -0.2172  1.9810 -0.2584
 8961SOL    HW229776   9.707   0.652   1.659  0.4665 -1.2110 -0.4466
 8962SOL     OW29777   0.190   1.485   3.341  0.2586  0.0250  0.6407
 8962SOL    HW129778   0.169   1.572   3.373  2.0761  0.9353 -0.5112
 8962SOL    HW229779   0.246   1.447   3.410  0.5785  0.2967  0.5324
 8963SOL     OW29780   1.495   7.032   3.784  0.1787  0.8252 -0.3112
 8963SOL    HW129781   1.424   6.998   3.839  2.3019 -1.4358  1.2187
 8963SOL    HW229782   1.457   7.035   3.695 -1.5112 -1.3317  0.2577
 8964SOL     OW29783   8.684   4.621   1.589  0.5645 -0.3329  0.0966
 8964SOL    HW129784   8.630   4.639   1.666  0.0412 -0.1432 -0.3072
 8964SOL    HW229785   8.772   4.649   1.614  0.2905  0.2437  0.4349
 8965SOL     OW29786   5.937   3.560   3.610  0.3696 -0.4781  0.0868
 8965SOL    HW129787   6.012   3.501   3.613 -0.0802 -1.0598  0.3202
 8965SOL    HW229788   5.971   3.645   3.638  0.8746 -0.8076  0.4860
 8966SOL     OW29789   2.762   0.078   8.146 -0.5210  0.0560 -0.5246
 8966SOL    HW129790   2.799   0.114   8.065 -0.6098 -0.6206 -0.8792
 8966SOL    HW229791   2.695   0.016   8.116 -2.0299  1.3177  0.0977
 8967SOL     OW29792   0.640   9.331   3.377 -0.3304 -0.2386  0.5900
 8967SOL    HW129793   0.669   9.363   3.462 -1.0122 -0.7756  1.0377
 8967SOL    HW229794   0.700   9.260   3.356  1.4869  1.5426 -0.6258
 8968SOL     OW29795   1.015   9.323   8.853 -0.1029 -0.3027 -0.3594
 8968SOL    HW129796   1.024   9.348   8.761  0.7387  2.1761  0.3118
 8968SOL    HW229797   0.963   9.243   8.851  0.5006 -0.7368 -3.0214
 8969SOL     OW29798   5.249   2.893   8.028 -0.8885 -0.5001  0.2174
 8969SOL    HW129799   5.182   2.925   8.089 -2.7057 -0.7329 -1.5761
 8969SOL    HW229800   5.299   2.971   8.004 -2.9653  0.4491 -1.3079
 8970SOL     OW29801   2.304   6.708   5.527  0.0284 -0.2474 -0.5060
 8970SOL    HW129802   2.337   6.627   5.489  0.7629  0.1229 -0.6672
 8970SOL    HW229803   2.216   6.686   5.558 -0.6696 -0.5464 -2.5335
 8971SOL     OW29804   8.518   1.808   5.932 -0.2024  0.2936  0.0637
 8971SOL    HW129805   8.602   1.825   5.974 -0.7478  0.2876  1.1952
 8971SOL    HW229806   8.534   1.735   5.873  0.4076 -0.2262  0.8577
 8972SOL     OW29807   7.778   8.824   0.892 -0.2153 -0.3389 -0.0581
 8972SOL    HW129808   7.777   8.880   0.815 -0.6335 -0.2016  0.0467
 8972SOL    HW229809   7.867   8.832   0.927 -1.4779  4.3415  2.9297
 8973SOL     OW29810   6.829   8.078   4.871 -0.1652 -0.0204  0.1491
 8973SOL    HW129811   6.882   8.031   4.936  0.0272  0.4924  0.3770
 8973SOL    HW229812   6.741   8.079   4.907  0.2056  1.5079  1.1455
 8974SOL     OW29813   8.405   5.175   3.624 -0.7214  0.0167 -0.1952
 8974SOL    HW129814   8.409   5.178   3.720 -0.0853 -1.1463 -0.1698
 8974SOL    HW229815   8.494   5.151   3.597 -1.0466 -0.2492 -1.0500
 8975SOL     OW29816   1.879   1.763   7.075  0.3486 -0.3892  0.4303
 8975SOL    HW129817   1.968   1.772   7.109  1.2853 -1.6428 -1.5426
 8975SOL    HW229818   1.858   1.849   7.039  1.5552 -0.6130 -0.8586
 8976SOL     OW29819   0.019   5.245   6.706  0.0858  0.4141 -0.1011
 8976SOL    HW129820  -0.035   5.185   6.654 -0.1558  2.6680 -2.6595
 8976SOL    HW229821  -0.040   5.318   6.727  1.1585  1.1806  0.3218
 8977SOL     OW29822   7.637   9.452   5.360 -0.0077 -0.0353 -0.5356
 8977SOL    HW129823   7.668   9.369   5.324  0.0394 -0.4972  0.5398
 8977SOL    HW229824   7.716   9.498   5.387 -0.1507 -1.1153  1.9920
 8978SOL     OW29825   1.825   5.039   1.666  0.1562  0.2836 -0.6196
 8978SOL    HW129826   1.914   5.064   1.644  0.0525  0.4378 -0.8730
 8978SOL    HW229827   1.781   5.028   1.581 -0.3272  1.1663 -0.5023
 8979SOL     OW29828   0.127   0.442   5.049  0.0976  0.1797 -0.4008
 8979SOL    HW129829   0.123   0.386   4.972  0.3474 -1.3765  0.6680
 8979SOL    HW229830   0.221   0.451   5.066  0.0904 -2.1741  1.5051
 8980SOL     OW29831   1.370   4.408   5.683 -0.2340  0.1061  0.1630
 8980SOL    HW129832   1.438   4.413   5.616  1.0118  0.1985  1.3758
 8980SOL    HW229833   1.311   4.481   5.662  0.5092  0.5579 -0.4299
 8981SOL     OW29834   7.879   5.706   6.924 -0.3286  0.8042 -0.1473
 8981SOL    HW129835   7.916   5.712   7.012  1.7149  0.8138 -0.9549
 8981SOL    HW229836   7.848   5.616   6.916 -3.7814  1.6455  1.7153
 8982SOL     OW29837   4.892   3.163   8.124 -0.6716 -0.0233  0.0554
 8982SOL    HW129838   4.976   3.191   8.160 -1.0786 -0.3848  1.3671
 8982SOL    HW229839   4.906   3.072   8.098 -0.3007  0.3186 -1.0150
 8983SOL     OW29840   3.202   8.851   8.268 -0.2287  0.1605  0.4470
 8983SOL    HW129841   3.190   8.758   8.247  0.1042  0.2636 -0.2387
 8983SOL    HW229842   3.122   8.893   8.239 -0.0502  0.2035  0.0162
 8984SOL     OW29843   7.512   0.818   0.220  0.1516  0.3507 -0.0132
 8984SOL    HW129844   7.572   0.865   0.279 -0.3585  0.1590  0.6763
 8984SOL    HW229845   7.433   0.805   0.272  0.7618 -2.5529  0.3906
 8985SOL     OW29846   5.587   1.820   4.763 -0.6573 -0.5913  0.0959
 8985SOL    HW129847   5.502   1.830   4.807 -0.7271 -0.0123 -0.1593
 8985SOL    HW229848   5.569   1.838   4.671  0.0624  1.5263  0.2944
 8986SOL     OW29849   8.485   1.496   8.303 -0.1440  0.3916 -0.0853
 8986SOL    HW129850   8.425   1.568   8.322 -0.6890 -0.0702 -0.0217
 8986SOL    HW229851   8.436   1.418   8.326  1.4622  0.0832  2.7271
 8987SOL     OW29852   7.709   0.094   0.068 -0.1836 -0.2582  0.3380
 8987SOL    HW129853   7.798   0.070   0.043  0.0038  1.0778 -0.3459
 8987SOL    HW229854   7.705   0.189   0.057 -1.6800 -0.2854  0.4093
 8988SOL     OW29855   5.672   1.669   4.087  0.0609 -0.7358 -0.0577
 8988SOL    HW129856   5.659   1.763   4.099  1.3814 -0.7682  2.4426
 8988SOL    HW229857   5.765   1.660   4.067  0.5701 -1.5625  2.2451
 8989SOL     OW29858   2.837   4.181   3.415 -0.0738  0.1082 -0.5749
 8989SOL    HW129859   2.875   4.095   3.437 -2.2084 -0.9216 -0.6999
 8989SOL    HW229860   2.764   4.190   3.476  0.3013  2.0096 -0.3669
 8990SOL     OW29861   5.371   8.069   3.177 -0.1079  0.5928  0.3204
 8990SOL    HW129862   5.339   8.138   3.120  1.5282  0.9088 -0.2589
 8990SOL    HW229863   5.465   8.084   3.183  0.1816 -1.1636  0.7431
 8991SOL     OW29864   4.631   7.150   7.188  0.4778 -0.0780 -0.1854
 8991SOL    HW129865   4.562   7.203   7.149  0.6858  0.7661  0.5580
 8991SOL    HW229866   4.664   7.203   7.261  1.0073 -1.0342  0.2960
 8992SOL     OW29867   2.278   4.680   4.162 -0.1230 -0.0350  0.1719
 8992SOL    HW129868   2.359   4.730   4.153 -0.4512  0.3818 -0.6015
 8992SOL    HW229869   2.282   4.643   4.249  1.2311 -0.5888 -0.1020
 8993SOL     OW29870   0.067   9.276   9.520  0.3080 -0.6040 -0.0442
 8993SOL    HW129871   0.128   9.204   9.505  0.2142 -0.6634 -0.1432
 8993SOL    HW229872  -0.017   9.233   9.538  0.1143 -0.5116 -0.7009
 8994SOL     OW29873   7.986   1.875   2.225 -0.0192 -0.4420  0.1525
 8994SOL    HW129874   7.898   1.880   2.262  0.2572  2.0935  0.6676
 8994SOL    HW229875   8.044   1.884   2.301  0.6404 -0.3270 -0.3575
 8995SOL     OW29876   0.692   5.979   0.344 -0.0240 -0.6024  0.4461
 8995SOL    HW129877   0.759   5.939   0.289  0.7812 -1.6142  2.0946
 8995SOL    HW229878   0.616   5.988   0.287  0.8259 -1.4285 -0.8668
 8996SOL     OW29879   8.912   0.079   0.825 -0.2599 -0.5386  0.4082
 8996SOL    HW129880   8.922  -0.001   0.877  0.1381 -1.2574 -0.7326
 8996SOL    HW229881   8.845   0.129   0.872  0.4042 -0.9332  1.8548
 8997SOL     OW29882   7.944   3.109   3.218  0.2045  0.2655  0.0228
 8997SOL    HW129883   7.958   3.189   3.269  1.3907 -1.0816  1.9269
 8997SOL    HW229884   7.852   3.087   3.232  0.3267  0.3376  0.9838
 8998SOL     OW29885   0.549   2.360   0.204  0.5315  0.0345  0.5387
 8998SOL    HW129886   0.521   2.271   0.184  0.3844 -0.3300  2.2717
 8998SOL    HW229887   0.643   2.353   0.221  1.0309  0.6480 -1.6626
 8999SOL     OW29888   8.477   8.944   6.830  0.0910 -0.0394  0.3879
 8999SOL    HW129889   8.547   9.005   6.807  1.2360 -1.5474 -0.2769
 8999SOL    HW229890   8.405   9.000   6.858  0.2589  1.7564 -2.3997
 9000SOL     OW29891   5.947   3.335   2.348  0.5474  0.7095  0.1603
 9000SOL    HW129892   5.921   3.242   2.348 -1.7805  1.2922 -0.5334
 9000SOL    HW229893   5.973   3.352   2.438  0.0964 -0.3933  0.5227
 9001SOL     OW29894   8.056   6.069   6.377  0.0576 -0.0125 -0.4833
 9001SOL    HW129895   8.101   6.150   6.354 -0.0209  0.5487  1.2172
 9001SOL    HW229896   8.043   6.074   6.472  0.4565 -2.2266 -0.2424
 9002SOL     OW29897   0.620   7.981   8.329 -0.1207  0.8907 -0.5441
 9002SOL    HW129898   0.599   8.074   8.324  2.9273  1.6979 -0.5720
 9002SOL    HW229899   0.648   7.957   8.240 -1.7830 -0.3843 -0.7903
 9003SOL     OW29900   8.956   6.479   4.196 -0.0255  0.4195  0.2923
 9003SOL    HW129901   8.904   6.420   4.141 -0.4617  0.8388  0.2520
 9003SOL    HW229902   9.016   6.521   4.134  0.7280 -0.4440  0.4135
 9004SOL     OW29903   0.954   3.776   8.288 -0.2724  0.3920 -0.2251
 9004SOL    HW129904   0.951   3.703   8.350  0.4445 -0.3896 -1.0682
 9004SOL    HW229905   1.042   3.772   8.252 -0.3744  1.4187 -0.6041
 9005SOL     OW29906   3.035   9.032   0.588 -0.3804 -0.3439 -0.1655
 9005SOL    HW129907   3.073   9.060   0.671 -1.4570  2.5215 -0.5247
 9005SOL    HW229908   3.071   9.093   0.523 -0.4647 -1.7745 -1.6425
 9006SOL     OW29909   2.443   7.866   1.881 -0.2197  0.2940 -0.3408
 9006SOL    HW129910   2.377   7.927   1.913  0.7405  0.3880  1.6288
 9006SOL    HW229911   2.517   7.921   1.855 -0.6293  0.1501 -1.9378
 9007SOL     OW29912   1.177   4.207   3.993  0.1825  0.0626 -0.4115
 9007SOL    HW129913   1.237   4.141   3.959  0.6153  0.2451 -0.0187
 9007SOL    HW229914   1.201   4.288   3.947 -1.4943 -0.3799 -2.1971
 9008SOL     OW29915   2.953   9.003   4.149 -0.5754 -0.1539 -0.2072
 9008SOL    HW129916   2.948   8.946   4.225 -0.6426  2.2132  1.6848
 9008SOL    HW229917   2.869   8.990   4.104 -0.7133 -1.2777  0.3268
 9009SOL     OW29918   6.956   2.658   0.692 -0.3190  0.8955  0.3129
 9009SOL    HW129919   6.997   2.617   0.768 -0.0226  0.2794 -0.1624
 9009SOL    HW229920   6.898   2.590   0.657  1.7769  0.0301 -1.7566
 9010SOL     OW29921   6.222   5.406   1.405  0.2205  0.7695  0.0318
 9010SOL    HW129922   6.149   5.466   1.390 -0.3205  0.0163 -0.4520
 9010SOL    HW229923   6.252   5.383   1.317 -0.1526 -0.3348  0.1783
 9011SOL     OW29924   2.543   0.269   3.064 -0.0786  0.2787  0.0101
 9011SOL    HW129925   2.519   0.224   2.984 -1.1225  1.3605 -0.3190
 9011SOL    HW229926   2.639   0.270   3.064 -0.0208 -1.5755 -0.1309
 9012SOL     OW29927   5.295   4.029   4.015 -0.8146  0.0262  0.1615
 9012SOL    HW129928   5.243   3.948   4.006 -1.2147  0.3967 -1.0519
 9012SOL    HW229929   5.386   4.000   4.006 -0.8783 -0.4412  0.9256
 9013SOL     OW29930   0.795   4.723   1.221  0.5528  0.5692 -0.3229
 9013SOL    HW129931   0.749   4.639   1.231  1.9225 -0.4682 -2.2333
 9013SOL    HW229932   0.797   4.758   1.310 -2.1076 -0.2644  0.1823
 9014SOL     OW29933   2.562   4.914   2.654 -0.0104 -0.4002 -0.1049
 9014SOL    HW129934   2.507   4.928   2.730  1.5603 -0.9954  1.2056
 9014SOL    HW229935   2.584   5.002   2.623  0.2760 -0.1264  0.8550
 9015SOL     OW29936   3.877   1.640   9.144 -0.4811  0.2241 -0.4900
 9015SOL    HW129937   3.921   1.673   9.223  0.8936 -0.6441 -0.8599
 9015SOL    HW229938   3.905   1.549   9.137 -1.1868  0.0735 -1.5730
 9016SOL     OW29939   1.570   2.994   2.958 -0.1741 -0.1590 -0.0434
 9016SOL    HW129940   1.580   3.044   3.039  2.2289  1.5246 -1.2372
 9016SOL    HW229941   1.659   2.965   2.936 -0.7524 -0.6278 -2.0161
 9017SOL     OW29942   4.307   8.420   3.167  0.2536  0.5615  0.5392
 9017SOL    HW129943   4.386   8.471   3.149  2.5334 -2.6348  0.5351
 9017SOL    HW229944   4.337   8.349   3.223 -2.2260 -1.8742 -0.9617
 9018SOL     OW29945   7.673   7.612   3.387 -0.2743 -0.1566 -0.0591
 9018SOL    HW129946   7.606   7.560   3.431 -1.1931 -0.3587 -1.6159
 9018SOL    HW229947   7.717   7.660   3.458 -1.1958 -1.0005  1.1227
 9019SOL     OW29948   6.899   7.755   6.021  0.7325 -0.0957 -0.2656
 9019SOL    HW129949   6.862   7.688   6.079  2.1978 -0.0610  0.7738
 9019SOL    HW229950   6.928   7.706   5.944  0.0674 -0.3655 -0.3494
 9020SOL     OW29951   9.632   9.484   7.905 -0.4115  0.2074  0.3804
 9020SOL    HW129952   9.661   9.574   7.888 -0.9040 -0.1339 -2.8943
 9020SOL    HW229953   9.712   9.432   7.906 -0.2844  0.4002  0.1847
 9021SOL     OW29954   7.861   8.587   5.274  0.1418  0.0395 -0.1984
 9021SOL    HW129955   7.827   8.503   5.245  0.8591 -1.2640  2.4513
 9021SOL    HW229956   7.954   8.586   5.251  0.6945 -0.9649  1.8883
 9022SOL     OW29957   4.651   5.254   4.247  0.5718  0.5664  0.3381
 9022SOL    HW129958   4.680   5.163   4.253  1.2512  0.7179 -0.4634
 9022SOL    HW229959   4.559   5.249   4.223  1.0946  0.0735 -1.8041
 9023SOL     OW29960   7.099   2.994   5.928  0.5599  0.1304  0.4627
 9023SOL    HW129961   7.077   2.922   5.870 -0.0192  1.3939 -0.9459
 9023SOL    HW229962   7.015   3.031   5.953  0.8497  0.2836  1.2412
 9024SOL     OW29963   0.061   2.405   4.856  0.0502  0.0686  0.6249
 9024SOL    HW129964   0.137   2.457   4.830 -0.8514  1.2809  0.3371
 9024SOL    HW229965   0.030   2.365   4.775  0.3824 -0.4314  0.7434
 9025SOL     OW29966   6.362   3.750   9.198  0.2576 -0.0601  0.2502
 9025SOL    HW129967   6.365   3.685   9.129 -3.1370 -1.6697  1.4206
 9025SOL    HW229968   6.394   3.704   9.276 -0.6235  0.1602  0.7539
 9026SOL     OW29969   8.548   0.292   2.206 -0.3544 -0.5535 -0.4458
 9026SOL    HW129970   8.565   0.373   2.158 -0.2443 -0.0414  0.4308
 9026SOL    HW229971   8.467   0.308   2.254 -0.1156 -0.8019  0.0604
 9027SOL     OW29972   1.012   1.664   6.192 -0.5319  0.2403 -0.3116
 9027SOL    HW129973   1.102   1.688   6.173 -0.5352  1.4263  1.0862
 9027SOL    HW229974   0.960   1.741   6.167 -0.8953  0.4644  1.0905
 9028SOL     OW29975   0.381   8.610   7.891  0.2869  0.3781  0.5009
 9028SOL    HW129976   0.334   8.568   7.963  0.4302  2.1447  1.6834
 9028SOL    HW229977   0.468   8.570   7.893  0.1273  0.0412  0.9637
 9029SOL     OW29978   5.562   5.691   4.227  0.1431  0.3024  0.2865
 9029SOL    HW129979   5.474   5.653   4.222 -0.2618  1.2291  0.1734
 9029SOL    HW229980   5.620   5.618   4.205 -0.5528 -0.4780  0.9622
 9030SOL     OW29981   3.764   1.584   3.973  0.1685 -0.0705 -0.2250
 9030SOL    HW129982   3.739   1.675   3.991 -0.0802 -0.2375  0.2989
 9030SOL    HW229983   3.859   1.582   3.990  0.1135  0.0120  0.1123
 9031SOL     OW29984   0.552   7.817   4.275  0.0476 -0.5760  0.0696
 9031SOL    HW129985   0.555   7.756   4.349 -0.6454 -1.6628 -0.7733
 9031SOL    HW229986   0.586   7.767   4.201  0.8596  0.5435 -0.3316
 9032SOL     OW29987   6.517   7.926   0.766 -0.5997 -0.6637  0.3670
 9032SOL    HW129988   6.521   7.848   0.711  0.1230  0.9911 -2.1322
 9032SOL    HW229989   6.462   7.987   0.717 -0.6544  0.6041  1.9355
 9033SOL     OW29990   3.168   3.448   8.171 -0.3616  0.1186  0.7956
 9033SOL    HW129991   3.179   3.540   8.148 -0.7850  0.1629  0.7500
 9033SOL    HW229992   3.125   3.450   8.257 -2.0215  0.0021  0.0205
 9034SOL     OW29993   6.598   7.141   2.853  0.1508 -0.3614  0.8008
 9034SOL    HW129994   6.595   7.080   2.780  0.7904 -0.1015  0.5516
 9034SOL    HW229995   6.591   7.086   2.931 -0.8763 -0.6128  0.5503
 9035SOL     OW29996   8.400   6.790   2.463  0.0761  0.1743  0.3395
 9035SOL    HW129997   8.319   6.781   2.413 -0.8100  1.5214  1.4566
 9035SOL    HW229998   8.460   6.833   2.404  0.3689 -1.7463 -0.8563
 9036SOL     OW29999   7.404   6.798   5.754 -0.1342  0.2310 -0.0003
 9036SOL    HW130000   7.495   6.829   5.749 -0.3747  0.8461 -0.7833
 9036SOL    HW230001   7.363   6.856   5.819  0.3717 -0.9744  1.4468
 9037SOL     OW30002   3.888   5.297   5.179 -0.7648 -0.3502 -0.7373
 9037SOL    HW130003   3.959   5.265   5.123  0.3534 -2.0269  1.4534
 9037SOL    HW230004   3.892   5.392   5.171 -1.1866 -0.4922 -4.0006
 9038SOL     OW30005   1.871   6.673   4.501 -0.1416  0.4546  0.0470
 9038SOL    HW130006   1.909   6.755   4.534  0.2702 -0.5091  2.1054
 9038SOL    HW230007   1.908   6.664   4.413  1.2603  1.5617  0.4790
 9039SOL     OW30008   4.432   6.348   1.163 -0.6407 -0.3248 -0.3973
 9039SOL    HW130009   4.504   6.378   1.219 -0.2854 -1.5776 -0.1475
 9039SOL    HW230010   4.397   6.271   1.209 -2.3097  0.3870 -0.3874
 9040SOL     OW30011   7.481   4.458   2.722 -0.2520  0.5183 -0.0706
 9040SOL    HW130012   7.501   4.549   2.743  0.6086  0.1488  0.8331
 9040SOL    HW230013   7.536   4.439   2.646  1.0146  0.2364  0.8809
 9041SOL     OW30014   4.534   3.084   9.087  0.0030  0.3565  0.0493
 9041SOL    HW130015   4.560   3.172   9.061  0.0190  0.6276  0.9532
 9041SOL    HW230016   4.469   3.097   9.156  0.2937 -0.3308  0.4729
 9042SOL     OW30017   3.324   8.937   5.917  0.4086  0.1226 -0.2305
 9042SOL    HW130018   3.344   8.975   6.003  0.4321  1.8727 -0.9577
 9042SOL    HW230019   3.319   8.843   5.933  1.0935  0.3389  1.5523
 9043SOL     OW30020   6.172   3.206   0.454 -0.7923  0.4401 -0.1626
 9043SOL    HW130021   6.086   3.218   0.492  0.2094  1.5614  1.8913
 9043SOL    HW230022   6.211   3.293   0.453  0.8748 -0.2599  0.3887
 9044SOL     OW30023   8.317   6.116   7.444  0.3248 -0.3564 -0.5356
 9044SOL    HW130024   8.356   6.154   7.523  0.1004  0.6425 -0.8859
 9044SOL    HW230025   8.266   6.188   7.406 -1.3689 -1.4297 -0.4159
 9045SOL     OW30026   3.573   7.159   1.515 -0.3417  0.3970  0.0739
 9045SOL    HW130027   3.606   7.139   1.602  0.5038 -0.2357 -0.3827
 9045SOL    HW230028   3.565   7.255   1.513 -1.1608  0.3604  1.1155
 9046SOL     OW30029   1.427   0.510   2.193  0.0322  0.5346  1.0698
 9046SOL    HW130030   1.351   0.564   2.171 -0.0305  1.5632  3.5428
 9046SOL    HW230031   1.502   0.570   2.185  0.6209 -0.4097 -1.1159
 9047SOL     OW30032   7.075   0.051   6.927 -0.1285 -0.1524 -0.5458
 9047SOL    HW130033   7.142   0.064   6.861  0.5255  1.1477  0.3396
 9047SOL    HW230034   7.048  -0.041   6.917 -0.8347  0.2823 -3.2989
 9048SOL     OW30035   5.945   9.283   6.862  0.1049  0.1859  0.2744
 9048SOL    HW130036   5.906   9.359   6.907 -1.3836 -0.1328 -0.4397
 9048SOL    HW230037   5.980   9.229   6.933 -0.7651  0.4831  0.9495
 9049SOL     OW30038   0.931   9.192   4.752 -0.0471 -0.3915  0.4363
 9049SOL    HW130039   0.909   9.174   4.661 -0.5388  0.1390  0.4470
 9049SOL    HW230040   1.024   9.168   4.759 -0.3141 -1.6114  0.1197
 9050SOL     OW30041   2.488   9.272   8.425  0.1303 -0.4950  0.2163
 9050SOL    HW130042   2.443   9.351   8.456  2.3273  1.0096 -0.1907
 9050SOL    HW230043   2.581   9.293   8.434  0.7976 -2.4136 -1.4995
 9051SOL     OW30044   3.470   7.888   1.160 -0.5088  0.1367 -0.4004
 9051SOL    HW130045   3.520   7.808   1.144 -0.3887  0.3066 -0.8922
 9051SOL    HW230046   3.404   7.863   1.225  0.4219 -0.0139  0.5059
 9052SOL     OW30047   3.432   9.109   6.998  0.1779  0.3638 -0.4838
 9052SOL    HW130048   3.458   9.150   7.080 -0.1265 -0.1836 -0.1062
 9052SOL    HW230049   3.340   9.131   6.987  0.1963  0.3690 -0.6354
 9053SOL     OW30050   1.180   5.753   8.246 -0.2259  0.4503 -0.5063
 9053SOL    HW130051   1.211   5.709   8.167 -0.1576 -0.8451  0.2276
 9053SOL    HW230052   1.102   5.705   8.271  0.0315  0.5349  0.4941
 9054SOL     OW30053   6.153   3.996   3.382 -0.0854  0.4313 -0.5490
 9054SOL    HW130054   6.083   4.050   3.346 -1.9733 -1.6471 -0.2238
 9054SOL    HW230055   6.218   3.991   3.311 -0.2621  2.3261 -0.8985
 9055SOL     OW30056   3.182   4.447   5.827 -0.4033 -0.3878 -0.6105
 9055SOL    HW130057   3.153   4.447   5.918  1.7161  3.4675  0.3105
 9055SOL    HW230058   3.258   4.389   5.827  0.6270  0.8491  0.6497
 9056SOL     OW30059   2.575   0.215   3.549 -0.5705  0.1565 -0.4180
 9056SOL    HW130060   2.528   0.298   3.555  0.1505  0.5263  0.4893
 9056SOL    HW230061   2.520   0.160   3.494 -2.3093  0.3963  0.9845
 9057SOL     OW30062   7.835   5.377   4.960 -0.2408 -0.3384  0.4821
 9057SOL    HW130063   7.751   5.423   4.951 -1.1940 -2.1817 -0.7425
 9057SOL    HW230064   7.843   5.360   5.053  0.1389  2.1751  0.9939
 9058SOL     OW30065   1.915   4.561   0.489 -0.0306  0.5120 -0.5225
 9058SOL    HW130066   1.996   4.584   0.533  0.5110 -0.3176 -1.0669
 9058SOL    HW230067   1.898   4.470   0.513 -0.4639  0.4797 -0.9205
 9059SOL     OW30068   1.123   0.296   4.068  0.7027 -0.6086  0.5177
 9059SOL    HW130069   1.040   0.275   4.025  0.5323 -0.4797  0.7837
 9059SOL    HW230070   1.157   0.212   4.097  1.1873 -0.7867 -0.5358
 9060SOL     OW30071   3.379   9.511   4.535  0.0021  0.5819 -0.1333
 9060SOL    HW130072   3.422   9.585   4.578 -1.1706  1.3582 -0.2670
 9060SOL    HW230073   3.292   9.507   4.575  0.0998 -0.8326 -0.0156
 9061SOL     OW30074   6.202   2.166   6.939 -0.1221 -0.4955 -0.1269
 9061SOL    HW130075   6.175   2.233   7.002  0.5227 -0.8558  0.5595
 9061SOL    HW230076   6.157   2.086   6.968 -0.3719 -0.5042 -0.5413
 9062SOL     OW30077   7.843   4.770   6.078  0.6631  0.0336  0.0255
 9062SOL    HW130078   7.809   4.739   5.994 -0.0988 -0.5458  0.5356
 9062SOL    HW230079   7.925   4.721   6.091  0.8456  0.2160 -0.4286
 9063SOL     OW30080   0.907   1.733   0.500 -0.0778 -0.0476  0.1682
 9063SOL    HW130081   0.815   1.755   0.486  0.1238  0.1907 -0.8338
 9063SOL    HW230082   0.909   1.696   0.588 -0.9957  0.7051  0.5193
 9064SOL     OW30083   0.263   4.334   0.615 -0.4443  0.1434 -0.0821
 9064SOL    HW130084   0.176   4.361   0.643 -0.9802  0.5050 -1.9697
 9064SOL    HW230085   0.320   4.407   0.638 -0.7390  0.1556  0.6202
 9065SOL     OW30086   5.161   8.738   9.551 -0.6800  0.1673 -0.7101
 9065SOL    HW130087   5.095   8.795   9.512 -1.8669 -2.2060 -2.4655
 9065SOL    HW230088   5.238   8.747   9.494 -0.2529  1.2136  0.0027
 9066SOL     OW30089   6.317   6.034   6.352  0.5382 -0.1323 -0.0847
 9066SOL    HW130090   6.321   5.992   6.266  1.5907  0.8047 -0.5199
 9066SOL    HW230091   6.337   6.126   6.334 -0.1915  0.2702  1.0441
 9067SOL     OW30092   8.869   0.699   2.046 -0.2763 -0.5159 -0.3544
 9067SOL    HW130093   8.830   0.749   2.118  1.4594  0.3616  0.0295
 9067SOL    HW230094   8.831   0.738   1.967  1.5919  2.0873 -0.1248
 9068SOL     OW30095   0.838   5.973   3.385  0.3545  0.1020 -0.6254
 9068SOL    HW130096   0.758   5.989   3.434  1.1681 -2.8598  1.9512
 9068SOL    HW230097   0.887   6.055   3.392 -1.6245  1.3657 -0.7757
 9069SOL     OW30098   4.454   6.941   4.352 -0.4777 -0.0851  0.3483
 9069SOL    HW130099   4.385   6.933   4.418  0.5098  0.7673  1.5487
 9069SOL    HW230100   4.424   7.011   4.294 -0.5046  0.4846  1.0375
 9070SOL     OW30101   4.193   6.015   8.702 -0.4714  0.3386 -0.6005
 9070SOL    HW130102   4.281   5.982   8.718 -0.8550 -0.1702  0.6265
 9070SOL    HW230103   4.169   5.981   8.616  0.2937 -0.0284 -0.6742
 9071SOL     OW30104   3.324   0.744   0.631 -0.9148 -0.0424  0.1698
 9071SOL    HW130105   3.311   0.767   0.539  0.5872  0.2961  0.0050
 9071SOL    HW230106   3.312   0.827   0.678  1.1554  0.4561 -0.0668
 9072SOL     OW30107   0.208   0.502   2.352 -0.1619  0.0888 -0.2414
 9072SOL    HW130108   0.119   0.532   2.332 -1.4308 -2.2251  1.5094
 9072SOL    HW230109   0.227   0.436   2.285  0.1892  0.4453 -0.5005
 9073SOL     OW30110   4.799   0.593   5.723 -0.4923  0.2241 -0.5723
 9073SOL    HW130111   4.765   0.538   5.794  0.5618 -0.5521 -0.6409
 9073SOL    HW230112   4.804   0.681   5.760 -3.9478  0.7525 -1.0020
 9074SOL     OW30113   7.818   4.670   2.794 -0.4176  0.1562 -0.6249
 9074SOL    HW130114   7.725   4.690   2.788 -0.4974 -0.2196 -0.6454
 9074SOL    HW230115   7.862   4.753   2.774 -0.7051 -0.1435 -2.7039
 9075SOL     OW30116   5.579   7.230   4.786  0.2754  1.1064  0.2853
 9075SOL    HW130117   5.524   7.185   4.722 -0.6079  2.6603 -0.0866
 9075SOL    HW230118   5.518   7.285   4.835  0.7624 -0.5900  3.0596
 9076SOL     OW30119   1.579   3.676   4.664  0.5580 -0.4486  0.3029
 9076SOL    HW130120   1.648   3.673   4.730  0.7797 -1.4523  0.0346
 9076SOL    HW230121   1.625   3.686   4.581  0.3128  0.0951  0.2269
 9077SOL     OW30122   3.738   2.164   1.065 -0.2850 -0.5289  0.3563
 9077SOL    HW130123   3.684   2.193   1.139  1.0401 -0.5717  1.3928
 9077SOL    HW230124   3.720   2.228   0.996 -2.7483 -1.3921  0.1076
 9078SOL     OW30125   8.702   5.904   3.389  0.8480 -0.0496 -0.7563
 9078SOL    HW130126   8.749   5.854   3.455 -0.4799  0.4682  0.6371
 9078SOL    HW230127   8.636   5.842   3.355  0.5027  0.1523 -0.4575
 9079SOL     OW30128   6.466   2.484   7.228 -0.0544  0.4299  0.3308
 9079SOL    HW130129   6.392   2.487   7.168  0.4877 -3.1802 -0.7959
 9079SOL    HW230130   6.530   2.544   7.190 -0.3850 -0.4922 -1.8291
 9080SOL     OW30131   2.149   8.782   0.457 -0.6898 -0.6333 -0.3455
 9080SOL    HW130132   2.108   8.714   0.512 -1.7361 -0.7560 -1.2412
 9080SOL    HW230133   2.242   8.761   0.459 -0.8691 -1.4519  0.2819
 9081SOL     OW30134   3.861   4.976   5.958  0.1512  0.2100  0.5208
 9081SOL    HW130135   3.911   4.903   5.993  2.3745  0.3913 -1.9596
 9081SOL    HW230136   3.903   5.054   5.996  0.2552  0.3063  0.2084
 9082SOL     OW30137   3.422   1.068   3.332 -0.0306 -0.2493 -0.3976
 9082SOL    HW130138   3.329   1.089   3.343  0.1574  0.5853 -0.3277
 9082SOL    HW230139   3.446   1.112   3.250  0.4117 -0.0779 -0.1759
 9083SOL     OW30140   7.902   9.156   1.048 -0.5093 -0.5526  0.4061
 9083SOL    HW130141   7.814   9.195   1.050 -0.2997 -0.1056  1.5687
 9083SOL    HW230142   7.908   9.115   0.961 -1.8000 -0.4467  0.2488
 9084SOL     OW30143   0.004   8.188   0.420  0.1042 -0.4612 -0.2883
 9084SOL    HW130144   0.041   8.120   0.363 -1.5819 -1.2777 -0.4492
 9084SOL    HW230145  -0.085   8.159   0.438 -0.3118  1.1936  0.5173
 9085SOL     OW30146   5.268   1.046   0.214  0.0866  0.0636  0.0028
 9085SOL    HW130147   5.247   0.960   0.178  1.9570 -0.1432 -0.6919
 9085SOL    HW230148   5.186   1.075   0.256 -0.9569 -1.4568 -0.8814
 9086SOL     OW30149   7.366   8.253   1.041 -0.1562  0.2665  0.3805
 9086SOL    HW130150   7.420   8.318   1.085 -0.0369 -0.0442  0.6947
 9086SOL    HW230151   7.412   8.170   1.054 -0.1937  0.1490 -0.2081
 9087SOL     OW30152   6.955   1.992   4.309  0.3728 -0.2329 -0.4663
 9087SOL    HW130153   6.935   1.921   4.248 -0.1158 -0.0528 -0.5254
 9087SOL    HW230154   6.876   2.046   4.308 -0.2850 -1.0737  1.5309
 9088SOL     OW30155   1.340   1.515   2.481 -0.9467 -0.0752  0.1407
 9088SOL    HW130156   1.344   1.598   2.434  2.6469  1.1559  2.2635
 9088SOL    HW230157   1.417   1.466   2.452 -0.4848 -0.6828  2.2325
 9089SOL     OW30158   8.250   4.707   8.858 -0.3162 -0.4394 -0.5874
 9089SOL    HW130159   8.296   4.663   8.786  0.4613  0.2025 -0.5008
 9089SOL    HW230160   8.193   4.639   8.895  0.5921 -1.2738 -0.6773
 9090SOL     OW30161   2.048   6.364   8.119 -0.2285 -0.1123 -0.5149
 9090SOL    HW130162   2.077   6.329   8.203 -0.2858  0.7921 -0.1090
 9090SOL    HW230163   1.953   6.367   8.126 -0.1545  1.7331  0.1329
 9091SOL     OW30164   6.186   3.790   6.355  0.5828 -0.1752  0.1289
 9091SOL    HW130165   6.180   3.740   6.436 -0.7269 -0.0724  0.1082
 9091SOL    HW230166   6.191   3.881   6.384 -0.0341 -0.1285  0.0980
 9092SOL     OW30167   1.063   5.427   1.694  0.7580  0.2914  0.1007
 9092SOL    HW130168   1.147   5.407   1.736  1.1931  2.1124  0.2173
 9092SOL    HW230169   1.041   5.514   1.728 -1.9824 -0.7775  1.3036
 9093SOL     OW30170   2.080   8.234   2.347  0.3261 -0.1818  0.1990
 9093SOL    HW130171   2.018   8.176   2.389 -1.2219  1.4640  0.3114
 9093SOL    HW230172   2.083   8.312   2.403 -1.4744  1.8980 -2.3061
 9094SOL     OW30173   4.956   4.231   0.218  0.4459  0.4363  0.1472
 9094SOL    HW130174   4.925   4.202   0.132  1.2142  1.7428 -0.5888
 9094SOL    HW230175   5.007   4.157   0.251 -0.9640 -0.6041  0.0980
 9095SOL     OW30176   5.882   5.436   6.331 -0.9285 -0.1745  0.2912
 9095SOL    HW130177   5.852   5.399   6.414  1.1331  0.4443  1.3819
 9095SOL    HW230178   5.950   5.499   6.356 -0.4707  0.2447 -1.8513
 9096SOL     OW30179   7.132   7.369   6.382 -0.2560 -0.4469  0.2067
 9096SOL    HW130180   7.144   7.464   6.394 -0.7710 -0.3421 -0.0476
 9096SOL    HW230181   7.039   7.360   6.360  0.1912 -0.8105 -1.7211
 9097SOL     OW30182   7.844   9.586   1.712 -0.1497  0.2830  0.1348
 9097SOL    HW130183   7.907   9.643   1.668 -2.1317  1.6875 -1.0572
 9097SOL    HW230184   7.773   9.575   1.649 -0.7151 -1.9952  1.0669
 9098SOL     OW30185   4.228   3.592   4.725 -0.1078  0.2722  0.9908
 9098SOL    HW130186   4.222   3.666   4.786 -1.0456  0.1870  1.0116
 9098SOL    HW230187   4.188   3.519   4.771  0.2448 -0.1002  0.7184
 9099SOL     OW30188   9.126   3.948   3.924  0.1194  0.2453 -0.3925
 9099SOL    HW130189   9.118   4.010   3.997  0.4475  0.2589 -0.3692
 9099SOL    HW230190   9.166   3.999   3.853  0.8324 -0.0659 -0.2180
 9100SOL     OW30191   3.230   9.568   7.953  0.0292 -0.1797 -0.8670
 9100SOL    HW130192   3.282   9.556   8.032  0.1348 -1.8476 -1.1460
 9100SOL    HW230193   3.207   9.661   7.953  1.1705  0.1367  0.3935
 9101SOL     OW30194   4.871   0.880   4.043  0.5354  0.2457  0.1596
 9101SOL    HW130195   4.902   0.792   4.067 -1.7091 -0.7147 -0.1464
 9101SOL    HW230196   4.950   0.927   4.018  1.7926 -1.7975 -0.0151
 9102SOL     OW30197   4.577   8.155   0.964  0.1423 -0.4673  0.7510
 9102SOL    HW130198   4.647   8.140   0.900 -0.9028 -0.9008 -0.3463
 9102SOL    HW230199   4.606   8.110   1.043 -0.5560 -4.1354 -0.8623
 9103SOL     OW30200   4.262   1.431   4.088  0.3036 -0.3490  0.4788
 9103SOL    HW130201   4.324   1.443   4.160 -0.0745 -2.3791  1.2295
 9103SOL    HW230202   4.265   1.336   4.070 -0.5246 -0.0705 -1.3614
 9104SOL     OW30203   3.910   2.634   6.055 -0.0774  0.2336 -0.0368
 9104SOL    HW130204   3.860   2.687   5.993 -1.8954 -1.0383  0.2796
 9104SOL    HW230205   3.859   2.637   6.136 -1.6054 -3.7955 -0.6094
 9105SOL     OW30206   9.616   2.072   5.210  0.0455 -0.1271  0.4686
 9105SOL    HW130207   9.701   2.101   5.243  0.4895 -1.1712  0.2800
 9105SOL    HW230208   9.598   1.992   5.259 -0.3297 -0.4852 -0.2437
 9106SOL     OW30209   4.298   3.779   7.817 -1.3830  0.1031  0.4242
 9106SOL    HW130210   4.278   3.690   7.787  0.1721  0.5606 -2.2002
 9106SOL    HW230211   4.387   3.774   7.851 -0.4152  1.0290 -1.8071
 9107SOL     OW30212   5.187   3.846   3.203  0.0660 -0.3185  0.5167
 9107SOL    HW130213   5.247   3.837   3.277 -0.5713 -0.0150  1.0816
 9107SOL    HW230214   5.162   3.756   3.181  1.4115 -0.5159 -0.3157
 9108SOL     OW30215   5.973   0.752   5.138 -0.5799  0.1418 -0.2413
 9108SOL    HW130216   5.947   0.687   5.204 -0.4579  0.7805  0.4584
 9108SOL    HW230217   5.915   0.827   5.154 -0.6544  0.2424 -0.9705
 9109SOL     OW30218   7.676   2.804   8.965 -0.0373 -0.0497  0.3414
 9109SOL    HW130219   7.715   2.774   9.047  0.4824 -1.1192 -0.2671
 9109SOL    HW230220   7.583   2.782   8.972 -0.3586  1.5099  1.3543
 9110SOL     OW30221   4.466   9.228   3.954 -0.2572  0.1108  0.1013
 9110SOL    HW130222   4.430   9.271   4.031 -0.7761 -0.3342  0.1199
 9110SOL    HW230223   4.389   9.203   3.903 -0.0415 -1.5943  0.5316
 9111SOL     OW30224   5.174   1.495   0.635 -0.0880 -0.5991 -0.0833
 9111SOL    HW130225   5.127   1.541   0.566 -0.4420 -1.4381 -0.4165
 9111SOL    HW230226   5.254   1.546   0.648 -1.2021  1.0298  0.7195
 9112SOL     OW30227   1.158   6.083   2.249  0.3611 -0.4699  0.8075
 9112SOL    HW130228   1.141   6.172   2.281 -0.9455  0.0732 -1.1478
 9112SOL    HW230229   1.094   6.028   2.295 -0.3228 -0.0049  0.4370
 9113SOL     OW30230   7.283   0.138   4.854 -0.1573 -0.3072  0.3442
 9113SOL    HW130231   7.208   0.193   4.876 -0.4245 -0.6126  0.2151
 9113SOL    HW230232   7.356   0.174   4.905 -0.0660  0.8288 -0.5506
 9114SOL     OW30233   6.358   6.010   7.108  0.1877 -0.5644  0.5792
 9114SOL    HW130234   6.362   5.938   7.045  2.7266  0.5419 -0.6807
 9114SOL    HW230235   6.297   6.073   7.070  0.3393 -0.6942  0.1219
 9115SOL     OW30236   2.755   7.544   1.397 -0.0925  0.0443 -0.0537
 9115SOL    HW130237   2.799   7.609   1.452  2.6486 -1.1193 -0.7400
 9115SOL    HW230238   2.739   7.589   1.315 -1.1067  0.7543  0.5060
 9116SOL     OW30239   9.530   4.769   0.873 -0.0927  0.1476  0.0141
 9116SOL    HW130240   9.573   4.783   0.789  0.7516  1.1515  0.5955
 9116SOL    HW230241   9.594   4.721   0.925 -0.8875 -1.1360 -0.1255
 9117SOL     OW30242   0.971   5.738   7.329 -0.0426 -1.0315 -0.3939
 9117SOL    HW130243   0.971   5.658   7.381  0.6202 -1.4042 -0.9563
 9117SOL    HW230244   0.969   5.708   7.238 -1.3123 -0.3848 -0.5940
 9118SOL     OW30245   6.234   4.128   2.411 -0.9038  0.0908  0.3144
 9118SOL    HW130246   6.291   4.102   2.483 -1.8725 -0.9880  0.7330
 9118SOL    HW230247   6.147   4.134   2.451 -1.3919 -0.1764 -0.6852
 9119SOL     OW30248   2.675   5.695   6.041  0.2623 -0.1624  0.4617
 9119SOL    HW130249   2.716   5.612   6.064  0.0431  0.0337  1.5971
 9119SOL    HW230250   2.651   5.735   6.125  0.2047  0.9683 -0.0717
 9120SOL     OW30251   1.049   5.404   0.909 -0.1850  0.4866  0.6631
 9120SOL    HW130252   1.063   5.356   0.828 -0.1812 -0.7874  1.3971
 9120SOL    HW230253   1.080   5.345   0.978 -2.7110  0.3853  1.8202
 9121SOL     OW30254   4.651   6.450   8.461 -0.1579 -0.4114  0.2869
 9121SOL    HW130255   4.660   6.418   8.371  0.2995 -0.4052  0.3266
 9121SOL    HW230256   4.719   6.404   8.510  0.9666  1.0872  0.2081
 9122SOL     OW30257   3.685   1.523   6.545  0.1255 -0.1914 -0.3495
 9122SOL    HW130258   3.769   1.505   6.587  0.4762  1.7234 -0.1815
 9122SOL    HW230259   3.658   1.438   6.509  1.1638 -1.2566  1.2828
 9123SOL     OW30260   3.439   4.879   0.718 -0.1774 -0.5848  0.0841
 9123SOL    HW130261   3.487   4.961   0.730 -0.5802 -0.2964 -0.2264
 9123SOL    HW230262   3.349   4.907   0.700 -0.3967 -1.1082  0.3553
 9124SOL     OW30263   3.482   0.989   0.808  0.3228  0.0407 -0.1998
 9124SOL    HW130264   3.503   1.059   0.869 -1.6472  1.1189 -0.6860
 9124SOL    HW230265   3.512   0.909   0.851  1.0643  1.0017  1.1201
 9125SOL     OW30266   6.069   0.138   7.978  0.7158  0.1611  0.0680
 9125SOL    HW130267   6.024   0.071   7.926 -0.0098 -0.2096  1.1587
 9125SOL    HW230268   6.161   0.110   7.976  0.5345 -0.4588 -0.0975
 9126SOL     OW30269   5.439   3.879   7.567 -0.5527 -0.5519  0.1304
 9126SOL    HW130270   5.439   3.830   7.650 -3.8989 -0.7537  0.1343
 9126SOL    HW230271   5.377   3.832   7.512  1.5940 -0.4144 -2.5837
 9127SOL     OW30272   7.044   2.318   6.641  0.5345  0.0597  0.7306
 9127SOL    HW130273   7.074   2.300   6.552  0.0294 -0.6092  0.6913
 9127SOL    HW230274   6.974   2.255   6.657 -0.4736  1.2021  1.0370
 9128SOL     OW30275   4.983   2.389   5.804  0.1383  0.0375 -0.4838
 9128SOL    HW130276   5.000   2.363   5.895 -0.8142 -1.8348 -0.7877
 9128SOL    HW230277   4.963   2.306   5.759 -0.1977  1.0193 -2.2202
 9129SOL     OW30278   9.491   7.111   3.610 -0.1966 -0.1087  0.3445
 9129SOL    HW130279   9.508   7.178   3.544  1.3678  0.9567  1.7289
 9129SOL    HW230280   9.523   7.029   3.570  2.3354  0.7882  0.3541
 9130SOL     OW30281   1.172   8.521   5.636  0.6517 -0.0028  0.1827
 9130SOL    HW130282   1.132   8.557   5.557 -1.2364 -0.9745  0.6260
 9130SOL    HW230283   1.116   8.446   5.659  2.8709 -1.5973  0.7603
 9131SOL     OW30284   1.686   0.398   1.000  0.7657  0.3971 -0.2519
 9131SOL    HW130285   1.642   0.314   1.013  1.8511 -0.1392  0.0644
 9131SOL    HW230286   1.696   0.433   1.089  1.5897  0.1809 -0.2491
 9132SOL     OW30287   6.357   7.854   3.958 -0.4145  0.2009 -0.2620
 9132SOL    HW130288   6.380   7.761   3.953  0.7665  0.4453  0.3192
 9132SOL    HW230289   6.263   7.856   3.940 -0.3518 -1.0446 -0.8712
 9133SOL     OW30290   9.161   9.495   8.298  0.1139 -0.1950 -0.3633
 9133SOL    HW130291   9.139   9.409   8.262 -1.4539 -0.2547  0.6302
 9133SOL    HW230292   9.252   9.486   8.327 -0.0101 -1.5219 -0.3176
 9134SOL     OW30293   5.457   1.996   1.831  0.3572  0.1198  0.6731
 9134SOL    HW130294   5.462   2.020   1.738 -1.1772 -2.6491 -0.2381
 9134SOL    HW230295   5.495   2.070   1.877  0.0775  2.1288 -2.0880
 9135SOL     OW30296   2.670   6.974   2.981  0.6292 -0.4252  0.1844
 9135SOL    HW130297   2.733   7.000   2.914 -0.2675 -0.2523 -0.5985
 9135SOL    HW230298   2.693   6.883   3.001  1.7304 -0.0736  0.6088
 9136SOL     OW30299   0.036   6.530   8.390  0.1243 -0.1552 -0.4391
 9136SOL    HW130300   0.091   6.479   8.449  1.6440 -0.7016 -2.2458
 9136SOL    HW230301  -0.052   6.495   8.405  0.9040 -2.3707 -0.5958
 9137SOL     OW30302   4.695   6.180   8.539  0.0836  0.1733  0.8299
 9137SOL    HW130303   4.612   6.210   8.576  0.3361  0.8830  0.8318
 9137SOL    HW230304   4.741   6.139   8.614  0.1538  0.6760  1.0657
 9138SOL     OW30305   5.218   0.789   0.181  0.3590  0.0081  0.5673
 9138SOL    HW130306   5.190   0.708   0.139  1.9629  0.2037 -0.9900
 9138SOL    HW230307   5.199   0.777   0.274 -0.4789 -1.6725  0.2028
 9139SOL     OW30308   8.323   7.690   6.749  0.0172 -0.1921  0.5474
 9139SOL    HW130309   8.359   7.703   6.837  1.7701  0.5307 -0.2260
 9139SOL    HW230310   8.399   7.671   6.695 -1.2377 -2.6802 -0.4883
 9140SOL     OW30311   5.223   8.305   1.486  0.3180 -0.1471 -0.0701
 9140SOL    HW130312   5.307   8.273   1.454  0.8059  0.4238  0.5962
 9140SOL    HW230313   5.224   8.284   1.580 -0.1996  0.0220 -0.0224
 9141SOL     OW30314   0.544   0.189   7.297  0.6182  0.3414 -0.2738
 9141SOL    HW130315   0.534   0.282   7.278 -0.3498 -0.1607 -2.6442
 9141SOL    HW230316   0.628   0.183   7.343  0.3036  2.4340  0.6932
 9142SOL     OW30317   0.409   6.241   3.389  0.4176 -0.0740 -0.2466
 9142SOL    HW130318   0.349   6.167   3.381  0.0129  0.2998 -0.7033
 9142SOL    HW230319   0.463   6.237   3.311  0.4786  0.0447 -0.2106
 9143SOL     OW30320   6.432   4.696   6.742  0.1247 -0.1102  0.1368
 9143SOL    HW130321   6.440   4.675   6.835 -0.1977 -3.4708 -0.4434
 9143SOL    HW230322   6.457   4.614   6.698  0.1850  1.3533 -2.7373
 9144SOL     OW30323   2.244   5.067   6.327  0.3180 -0.2386 -0.3057
 9144SOL    HW130324   2.254   4.988   6.274 -0.8585 -0.4239 -0.2807
 9144SOL    HW230325   2.162   5.054   6.374 -0.3859  1.3793 -0.9980
 9145SOL     OW30326   1.186   1.189   9.117  0.4207 -0.2391 -0.2237
 9145SOL    HW130327   1.178   1.272   9.164 -0.6130  0.0605 -0.8975
 9145SOL    HW230328   1.134   1.127   9.168  2.8263 -1.0474  1.4360
 9146SOL     OW30329   9.031   5.487   8.776 -0.1414  0.1124 -0.3032
 9146SOL    HW130330   8.943   5.474   8.811  0.0794  2.1644  1.1909
 9146SOL    HW230331   9.082   5.414   8.812 -0.9310 -0.3090 -0.0172
 9147SOL     OW30332   6.464   3.160   1.326 -0.3678  0.4241  0.2056
 9147SOL    HW130333   6.475   3.105   1.248 -2.0583 -0.7911  0.7843
 9147SOL    HW230334   6.374   3.146   1.354 -0.0681  1.5128  1.8970
 9148SOL     OW30335   8.157   7.615   0.965 -0.2406  0.2859  0.3607
 9148SOL    HW130336   8.144   7.710   0.975 -1.3058  0.4014 -1.6928
 9148SOL    HW230337   8.072   7.577   0.986  0.0319 -0.1731  0.6320
 9149SOL     OW30338   3.022   2.496   6.801 -0.3078  0.3026 -0.4210
 9149SOL    HW130339   3.044   2.412   6.842  3.2415 -0.1194 -2.6667
 9149SOL    HW230340   2.947   2.476   6.745 -2.4754 -0.1142  2.4525
 9150SOL     OW30341   5.244   7.834   5.487  0.1712 -0.2837  0.0018
 9150SOL    HW130342   5.226   7.899   5.419  2.8268  1.5560  0.8905
 9150SOL    HW230343   5.178   7.850   5.555 -0.1375  0.4527 -0.4665
 9151SOL     OW30344   8.908   3.349   7.257 -0.1664  0.0004  0.0884
 9151SOL    HW130345   8.890   3.429   7.306 -0.8075 -0.2099  0.2079
 9151SOL    HW230346   8.822   3.314   7.235  0.0680  0.5347 -1.9583
 9152SOL     OW30347   6.069   5.613   1.378 -0.0119  0.3341  0.2415
 9152SOL    HW130348   6.011   5.614   1.301  0.1035  1.4870  0.1438
 9152SOL    HW230349   6.116   5.696   1.372 -0.0697  0.4771  1.6078
 9153SOL     OW30350   8.160   9.098   4.169 -0.4992  0.4534  0.0118
 9153SOL    HW130351   8.151   9.121   4.077 -0.4374 -0.8826 -0.3572
 9153SOL    HW230352   8.194   9.177   4.211 -0.4854  1.0665 -1.1184
 9154SOL     OW30353   6.559   2.798   2.621 -0.1550 -0.1629 -0.5063
 9154SOL    HW130354   6.647   2.826   2.646 -1.1594  0.6943  2.5130
 9154SOL    HW230355   6.516   2.878   2.590 -0.5805 -0.0613  0.3306
 9155SOL     OW30356   5.569   0.417   9.090  0.1033  0.0801  0.1627
 9155SOL    HW130357   5.494   0.453   9.044 -0.5688  1.2136  2.0155
 9155SOL    HW230358   5.627   0.385   9.021 -1.4096  0.4924 -1.3695
 9156SOL     OW30359   8.746   7.603   4.373  0.6729 -0.6922 -0.6420
 9156SOL    HW130360   8.747   7.510   4.394  1.0325 -0.4740  0.3853
 9156SOL    HW230361   8.661   7.633   4.403  0.2946 -0.8127 -1.5786
 9157SOL     OW30362   4.510   8.473   6.491  0.1471 -0.3338  0.0428
 9157SOL    HW130363   4.524   8.542   6.426 -3.0953  1.3197  0.9140
 9157SOL    HW230364   4.539   8.511   6.573 -0.0458 -0.6689  0.2687
 9158SOL     OW30365   1.179   5.432   0.422 -0.1153  0.1116 -0.5817
 9158SOL    HW130366   1.260   5.446   0.373  0.3333 -0.0233  0.1073
 9158SOL    HW230367   1.179   5.338   0.441  0.2726  0.3322  0.6043
 9159SOL     OW30368   6.494   4.133   2.710  0.0046  0.6108 -0.6182
 9159SOL    HW130369   6.586   4.121   2.736 -0.5861 -0.4110  1.1685
 9159SOL    HW230370   6.451   4.051   2.735 -1.6678  1.5846 -0.1424
 9160SOL     OW30371   6.793   8.903   0.787  0.6016  0.1363  0.5052
 9160SOL    HW130372   6.731   8.914   0.715  1.3653 -0.2273 -0.2250
 9160SOL    HW230373   6.748   8.941   0.863 -1.2186 -1.6270  0.3937
 9161SOL     OW30374   9.012   6.726   3.168  0.6903  0.0855 -0.1432
 9161SOL    HW130375   9.058   6.730   3.084 -1.6260 -0.5670 -1.5390
 9161SOL    HW230376   8.941   6.662   3.153 -0.7895  1.1901  1.7692
 9162SOL     OW30377   6.162   9.603   5.361  0.6017  0.1475  0.1601
 9162SOL    HW130378   6.243   9.638   5.323  0.4776  0.9879  0.6514
 9162SOL    HW230379   6.178   9.604   5.455  0.2571 -0.3098  0.2277
 9163SOL     OW30380   4.166   7.606   6.970 -0.1982 -0.7387  0.4633
 9163SOL    HW130381   4.151   7.525   7.019 -1.6282 -0.9020 -0.1917
 9163SOL    HW230382   4.234   7.652   7.020  0.2160 -2.0628  1.1684
 9164SOL     OW30383   0.043   0.786   5.107  0.3063 -0.1241 -0.6367
 9164SOL    HW130384  -0.051   0.775   5.093 -0.0104 -0.2391  1.2623
 9164SOL    HW230385   0.082   0.766   5.023 -1.3795  0.1000 -1.5204
 9165SOL     OW30386   5.267   5.040   1.031 -0.6838 -0.2011  0.4095
 9165SOL    HW130387   5.187   5.037   0.978 -1.7020  1.3230  1.7485
 9165SOL    HW230388   5.240   5.010   1.118  0.1594  0.4418  0.9136
 9166SOL     OW30389   8.560   8.294   5.878 -0.2896  0.3770  0.3500
 9166SOL    HW130390   8.475   8.262   5.911 -0.5653  1.9424  1.2875
 9166SOL    HW230391   8.580   8.369   5.935  0.1254  2.0897 -1.9231
 9167SOL     OW30392   7.131   2.003   6.502  0.1418 -0.1412 -0.3149
 9167SOL    HW130393   7.061   1.944   6.474 -2.7424  1.8762  1.9723
 9167SOL    HW230394   7.162   1.966   6.584 -1.3593  1.1677  0.8922
 9168SOL     OW30395   3.030   7.463   1.954  0.0944 -0.2662  0.2427
 9168SOL    HW130396   2.943   7.433   1.980  0.6037 -1.8404  0.1840
 9168SOL    HW230397   3.060   7.516   2.028 -1.2133  0.9711 -0.0676
 9169SOL     OW30398   7.593   8.409   9.133 -0.1332  0.0410  0.0397
 9169SOL    HW130399   7.532   8.343   9.100  2.1601 -1.4946 -1.5200
 9169SOL    HW230400   7.621   8.375   9.218 -0.1980 -0.1400 -0.0117
 9170SOL     OW30401   8.961   5.178   6.126  0.3903 -0.4263 -0.8532
 9170SOL    HW130402   8.916   5.094   6.138 -0.0192  0.1042  2.0349
 9170SOL    HW230403   9.034   5.157   6.067 -1.6809 -1.9882 -3.0671
 9171SOL     OW30404   8.770   1.429   9.030 -0.1097 -0.4279 -0.0643
 9171SOL    HW130405   8.821   1.357   8.993  0.3071  0.7541 -1.9690
 9171SOL    HW230406   8.684   1.421   8.989  0.3187  0.8350 -1.3095
 9172SOL     OW30407   9.004   3.869   3.342  0.2733 -0.2361 -0.2914
 9172SOL    HW130408   8.990   3.926   3.266  1.6438  0.4677 -0.0408
 9172SOL    HW230409   8.929   3.886   3.399  0.7441  1.5080 -0.1368
 9173SOL     OW30410   4.704   9.356   2.427 -0.2324 -0.0292 -0.4254
 9173SOL    HW130411   4.674   9.288   2.487 -0.9533 -0.6291 -1.4285
 9173SOL    HW230412   4.713   9.434   2.482  1.5300 -1.1235  0.9285
 9174SOL     OW30413   3.141   4.267   0.816  0.3243 -0.2676  0.3364
 9174SOL    HW130414   3.222   4.310   0.844  0.7467 -0.7406 -0.1303
 9174SOL    HW230415   3.126   4.198   0.881  0.5042 -0.4253  0.2102
 9175SOL     OW30416   8.675   3.594   0.891 -0.2013 -0.1946 -0.2256
 9175SOL    HW130417   8.745   3.550   0.939 -1.5898 -0.2314  1.8906
 9175SOL    HW230418   8.668   3.545   0.809 -0.2382 -2.5975  1.1263
 9176SOL     OW30419   4.568   8.417   5.600 -0.3799 -0.2884 -0.1516
 9176SOL    HW130420   4.583   8.334   5.643 -1.1437  0.4255  1.5741
 9176SOL    HW230421   4.524   8.395   5.518 -0.5969 -1.5585  0.2993
 9177SOL     OW30422   6.039   3.675   2.403 -0.7376  0.8184 -0.0176
 9177SOL    HW130423   6.050   3.757   2.450  1.3973  0.6655 -0.1520
 9177SOL    HW230424   6.098   3.683   2.328 -0.7233 -0.7180 -0.1963
 9178SOL     OW30425   4.618   2.734   0.343 -0.1192 -0.3546 -0.6965
 9178SOL    HW130426   4.557   2.803   0.370 -0.8127 -1.1607 -0.1549
 9178SOL    HW230427   4.597   2.660   0.399  0.5276 -1.0611 -1.3617
 9179SOL     OW30428   9.342   4.569   6.231  0.4375 -0.7045  0.1366
 9179SOL    HW130429   9.326   4.628   6.157 -0.0100 -2.2783 -1.1005
 9179SOL    HW230430   9.255   4.540   6.258  0.6033 -0.1271  1.3208
 9180SOL     OW30431   0.966   3.897   7.404 -0.3018  0.2571 -0.3636
 9180SOL    HW130432   1.039   3.836   7.410 -0.4342  0.1570  0.3657
 9180SOL    HW230433   0.998   3.977   7.445 -0.0879  0.7267 -1.4251
 9181SOL     OW30434   3.192   4.465   4.970  0.1351  0.1634  0.4600
 9181SOL    HW130435   3.149   4.519   4.904 -0.8343 -1.3751 -0.2261
 9181SOL    HW230436   3.240   4.527   5.025 -0.4539  1.6382 -0.6384
 9182SOL     OW30437   7.062   9.433   0.306  0.2599 -0.0896  0.3529
 9182SOL    HW130438   7.030   9.385   0.382 -0.0181 -2.9308 -1.4131
 9182SOL    HW230439   7.146   9.469   0.334 -0.4287  0.0651  2.3624
 9183SOL     OW30440   5.346   5.800   1.457 -0.2608 -0.0384  0.9017
 9183SOL    HW130441   5.322   5.818   1.366 -0.7518 -3.3269  0.2518
 9183SOL    HW230442   5.270   5.829   1.508 -1.2890 -0.9146 -0.0750
 9184SOL     OW30443   4.975   7.681   0.527  0.5914  0.0228  0.1140
 9184SOL    HW130444   4.930   7.726   0.456 -0.7508  0.3269  1.1167
 9184SOL    HW230445   5.003   7.751   0.586 -0.7729 -0.3706  1.2672
 9185SOL     OW30446   8.670   1.809   8.776  0.1595 -0.4666  0.2849
 9185SOL    HW130447   8.652   1.718   8.750  0.3995 -0.4413  0.0236
 9185SOL    HW230448   8.734   1.840   8.712 -0.9836  0.3557 -0.4959
 9186SOL     OW30449   3.625   2.053   3.707 -0.5399 -0.3402 -0.0461
 9186SOL    HW130450   3.630   2.130   3.651  1.7145 -0.9243 -0.7602
 9186SOL    HW230451   3.589   2.086   3.790  1.1711  1.7079 -0.0262
 9187SOL     OW30452   8.333   4.918   3.211 -0.2004 -0.8043  0.4256
 9187SOL    HW130453   8.237   4.913   3.206 -0.2028 -0.1933 -0.3321
 9187SOL    HW230454   8.354   4.887   3.299 -1.2229  0.5745  1.2080
 9188SOL     OW30455   9.487   0.180   2.637  0.0780 -0.3655 -0.0836
 9188SOL    HW130456   9.574   0.145   2.651 -0.5349 -1.9626 -0.1378
 9188SOL    HW230457   9.431   0.132   2.698 -0.8964  0.0485 -0.6319
 9189SOL     OW30458   5.863   7.191   1.871  0.1000  0.3574 -0.1862
 9189SOL    HW130459   5.797   7.123   1.865  0.1813  0.3807 -2.8200
 9189SOL    HW230460   5.829   7.253   1.935  0.4377 -2.4650  2.9715
 9190SOL     OW30461   2.953   2.010   7.519  0.0035  0.1797 -0.3219
 9190SOL    HW130462   3.004   2.091   7.513  1.2681 -0.6499 -1.6860
 9190SOL    HW230463   2.916   2.011   7.607 -0.3257  2.4027 -0.4349
 9191SOL     OW30464   6.740   4.819   4.754  0.1729  0.0263 -0.3450
 9191SOL    HW130465   6.657   4.816   4.706 -0.5480 -2.0561  0.9330
 9191SOL    HW230466   6.745   4.736   4.800  2.0294  0.9205  1.2197
 9192SOL     OW30467   0.176   7.430   4.423  0.6819  0.2854 -0.0223
 9192SOL    HW130468   0.174   7.444   4.518 -1.3446 -1.1184  0.1838
 9192SOL    HW230469   0.251   7.482   4.393  2.8433 -1.0592  2.6289
 9193SOL     OW30470   3.825   2.166   6.104 -0.2910 -0.0655 -0.8074
 9193SOL    HW130471   3.916   2.195   6.102 -0.1570 -0.2439  0.9491
 9193SOL    HW230472   3.781   2.227   6.164 -1.2865 -0.1004 -1.4726
 9194SOL     OW30473   2.102   9.121   0.603 -0.1819  0.4507 -0.0068
 9194SOL    HW130474   2.097   9.170   0.521  0.4530 -0.1000 -0.3810
 9194SOL    HW230475   2.180   9.156   0.647 -1.1646  1.5625  0.9149
 9195SOL     OW30476   4.129   1.224   8.497 -0.0510  0.0123  0.5102
 9195SOL    HW130477   4.188   1.204   8.425 -1.7920 -1.3451 -0.6151
 9195SOL    HW230478   4.078   1.299   8.466 -0.9773 -0.7320  0.1822
 9196SOL     OW30479   8.250   2.832   0.755 -0.3119  0.0540  0.0181
 9196SOL    HW130480   8.211   2.913   0.787 -0.1419 -0.1684  0.8305
 9196SOL    HW230481   8.343   2.838   0.780 -0.5288 -0.8899  1.1725
 9197SOL     OW30482   7.285   3.498   9.139  0.3194 -0.0278 -0.6798
 9197SOL    HW130483   7.330   3.569   9.183  0.1521 -1.3185  1.7495
 9197SOL    HW230484   7.329   3.418   9.170 -1.5966 -1.1471 -0.6308
 9198SOL     OW30485   4.529   7.560   6.363  0.5638 -0.4441  0.1863
 9198SOL    HW130486   4.509   7.629   6.426 -0.0037 -0.5052  0.0743
 9198SOL    HW230487   4.523   7.602   6.277 -1.9407 -1.0960 -0.0296
 9199SOL     OW30488   1.373   2.503   2.672 -0.5927 -0.1402  0.5372
 9199SOL    HW130489   1.362   2.539   2.584 -0.5547 -0.0416  0.5722
 9199SOL    HW230490   1.397   2.412   2.658 -1.3639 -0.3302  0.4625
 9200SOL     OW30491   8.822   3.606   1.549  0.8375 -0.4503  0.0362
 9200SOL    HW130492   8.769   3.684   1.566  0.3371 -0.5834 -0.8770
 9200SOL    HW230493   8.759   3.534   1.544  1.1885 -0.7476 -0.2030
 9201SOL     OW30494   8.382   9.457   2.060 -0.2476  0.1017 -0.0606
 9201SOL    HW130495   8.377   9.433   2.152  1.5495 -0.6133 -0.1123
 9201SOL    HW230496   8.333   9.388   2.014  0.2102 -0.4150  0.2312
 9202SOL     OW30497   4.114   6.376   3.335  0.8071 -0.7710 -0.2921
 9202SOL    HW130498   4.115   6.443   3.267 -1.4598  0.2258  0.5394
 9202SOL    HW230499   4.036   6.324   3.316  0.2963 -0.6599  1.2965
 9203SOL     OW30500   7.795   3.607   2.560 -0.8744 -0.2011  0.0476
 9203SOL    HW130501   7.769   3.570   2.645  0.6426 -1.9817 -0.2030
 9203SOL    HW230502   7.759   3.696   2.561 -2.9886 -0.9685  1.5307
 9204SOL     OW30503   5.201   1.917   3.422  0.1504  0.3479 -0.4791
 9204SOL    HW130504   5.156   1.986   3.472 -2.5955 -1.2054 -0.5578
 9204SOL    HW230505   5.207   1.951   3.333  1.0156  1.4087 -0.0239
 9205SOL     OW30506   7.371   0.039   8.418  0.5429  0.0721  0.4715
 9205SOL    HW130507   7.450   0.082   8.386 -0.7289  1.2427 -1.2836
 9205SOL    HW230508   7.345   0.090   8.494  0.5957  0.7004  0.0753
 9206SOL     OW30509   0.720   8.374   2.652  0.3540  0.0200  0.1878
 9206SOL    HW130510   0.750   8.306   2.591 -0.7134 -0.3299  0.0203
 9206SOL    HW230511   0.798   8.424   2.673  0.8203 -0.0926 -1.1676
 9207SOL     OW30512   0.099   0.712   1.814 -0.2109 -0.1507 -0.0979
 9207SOL    HW130513   0.041   0.662   1.872  1.2090 -0.4410  1.1429
 9207SOL    HW230514   0.177   0.657   1.805  0.5169  0.9033 -0.4290
 9208SOL     OW30515   4.088   1.313   6.835  0.3197 -0.3706  0.2385
 9208SOL    HW130516   4.036   1.290   6.912 -0.8348 -1.5162 -0.8367
 9208SOL    HW230517   4.179   1.308   6.865 -0.0602 -1.9744  1.2317
 9209SOL     OW30518   9.636   6.418   5.901  0.4592 -0.4466  0.6933
 9209SOL    HW130519   9.541   6.425   5.910 -0.0654 -1.3316 -2.7085
 9209SOL    HW230520   9.667   6.508   5.907 -1.0145  0.2378 -0.8750
 9210SOL     OW30521   9.462   7.307   1.247  0.2173 -0.3065 -0.4281
 9210SOL    HW130522   9.530   7.289   1.312  0.0887 -1.6565 -0.6499
 9210SOL    HW230523   9.500   7.376   1.192  0.8273 -0.0412  0.3119
 9211SOL     OW30524   8.606   2.630   0.304 -0.1434 -0.4165 -0.1448
 9211SOL    HW130525   8.573   2.696   0.365  0.7391  0.2946 -0.4193
 9211SOL    HW230526   8.574   2.659   0.219 -1.3119 -1.3692 -0.0592
 9212SOL     OW30527   6.698   3.062   4.176 -0.0874 -0.5870 -0.1568
 9212SOL    HW130528   6.792   3.073   4.163 -0.3472  1.9280 -0.3644
 9212SOL    HW230529   6.681   3.092   4.265 -0.5305 -2.5638  0.4851
 9213SOL     OW30530   6.449   7.900   4.277  0.1083  0.3758  0.2968
 9213SOL    HW130531   6.527   7.846   4.291  0.9171  1.8358  1.7955
 9213SOL    HW230532   6.454   7.926   4.185  0.9600 -0.1963  0.1706
 9214SOL     OW30533   2.725   1.195   8.762 -0.1792  0.3037 -0.0457
 9214SOL    HW130534   2.693   1.120   8.713 -1.3225  0.5032  0.3650
 9214SOL    HW230535   2.648   1.229   8.807  0.8971 -0.1998  2.3376
 9215SOL     OW30536   3.944   1.713   3.464  0.1436 -0.0060 -0.2215
 9215SOL    HW130537   3.910   1.624   3.467  0.2678 -0.0582 -0.3727
 9215SOL    HW230538   3.934   1.746   3.553 -0.0128 -0.1295 -0.1940
 9216SOL     OW30539   2.214   2.358   4.319 -0.3714  0.4313 -0.5108
 9216SOL    HW130540   2.169   2.317   4.246  0.8993  0.4270 -1.3267
 9216SOL    HW230541   2.144   2.383   4.379 -1.3765 -0.4081 -1.2802
 9217SOL     OW30542   1.042   4.702   8.289 -0.3024  0.1310  0.4326
 9217SOL    HW130543   1.079   4.789   8.300 -0.1429  0.2017 -0.5725
 9217SOL    HW230544   1.118   4.646   8.270 -0.6018  0.1781 -1.0890
 9218SOL     OW30545   3.942   2.770   6.698  0.7164  0.1332 -0.5202
 9218SOL    HW130546   3.974   2.810   6.779 -0.9286 -0.8348  0.6662
 9218SOL    HW230547   3.984   2.684   6.696 -3.1378 -2.1718  2.2939
 9219SOL     OW30548   6.463   1.041   3.276 -0.3647  0.0026 -0.2201
 9219SOL    HW130549   6.547   1.086   3.263 -0.5023  0.2451 -0.2668
 9219SOL    HW230550   6.399   1.112   3.285 -0.3504 -0.1496  1.3175
 9220SOL     OW30551   7.749   3.843   6.223  0.7627  0.3197 -0.2988
 9220SOL    HW130552   7.777   3.909   6.160 -0.3316  0.3477 -0.7775
 9220SOL    HW230553   7.699   3.780   6.171  0.3955 -0.0044  0.4310
 9221SOL     OW30554   1.507   8.390   2.399 -0.4729  0.6901  0.2087
 9221SOL    HW130555   1.577   8.402   2.462 -2.1711 -2.1281  2.9062
 9221SOL    HW230556   1.522   8.302   2.363 -1.8773  0.5393 -0.0785
 9222SOL     OW30557   8.638   7.549   7.536  0.0692  0.4147  0.0406
 9222SOL    HW130558   8.611   7.634   7.500  1.2125  1.0491  0.6266
 9222SOL    HW230559   8.693   7.571   7.611 -1.9955 -0.8771  2.0524
 9223SOL     OW30560   5.743   9.329   1.341  0.1630 -0.1663  0.1014
 9223SOL    HW130561   5.683   9.385   1.292 -0.1575 -1.3986 -0.9786
 9223SOL    HW230562   5.689   9.254   1.368  0.9961 -0.8349 -0.0639
 9224SOL     OW30563   6.214   1.320   6.776 -0.4386 -0.3341 -0.2050
 9224SOL    HW130564   6.194   1.310   6.683 -1.0309  0.4810 -0.1717
 9224SOL    HW230565   6.132   1.300   6.821 -0.2851 -0.2426  0.1164
 9225SOL     OW30566   5.585   5.868   1.084 -0.3691 -0.8324  0.7791
 9225SOL    HW130567   5.593   5.823   1.168 -0.0299  1.3367  2.0005
 9225SOL    HW230568   5.673   5.901   1.066 -0.5822 -0.7044 -0.0777
 9226SOL     OW30569   3.055   6.075   2.118 -0.2087  0.0687  0.0370
 9226SOL    HW130570   3.073   5.982   2.107 -0.1383  0.2600 -1.7722
 9226SOL    HW230571   3.097   6.117   2.043 -1.2372  1.4335  0.1725
 9227SOL     OW30572   2.205   3.053   6.566 -0.2578 -0.0398 -0.0498
 9227SOL    HW130573   2.209   2.957   6.562  1.5590  0.0189 -0.5012
 9227SOL    HW230574   2.296   3.081   6.557 -0.8647  1.7795 -0.9544
 9228SOL     OW30575   4.846   5.114   7.282 -0.1381  0.2248  0.3237
 9228SOL    HW130576   4.800   5.116   7.198  1.1430  2.5374 -0.4069
 9228SOL    HW230577   4.886   5.200   7.289  1.2605 -0.5299  2.5095
 9229SOL     OW30578   2.797   2.491   0.728 -0.3235 -0.3404 -0.0091
 9229SOL    HW130579   2.877   2.443   0.749  0.1686  1.2734  2.3350
 9229SOL    HW230580   2.824   2.583   0.728 -2.1497  0.2520  0.8747
 9230SOL     OW30581   9.193   5.495   4.980 -0.0077 -0.3701 -0.7311
 9230SOL    HW130582   9.174   5.414   5.028 -1.2732  0.0620 -0.4525
 9230SOL    HW230583   9.284   5.515   5.001  0.2798 -1.6441 -0.6941
 9231SOL     OW30584   5.047   1.469   6.533  0.2744 -0.2851  0.1844
 9231SOL    HW130585   5.068   1.538   6.595 -1.5260  1.0785 -0.6304
 9231SOL    HW230586   5.117   1.405   6.543  1.9060  1.5482  1.1137
 9232SOL     OW30587   1.242   1.869   5.498 -0.2687  0.0437  0.1211
 9232SOL    HW130588   1.300   1.867   5.421 -1.5956  1.1025 -0.9385
 9232SOL    HW230589   1.288   1.816   5.563  1.3075 -0.1635 -1.0991
 9233SOL     OW30590   4.006   4.102   1.342  0.1060 -0.6222  0.4845
 9233SOL    HW130591   3.964   4.070   1.262  0.4659  0.5363 -0.1923
 9233SOL    HW230592   3.949   4.072   1.412 -2.2982  1.4315 -0.4261
 9234SOL     OW30593   6.956   0.280   0.160  0.0381 -0.2424 -0.0510
 9234SOL    HW130594   6.990   0.207   0.212  1.4597  0.2722 -0.1904
 9234SOL    HW230595   7.034   0.334   0.142 -0.8761  0.9910 -0.4445
 9235SOL     OW30596   9.583   4.034   2.616  0.4162  0.4652 -0.0234
 9235SOL    HW130597   9.626   4.108   2.574 -0.6364  1.1357  0.0567
 9235SOL    HW230598   9.571   4.061   2.707  2.1664 -0.7586  0.6288
 9236SOL     OW30599   1.211   3.650   9.322 -0.2115 -0.1552  0.1660
 9236SOL    HW130600   1.169   3.736   9.316 -0.3476 -0.2183  0.2168
 9236SOL    HW230601   1.289   3.665   9.374 -0.0020  0.0272 -0.1951
 9237SOL     OW30602   7.961   4.121   8.093  0.5243  0.0841 -0.3672
 9237SOL    HW130603   7.946   4.204   8.048 -0.6159 -0.3040 -0.7364
 9237SOL    HW230604   7.963   4.144   8.186 -0.0117  0.5014 -0.4526
 9238SOL     OW30605   5.414   7.831   3.741 -0.0671 -0.1762 -0.3060
 9238SOL    HW130606   5.441   7.857   3.652  1.6600 -0.5880  0.0640
 9238SOL    HW230607   5.476   7.876   3.799 -0.7619 -0.4352  0.6623
 9239SOL     OW30608   8.374   6.831   8.304 -0.7444 -0.5607 -0.3201
 9239SOL    HW130609   8.436   6.864   8.368 -0.9961  1.9290 -1.2459
 9239SOL    HW230610   8.387   6.736   8.304  0.1468 -0.5237  2.4331
 9240SOL     OW30611   4.235   2.188   9.041  0.3330 -0.3622  0.6289
 9240SOL    HW130612   4.239   2.142   8.957 -2.0089  0.5039 -0.0642
 9240SOL    HW230613   4.226   2.119   9.107 -0.2638 -0.9863 -0.0898
 9241SOL     OW30614   0.788   9.480   6.650  0.0851 -0.3191  0.0695
 9241SOL    HW130615   0.745   9.543   6.593  2.2923  0.6269 -0.6575
 9241SOL    HW230616   0.719   9.419   6.675 -1.3097  0.1753 -2.2881
 9242SOL     OW30617   7.565   3.841   8.783  0.1631 -0.1591 -0.3273
 9242SOL    HW130618   7.488   3.800   8.743 -0.1346 -1.5971  1.5421
 9242SOL    HW230619   7.635   3.826   8.720 -0.8870  0.4853 -1.7163
 9243SOL     OW30620   1.013   0.169   7.558 -0.3115 -0.1725  0.5601
 9243SOL    HW130621   1.010   0.249   7.507 -0.4162  0.8942  2.1695
 9243SOL    HW230622   0.925   0.132   7.550 -0.5774  0.4350  0.6752
 9244SOL     OW30623   3.408   8.695   6.934  0.0508  0.5173  0.6010
 9244SOL    HW130624   3.428   8.771   6.879  0.9757  0.1304  0.3856
 9244SOL    HW230625   3.433   8.620   6.881  2.4046  0.1652  2.0433
 9245SOL     OW30626   8.985   2.587   2.178 -0.3992  0.0172  0.1016
 9245SOL    HW130627   9.023   2.623   2.258 -1.2629 -0.4690  0.7526
 9245SOL    HW230628   8.934   2.512   2.208 -0.9781  0.0090 -0.8685
 9246SOL     OW30629   0.798   9.180   4.137  0.5739 -0.1849  0.0391
 9246SOL    HW130630   0.718   9.225   4.163 -0.1374 -1.9921  1.1830
 9246SOL    HW230631   0.854   9.249   4.101 -1.1334  1.2698  0.0461
 9247SOL     OW30632   8.130   2.791   2.950  0.7352 -0.6467  0.4609
 9247SOL    HW130633   8.069   2.745   2.894  0.8102 -0.7652  0.4760
 9247SOL    HW230634   8.199   2.727   2.969  1.5244 -0.1468 -0.5827
 9248SOL     OW30635   7.134   3.729   3.019  0.6089 -0.1585 -0.2576
 9248SOL    HW130636   7.175   3.669   3.082  0.2332 -0.7638 -0.5725
 9248SOL    HW230637   7.196   3.731   2.945 -0.4557 -2.0847 -1.2925
 9249SOL     OW30638   1.458   8.549   3.134  0.0826 -0.4331  0.1716
 9249SOL    HW130639   1.364   8.530   3.144 -0.0732 -0.0528 -0.4926
 9249SOL    HW230640   1.468   8.571   3.042  0.6228  0.6688  0.4760
 9250SOL     OW30641   7.797   6.640   9.449 -0.5126  0.5270  0.2207
 9250SOL    HW130642   7.734   6.683   9.392  1.4895  0.3257 -2.2978
 9250SOL    HW230643   7.807   6.553   9.412  0.3076  0.1213  1.3515
 9251SOL     OW30644   7.603   2.868   7.417  0.8410 -0.2271  0.2167
 9251SOL    HW130645   7.549   2.797   7.451 -0.5272  0.4921 -0.3568
 9251SOL    HW230646   7.685   2.861   7.465  0.6576 -2.0467  0.3102
 9252SOL     OW30647   7.823   3.913   8.044 -0.0315 -0.0221 -0.3495
 9252SOL    HW130648   7.890   3.852   8.012 -0.9405 -0.0319 -2.4021
 9252SOL    HW230649   7.866   3.999   8.043  0.0347 -0.0537 -1.4720
 9253SOL     OW30650   3.050   3.084   3.132  0.1179 -0.2113 -0.1059
 9253SOL    HW130651   2.973   3.061   3.183  0.1798 -2.4196 -0.9100
 9253SOL    HW230652   3.115   3.017   3.154  2.1455  1.9720  1.1099
 9254SOL     OW30653   1.561   2.626   6.433  0.6719 -0.1437 -0.7242
 9254SOL    HW130654   1.584   2.719   6.426  1.6361 -0.4047 -1.1890
 9254SOL    HW230655   1.483   2.625   6.488  1.6169  0.8096  0.7170
 9255SOL     OW30656   8.149   8.650   4.561 -0.1749 -0.0079 -0.1495
 9255SOL    HW130657   8.106   8.565   4.548  0.8775 -0.4491 -0.8623
 9255SOL    HW230658   8.090   8.713   4.519 -0.3787 -0.5429 -0.6782
 9256SOL     OW30659   9.272   4.252   2.016 -0.0345  0.1320  0.1639
 9256SOL    HW130660   9.203   4.195   1.982  1.7327 -2.7072  0.9937
 9256SOL    HW230661   9.275   4.232   2.110  0.4984  1.8654  0.5492
 9257SOL     OW30662   0.995   7.469   3.825  0.2826  0.2413 -0.4606
 9257SOL    HW130663   0.949   7.549   3.851  1.2309  1.9551 -3.5728
 9257SOL    HW230664   0.928   7.417   3.781  0.7776  2.0949 -3.7063
 9258SOL     OW30665   5.397   0.008   3.397 -0.1887 -0.2509 -0.1935
 9258SOL    HW130666   5.316  -0.027   3.435  0.6921 -1.1793  0.9147
 9258SOL    HW230667   5.458   0.011   3.471  0.4355  1.6196 -0.7324
 9259SOL     OW30668   7.460   8.469   9.537 -0.2624 -0.0480 -0.9750
 9259SOL    HW130669   7.452   8.555   9.497  1.2384  1.3300  1.4119
 9259SOL    HW230670   7.520   8.483   9.610 -0.9527 -2.8626  0.2520
 9260SOL     OW30671   6.072   7.188   2.445  0.2035  0.0358  0.1659
 9260SOL    HW130672   6.066   7.153   2.534  0.0128  0.0193  0.1477
 9260SOL    HW230673   6.160   7.225   2.439  0.1134  0.3056  0.4614
 9261SOL     OW30674   2.947   1.124   2.460 -0.3025 -0.3096  0.1947
 9261SOL    HW130675   2.917   1.064   2.529  0.5928 -0.9014  0.0913
 9261SOL    HW230676   2.987   1.196   2.508 -0.6376 -0.1946  0.3066
 9262SOL     OW30677   2.870   1.074   8.069  0.0478  0.6382  0.2035
 9262SOL    HW130678   2.915   1.153   8.099  1.0002  0.6850 -1.2696
 9262SOL    HW230679   2.931   1.032   8.009 -1.9744  0.9416 -2.2530
 9263SOL     OW30680   0.435   0.375   5.769 -0.1566  0.0727 -0.2920
 9263SOL    HW130681   0.463   0.284   5.768 -0.6136 -0.0705 -1.6654
 9263SOL    HW230682   0.371   0.382   5.698 -2.5559  0.7296  1.8143
 9264SOL     OW30683   3.558   6.275   3.381  0.0492  0.3703  0.9005
 9264SOL    HW130684   3.502   6.347   3.354  1.2879  0.5933 -1.3020
 9264SOL    HW230685   3.647   6.304   3.359  0.9940 -0.3333  3.4064
 9265SOL     OW30686   7.284   1.458   0.119 -0.0287 -0.1445 -0.0036
 9265SOL    HW130687   7.348   1.389   0.105  0.6246  0.7392 -1.6118
 9265SOL    HW230688   7.324   1.537   0.082 -1.8034  0.5504 -0.5592
 9266SOL     OW30689   4.151   5.824   9.226 -0.4912 -0.2098 -0.2693
 9266SOL    HW130690   4.138   5.738   9.267 -2.3429  0.1931  0.0647
 9266SOL    HW230691   4.155   5.805   9.132  0.9303 -0.8335 -0.1019
 9267SOL     OW30692   2.968   1.268   7.677  0.0291  0.0405  0.4106
 9267SOL    HW130693   2.982   1.222   7.594 -1.3372 -0.0776  0.2232
 9267SOL    HW230694   2.994   1.204   7.744 -0.3876 -0.4492  0.1094
 9268SOL     OW30695   9.374   0.098   3.182 -0.2353  0.6430 -0.1618
 9268SOL    HW130696   9.422   0.133   3.106 -3.1250  1.7691 -1.6192
 9268SOL    HW230697   9.364   0.005   3.164  1.5130  0.3293  0.2981
 9269SOL     OW30698   8.763   1.402   7.428 -0.4412 -0.3876  0.1608
 9269SOL    HW130699   8.843   1.382   7.477 -0.8672  0.3906  1.2207
 9269SOL    HW230700   8.793   1.421   7.339  0.5709  0.0398  0.5816
 9270SOL     OW30701   5.064   6.515   9.349  0.0600 -0.2016  0.0041
 9270SOL    HW130702   5.139   6.572   9.333  0.2786 -0.4591  0.1065
 9270SOL    HW230703   5.056   6.512   9.444  0.2639 -0.6179  0.0106
 9271SOL     OW30704   8.261   0.552   2.883 -0.1549 -0.2228 -0.1306
 9271SOL    HW130705   8.229   0.465   2.908  1.6320 -0.9844 -0.3702
 9271SOL    HW230706   8.282   0.544   2.790 -0.5113  0.6513 -0.2951
 9272SOL     OW30707   7.184   4.134   9.177 -0.3472  0.0233  0.0665
 9272SOL    HW130708   7.207   4.077   9.251 -1.1304  0.8360  0.9684
 9272SOL    HW230709   7.239   4.103   9.105  2.4841  0.8831  1.6713
 9273SOL     OW30710   5.002   5.744   8.976  0.6964  0.0122  0.1270
 9273SOL    HW130711   5.005   5.651   9.000 -2.4146 -0.1283  0.3778
 9273SOL    HW230712   4.982   5.789   9.058 -1.7306  0.4008 -0.5863
 9274SOL     OW30713   4.241   1.042   2.159  0.4389  1.0057 -0.2020
 9274SOL    HW130714   4.307   0.979   2.186  0.0325  0.7008  0.0941
 9274SOL    HW230715   4.164   1.020   2.211 -0.3660  0.4075 -1.5736
 9275SOL     OW30716   8.410   6.229   5.130  0.5059  0.3879  0.2299
 9275SOL    HW130717   8.466   6.182   5.192  2.0188  0.3319 -1.1156
 9275SOL    HW230718   8.420   6.181   5.048  1.2645  2.3910 -0.9169
 9276SOL     OW30719   0.821   0.016   8.784 -0.0438 -0.1322  0.2653
 9276SOL    HW130720   0.735   0.002   8.823  0.3225 -0.2837  1.0288
 9276SOL    HW230721   0.814   0.101   8.740 -0.8840 -0.5894 -0.5310
 9277SOL     OW30722   0.904   1.126   4.936 -0.1724  0.3996  0.2202
 9277SOL    HW130723   0.873   1.046   4.895 -0.0580  0.6600 -0.3849
 9277SOL    HW230724   0.944   1.176   4.864 -0.2630  1.0050  0.5855
 9278SOL     OW30725   3.956   3.863   8.394  0.2310 -0.2900 -0.1723
 9278SOL    HW130726   3.965   3.956   8.414 -0.5297  0.0161 -1.1394
 9278SOL    HW230727   3.865   3.854   8.364  0.4715 -1.2319 -0.6583
 9279SOL     OW30728   3.676   4.509   5.466 -0.0714  1.1294  0.0061
 9279SOL    HW130729   3.735   4.436   5.483 -1.5962 -0.0260  0.6162
 9279SOL    HW230730   3.590   4.468   5.452 -0.4669  2.6180 -2.5659
 9280SOL     OW30731   5.202   6.626   1.120 -0.5049 -0.0171  0.0580
 9280SOL    HW130732   5.260   6.701   1.136 -0.3971 -0.1081  0.0932
 9280SOL    HW230733   5.224   6.563   1.189  1.2569 -1.1831 -1.4399
 9281SOL     OW30734   7.451   6.431   7.193 -0.0726  0.2616  0.7341
 9281SOL    HW130735   7.387   6.363   7.169 -1.3536  1.6346  0.1216
 9281SOL    HW230736   7.531   6.382   7.212 -0.7447 -1.3717 -0.3939
 9282SOL     OW30737   7.286   9.496   9.289  0.0371  0.1191  0.2446
 9282SOL    HW130738   7.304   9.586   9.314  0.8231 -0.3968  1.6337
 9282SOL    HW230739   7.215   9.468   9.347 -0.3379 -0.1046 -0.3094
 9283SOL     OW30740   4.879   7.945   0.722 -0.3026  0.0578 -0.5542
 9283SOL    HW130741   4.903   8.016   0.781  0.7928 -0.7758  0.0383
 9283SOL    HW230742   4.946   7.947   0.654 -1.0822  0.4777 -1.3257
 9284SOL     OW30743   2.845   2.278   1.034  0.1116 -0.3355 -0.0638
 9284SOL    HW130744   2.761   2.264   0.992  0.3966  0.7271 -1.0642
 9284SOL    HW230745   2.907   2.229   0.980  0.1031 -1.3573  0.8415
 9285SOL     OW30746   4.363   1.073   7.955 -0.1411  0.3538 -0.2527
 9285SOL    HW130747   4.306   1.092   8.030  0.6889  0.1561  0.4562
 9285SOL    HW230748   4.388   1.159   7.922 -2.2411  0.4677 -1.7119
 9286SOL     OW30749   6.186   9.459   1.370  0.2238  0.3279 -1.0568
 9286SOL    HW130750   6.114   9.457   1.306  0.5309 -0.9113 -1.3808
 9286SOL    HW230751   6.243   9.387   1.345  0.7105  0.2397  0.2144
 9287SOL     OW30752   6.623   1.427   3.165  0.2984 -0.2234 -0.3322
 9287SOL    HW130753   6.716   1.404   3.178 -0.2483 -1.9519  0.8904
 9287SOL    HW230754   6.590   1.443   3.253 -0.6397  0.0917 -0.7333
 9288SOL     OW30755   5.243   8.132   3.430 -0.1011 -0.0467  0.4961
 9288SOL    HW130756   5.157   8.094   3.414  0.2509 -1.0106  0.8741
 9288SOL    HW230757   5.283   8.138   3.343  0.0919 -1.1495  0.5040
 9289SOL     OW30758   9.321   2.625   9.305  0.3180  0.1756 -0.3428
 9289SOL    HW130759   9.235   2.584   9.314  1.0497 -1.5453 -0.8278
 9289SOL    HW230760   9.321   2.695   9.370 -1.3366  0.0344 -0.1477
 9290SOL     OW30761   7.445   2.076   4.225  0.0388 -0.5637  0.5424
 9290SOL    HW130762   7.420   2.007   4.287 -0.8186  0.0684  0.9166
 9290SOL    HW230763   7.402   2.155   4.258  0.9925  0.1556  0.1084
 9291SOL     OW30764   0.737   0.994   3.667 -0.0515  0.1518  0.0634
 9291SOL    HW130765   0.756   0.987   3.761 -0.4455 -0.0513  0.1328
 9291SOL    HW230766   0.740   1.088   3.649  1.1369  0.1191  0.0346
 9292SOL     OW30767   9.438   2.649   1.669  0.2559  0.2238  0.3862
 9292SOL    HW130768   9.420   2.692   1.585 -0.9000 -1.1249 -0.1027
 9292SOL    HW230769   9.390   2.566   1.664 -0.8319  0.6146  2.8602
 9293SOL     OW30770   7.070   5.961   9.619  0.0101 -0.6221  0.3032
 9293SOL    HW130771   7.126   5.931   9.547 -0.9640 -0.6336 -0.4644
 9293SOL    HW230772   7.116   6.038   9.653  1.3512 -1.5870  0.8042
 9294SOL     OW30773   4.972   4.037   2.188 -0.6307 -0.0093 -0.3419
 9294SOL    HW130774   5.048   3.983   2.209 -0.4213  1.0245  1.8643
 9294SOL    HW230775   4.971   4.041   2.092  1.7403 -0.5095 -0.4456
 9295SOL     OW30776   3.766   0.498   8.752 -0.0201  0.4424  0.7856
 9295SOL    HW130777   3.772   0.446   8.671  0.1928 -0.9901  1.6933
 9295SOL    HW230778   3.710   0.447   8.809  0.1873  1.2365  1.7218
 9296SOL     OW30779   4.849   1.752   6.729 -0.5552  0.8740  0.4574
 9296SOL    HW130780   4.773   1.695   6.713 -1.8059  1.4878  3.4988
 9296SOL    HW230781   4.817   1.840   6.711 -0.3540  1.0613  0.9834
 9297SOL     OW30782   6.507   7.631   0.883 -0.1616 -0.3414 -0.6105
 9297SOL    HW130783   6.469   7.544   0.900  0.7054 -0.6463 -0.1436
 9297SOL    HW230784   6.487   7.649   0.791  0.2345 -1.3439 -0.9057
 9298SOL     OW30785   0.342   4.827   4.016  0.0848  0.3974 -0.3779
 9298SOL    HW130786   0.279   4.876   4.069  0.4266  0.9833 -0.5052
 9298SOL    HW230787   0.411   4.890   3.997  1.6933 -0.7378  1.3577
 9299SOL     OW30788   0.302   6.688   4.013  0.4104 -0.2141  0.9229
 9299SOL    HW130789   0.316   6.737   4.094  0.8639 -0.0553  0.7509
 9299SOL    HW230790   0.211   6.704   3.990  0.1472 -0.6254  1.6475
 9300SOL     OW30791   1.784   8.331   7.284 -0.3517  0.1584  0.2659
 9300SOL    HW130792   1.706   8.278   7.300  0.3310 -0.8091  0.4662
 9300SOL    HW230793   1.794   8.330   7.188 -0.2353 -0.2367  0.2812
 9301SOL     OW30794   7.571   2.705   9.397 -0.4242  0.3346  0.2572
 9301SOL    HW130795   7.600   2.794   9.380  4.1280 -1.1447 -1.5551
 9301SOL    HW230796   7.537   2.674   9.313  0.3132 -0.2879  0.1743
 9302SOL     OW30797   6.623   0.880   6.239 -0.3843  0.2948 -0.1796
 9302SOL    HW130798   6.630   0.944   6.309  0.2132  0.7327 -0.6321
 9302SOL    HW230799   6.537   0.896   6.200  0.3870  1.8926 -1.3103
 9303SOL     OW30800   5.562   8.558   1.969 -0.1553 -0.6674  0.1140
 9303SOL    HW130801   5.616   8.563   2.048 -0.5464  0.6733  0.3249
 9303SOL    HW230802   5.609   8.611   1.905 -0.1814 -1.2038 -0.3539
 9304SOL     OW30803   4.041   0.559   0.048  0.4170 -0.4062 -0.3126
 9304SOL    HW130804   3.973   0.604  -0.003 -2.4485 -3.6287  0.2855
 9304SOL    HW230805   4.068   0.486  -0.008  0.0935 -1.6974  1.1534
 9305SOL     OW30806   4.541   4.950   4.288 -0.4154  0.1970 -0.3863
 9305SOL    HW130807   4.540   4.952   4.384 -0.6100  0.5547 -0.3947
 9305SOL    HW230808   4.633   4.941   4.265 -0.3622  0.1724 -0.1653
 9306SOL     OW30809   9.325   9.526   5.481  0.3354 -0.2845  0.3202
 9306SOL    HW130810   9.335   9.619   5.505  0.2874 -0.4892  1.1928
 9306SOL    HW230811   9.234   9.519   5.451  0.1385 -0.1696  0.8728
 9307SOL     OW30812   1.303   8.074   3.178 -0.0122  0.0084  0.4878
 9307SOL    HW130813   1.261   8.041   3.257  0.1145 -1.1888  0.0781
 9307SOL    HW230814   1.380   8.122   3.209 -0.7328  0.7690  1.1481
 9308SOL     OW30815   3.576   5.811   2.702  0.1405  0.1652  0.0552
 9308SOL    HW130816   3.592   5.894   2.746  1.9073  0.9816 -1.9112
 9308SOL    HW230817   3.499   5.774   2.745 -0.9337  2.9965  0.7545
 9309SOL     OW30818   8.372   3.675   8.236  0.8438  0.2081 -0.3977
 9309SOL    HW130819   8.330   3.699   8.153  0.3353 -1.1188 -0.5456
 9309SOL    HW230820   8.465   3.690   8.221  0.8046 -0.3822 -1.3517
 9310SOL     OW30821   2.956   5.653   1.242  0.0210 -0.1106  0.1717
 9310SOL    HW130822   3.015   5.587   1.204 -0.3725 -1.2312  1.4350
 9310SOL    HW230823   3.014   5.724   1.269  0.7282 -0.8667  0.7006
 9311SOL     OW30824   4.146   7.166   5.202  0.3120  0.1174 -0.0807
 9311SOL    HW130825   4.061   7.155   5.160  0.2008  1.6373 -0.3275
 9311SOL    HW230826   4.150   7.098   5.268 -1.1775  0.1240  0.0417
 9312SOL     OW30827   3.146   0.171   3.230  0.1857  0.1314  0.3774
 9312SOL    HW130828   3.219   0.122   3.192  0.4615  1.4880 -0.9506
 9312SOL    HW230829   3.160   0.165   3.324  1.7948  0.0137  0.1706
 9313SOL     OW30830   0.257   1.467   2.750 -0.4381  0.1737 -0.4987
 9313SOL    HW130831   0.341   1.439   2.787  0.0201  0.3269 -1.3912
 9313SOL    HW230832   0.280   1.508   2.666 -1.2786  1.3870 -0.1643
 9314SOL     OW30833   2.211   0.862   8.593 -0.3755 -0.0648  0.2720
 9314SOL    HW130834   2.119   0.887   8.591 -0.9825 -1.8231  2.1962
 9314SOL    HW230835   2.219   0.809   8.672  2.2909 -0.0268  0.1132
 9315SOL     OW30836   1.236   2.758   1.854 -0.2490 -0.0109 -0.0506
 9315SOL    HW130837   1.154   2.767   1.902 -0.3261 -0.6803 -0.0471
 9315SOL    HW230838   1.211   2.711   1.774  0.4743 -2.1557  0.9280
 9316SOL     OW30839   8.435   2.044   2.098 -0.3428  0.3272 -0.7683
 9316SOL    HW130840   8.510   2.103   2.105 -0.5802  0.5572  0.0880
 9316SOL    HW230841   8.359   2.102   2.101 -0.6653 -0.0707  2.3806
 9317SOL     OW30842   1.639   5.145   1.848  0.2598 -0.6032 -0.5293
 9317SOL    HW130843   1.682   5.168   1.765 -0.3927 -0.8656 -0.9446
 9317SOL    HW230844   1.583   5.071   1.827  0.3597 -0.9120  0.2343
 9318SOL     OW30845   1.593   3.989   0.280  0.0820 -0.0038  0.4675
 9318SOL    HW130846   1.594   3.953   0.369  0.3949  1.5033  1.1159
 9318SOL    HW230847   1.640   4.072   0.288 -0.8713  0.7022 -0.8697
 9319SOL     OW30848   4.307   8.995   8.483 -0.0274  0.3091  0.4401
 9319SOL    HW130849   4.353   8.986   8.567  1.9533 -3.1104 -0.7982
 9319SOL    HW230850   4.256   8.915   8.475  1.1569 -0.2819 -2.2846
 9320SOL     OW30851   9.166   8.297   0.741  0.7663  1.0418 -0.2473
 9320SOL    HW130852   9.189   8.208   0.768 -2.6300  0.3052  0.7313
 9320SOL    HW230853   9.198   8.304   0.651 -0.1939 -1.8056 -0.9342
 9321SOL     OW30854   9.508   4.060   7.792 -0.5304  0.2820 -0.0189
 9321SOL    HW130855   9.555   4.019   7.864 -0.4467 -1.2221 -0.8824
 9321SOL    HW230856   9.551   4.146   7.781  1.7868 -0.8408 -0.4749
 9322SOL     OW30857   6.554   2.659   3.112  0.0200 -0.1902  0.3463
 9322SOL    HW130858   6.463   2.644   3.135  0.0676  0.3011  0.8797
 9322SOL    HW230859   6.554   2.670   3.017 -0.4267 -0.4980  0.3098
 9323SOL     OW30860   3.758   8.012   0.637 -0.7666  0.2344 -0.4918
 9323SOL    HW130861   3.730   7.953   0.566 -0.4759 -0.7381  0.1840
 9323SOL    HW230862   3.828   8.065   0.598  0.7674 -1.6346 -0.4051
 9324SOL     OW30863   9.489   9.359   1.170  0.0991 -0.0782  0.6219
 9324SOL    HW130864   9.425   9.404   1.227 -1.4257 -0.8226 -0.4466
 9324SOL    HW230865   9.497   9.272   1.208 -0.2319 -0.2847  0.2207
 9325SOL     OW30866   4.021   2.787   7.676 -0.0488 -0.5387  0.2984
 9325SOL    HW130867   3.976   2.721   7.729  0.9558 -1.8352 -0.4162
 9325SOL    HW230868   3.953   2.850   7.653 -1.1403 -1.5854  0.5938
 9326SOL     OW30869   4.274   7.196   8.052 -0.0339  0.8624 -0.2012
 9326SOL    HW130870   4.312   7.207   8.140 -0.4551 -0.2011  0.1256
 9326SOL    HW230871   4.330   7.249   7.995  0.8410  0.7709  0.5537
 9327SOL     OW30872   3.559   6.227   3.850  0.0468 -0.2512  0.4522
 9327SOL    HW130873   3.623   6.235   3.779 -0.1797  0.4028  0.3146
 9327SOL    HW230874   3.609   6.246   3.929 -0.0130  0.4426  0.3272
 9328SOL     OW30875   5.959   4.149   6.478 -0.2039 -0.0984 -0.3540
 9328SOL    HW130876   5.988   4.151   6.386 -0.8121  0.3332 -0.5358
 9328SOL    HW230877   5.864   4.142   6.473 -0.3185  0.9536  0.2420
 9329SOL     OW30878   0.722   5.840   4.026 -0.0400  0.8471 -0.3885
 9329SOL    HW130879   0.682   5.881   3.949 -1.2827  1.1274  0.3724
 9329SOL    HW230880   0.648   5.803   4.075  0.7425  0.5022  0.5723
 9330SOL     OW30881   1.074   6.813   2.706  0.3956 -0.5099  0.1420
 9330SOL    HW130882   0.979   6.802   2.703  0.1969  1.0592 -0.1230
 9330SOL    HW230883   1.087   6.900   2.744  1.7528 -0.9451  0.7640
 9331SOL     OW30884   9.337   6.066   7.541  0.4860 -0.0685  0.7743
 9331SOL    HW130885   9.381   6.150   7.531  1.6374 -0.8112 -0.9475
 9331SOL    HW230886   9.299   6.069   7.629 -0.9222  2.8706  0.1742
 9332SOL     OW30887   5.116   3.012   3.852 -0.1196  0.1995  0.6408
 9332SOL    HW130888   5.057   2.962   3.909  1.0647 -1.2324  0.6650
 9332SOL    HW230889   5.204   2.991   3.883  0.4866  0.7727 -0.6038
 9333SOL     OW30890   2.413   7.642   7.232  0.0244 -0.1091 -0.1793
 9333SOL    HW130891   2.400   7.549   7.251  0.1420 -0.0939 -0.0207
 9333SOL    HW230892   2.508   7.654   7.234  0.0519 -0.1464 -0.9689
 9334SOL     OW30893   5.383   7.833   4.141  0.2849  0.6445  0.1492
 9334SOL    HW130894   5.335   7.889   4.080  0.3842  0.8761  0.2850
 9334SOL    HW230895   5.426   7.768   4.085 -3.9344 -2.6189  0.1912
 9335SOL     OW30896   3.973   0.862   6.681  0.5170 -0.5556  0.0211
 9335SOL    HW130897   3.914   0.928   6.718  1.7019  1.1349 -0.9949
 9335SOL    HW230898   3.955   0.864   6.587  1.2988 -0.9373 -0.1429
 9336SOL     OW30899   5.593   4.642   2.918 -0.2475 -0.0129 -0.5586
 9336SOL    HW130900   5.501   4.633   2.944 -0.3834  0.8319 -0.6967
 9336SOL    HW230901   5.635   4.562   2.949 -0.6157  0.4632  1.3234
 9337SOL     OW30902   7.130   4.397   7.398 -0.1820 -0.1413  0.1235
 9337SOL    HW130903   7.104   4.368   7.485  1.2912  0.9974  0.9839
 9337SOL    HW230904   7.064   4.461   7.373 -1.2754 -1.3374 -0.1320
 9338SOL     OW30905   3.348   6.995   2.161  0.5884  0.0664 -0.0414
 9338SOL    HW130906   3.374   7.033   2.077  1.0676 -0.4383 -0.1217
 9338SOL    HW230907   3.337   7.071   2.219  2.2174  0.3130 -0.0100
 9339SOL     OW30908   3.621   6.739   1.379  0.1566 -0.1990  0.2211
 9339SOL    HW130909   3.710   6.749   1.413 -0.9919  0.0412  3.5272
 9339SOL    HW230910   3.589   6.829   1.368 -0.5235 -0.2261  1.7142
 9340SOL     OW30911   3.829   2.645   6.329  0.4193  0.0281  0.4940
 9340SOL    HW130912   3.782   2.562   6.329  0.1295 -0.0034 -3.9125
 9340SOL    HW230913   3.919   2.621   6.354  0.0974 -1.3974  0.3920
 9341SOL     OW30914   0.830   7.076   5.683 -0.4454 -0.0785  0.1609
 9341SOL    HW130915   0.780   7.119   5.753 -0.3803  0.4444 -0.1065
 9341SOL    HW230916   0.850   6.989   5.717  0.8084  0.6457  1.3843
 9342SOL     OW30917   3.482   5.100   7.357 -0.0521  0.3050 -0.1778
 9342SOL    HW130918   3.388   5.113   7.367  0.1024  0.3970  1.3597
 9342SOL    HW230919   3.498   5.012   7.391  0.3872  0.1911 -0.6639
 9343SOL     OW30920   6.077   6.123   5.449 -0.6083 -0.2104  0.1613
 9343SOL    HW130921   6.126   6.129   5.530 -1.3032 -2.1860  0.7962
 9343SOL    HW230922   6.000   6.178   5.463 -0.5429 -0.2561  0.7187
 9344SOL     OW30923   9.332   3.614   8.804  0.7193 -0.3931  0.3245
 9344SOL    HW130924   9.344   3.573   8.889  1.0384 -1.4645 -0.2161
 9344SOL    HW230925   9.366   3.550   8.741 -1.1885 -0.4356 -0.7473
 9345SOL     OW30926   1.804   1.109   5.106 -0.2443 -0.1246  0.2064
 9345SOL    HW130927   1.761   1.174   5.050 -0.2567  0.1771  0.5671
 9345SOL    HW230928   1.737   1.084   5.169 -0.3355 -0.7135 -0.1132
 9346SOL     OW30929   7.025   2.670   1.474 -0.7952 -0.0687 -0.3933
 9346SOL    HW130930   7.109   2.712   1.489 -0.5032 -0.6489 -0.3805
 9346SOL    HW230931   7.046   2.577   1.461 -1.3899 -0.1536 -0.8006
 9347SOL     OW30932   8.634   8.832   4.627  0.2431  0.2803  0.1630
 9347SOL    HW130933   8.645   8.922   4.595  0.2311  0.5184  0.8019
 9347SOL    HW230934   8.552   8.803   4.589  1.0870 -0.0932 -1.4583
 9348SOL     OW30935   3.813   1.355   8.630 -0.3419 -0.1011  0.0548
 9348SOL    HW130936   3.844   1.268   8.658 -1.0177 -0.2359  0.4043
 9348SOL    HW230937   3.779   1.395   8.710  0.3511  0.6578 -0.0257
 9349SOL     OW30938   1.434   6.736   4.791  0.2391  0.3473 -0.0012
 9349SOL    HW130939   1.492   6.710   4.719 -0.2126 -1.7017  0.3250
 9349SOL    HW230940   1.438   6.832   4.790  2.7680  0.3247 -0.6846
 9350SOL     OW30941   1.335   0.700   1.781 -0.1644  0.2616 -0.9768
 9350SOL    HW130942   1.323   0.734   1.693 -2.0103  0.7412 -0.5894
 9350SOL    HW230943   1.280   0.622   1.784  0.1300  0.0710 -0.3418
 9351SOL     OW30944   7.708   9.216   6.577  0.0496 -0.0569 -0.4743
 9351SOL    HW130945   7.728   9.280   6.645 -1.7477 -0.7286  0.7281
 9351SOL    HW230946   7.613   9.205   6.580  0.2063 -2.0724 -1.2968
 9352SOL     OW30947   7.032   0.397   1.851  0.4218  0.3427 -0.2519
 9352SOL    HW130948   7.094   0.325   1.837 -0.0417 -0.2768  0.7586
 9352SOL    HW230949   6.959   0.379   1.792  1.4813  1.4781 -2.0063
 9353SOL     OW30950   0.006   7.780   0.895  0.0563 -0.1180  0.2749
 9353SOL    HW130951  -0.036   7.704   0.854  1.5490 -1.5916  1.3091
 9353SOL    HW230952   0.100   7.767   0.879  0.6000 -0.0290  2.8218
 9354SOL     OW30953   0.425   5.993   2.228 -0.1699  0.3257  0.1897
 9354SOL    HW130954   0.484   6.022   2.159 -0.5943  2.3897  0.6413
 9354SOL    HW230955   0.388   6.073   2.265 -3.5412 -0.8096 -0.3055
 9355SOL     OW30956   4.519   6.578   3.275 -0.5689  0.1943 -0.0302
 9355SOL    HW130957   4.439   6.544   3.235 -0.8130  0.7746 -0.0440
 9355SOL    HW230958   4.524   6.669   3.245 -0.3631  0.4172  0.6664
 9356SOL     OW30959   8.653   1.986   4.880 -0.1899 -0.0498  0.8708
 9356SOL    HW130960   8.635   1.942   4.797  0.2108 -1.1375  1.3422
 9356SOL    HW230961   8.746   2.007   4.876 -0.4947  1.3488  0.3967
 9357SOL     OW30962   2.440   9.388   1.874  0.3753 -0.1453 -0.4057
 9357SOL    HW130963   2.401   9.300   1.881  1.3832 -0.6108 -0.4155
 9357SOL    HW230964   2.459   9.398   1.780  0.3557  0.0415 -0.3899
 9358SOL     OW30965   1.884   3.556   6.454  0.1379 -0.7397 -0.3320
 9358SOL    HW130966   1.842   3.628   6.408  0.0246  0.2337  1.2369
 9358SOL    HW230967   1.960   3.596   6.498  0.1328 -1.5797  0.4836
 9359SOL     OW30968   5.030   5.419   5.482  0.2228 -0.2225 -0.9737
 9359SOL    HW130969   5.035   5.490   5.417 -2.0173 -0.5559 -1.5833
 9359SOL    HW230970   4.986   5.348   5.436 -2.4629 -0.1044  1.1716
 9360SOL     OW30971   3.131   4.868   2.959 -0.1370  0.1496  0.7089
 9360SOL    HW130972   3.079   4.793   2.988 -1.1243  0.5589  0.0536
 9360SOL    HW230973   3.148   4.851   2.867  1.1065 -0.0853  0.9641
 9361SOL     OW30974   0.965   8.347   5.604 -0.6060 -0.3272 -0.2014
 9361SOL    HW130975   0.881   8.389   5.623 -0.9762  1.1467 -4.0776
 9361SOL    HW230976   0.943   8.270   5.553  0.3552 -0.8473  0.1440
 9362SOL     OW30977   8.636   2.892   3.968 -0.9899  0.2526  0.1636
 9362SOL    HW130978   8.659   2.985   3.958  0.6749 -0.2108 -0.5865
 9362SOL    HW230979   8.595   2.888   4.055  0.6123  1.4052  1.0338
 9363SOL     OW30980   0.728   0.349   9.028  0.3183  0.2134 -0.1333
 9363SOL    HW130981   0.732   0.278   8.964  0.4670  0.5435 -0.4873
 9363SOL    HW230982   0.652   0.401   9.002 -2.8375 -2.3633  2.7824
 9364SOL     OW30983   7.880   6.974   0.084  0.6508 -0.4355 -0.1199
 9364SOL    HW130984   7.918   6.990   0.171  0.9846 -1.3258 -0.0955
 9364SOL    HW230985   7.813   7.042   0.075  0.3593 -0.5585  0.9870
 9365SOL     OW30986   2.145   7.031   0.507 -0.0041 -0.4475 -0.0437
 9365SOL    HW130987   2.085   7.105   0.494  0.3670 -0.0186  0.5973
 9365SOL    HW230988   2.110   6.986   0.584  0.7829  0.1132  0.6567
 9366SOL     OW30989   7.136   7.321   9.636  0.4137 -0.2980 -0.2556
 9366SOL    HW130990   7.100   7.374   9.707  0.0587 -0.7170 -0.1191
 9366SOL    HW230991   7.119   7.371   9.557 -0.0970 -0.3003 -0.1488
 9367SOL     OW30992   3.295   8.270   2.853  0.3793  0.3714  0.0785
 9367SOL    HW130993   3.313   8.237   2.941  0.3143  0.3547  0.0854
 9367SOL    HW230994   3.364   8.232   2.798 -0.1315 -0.3772 -0.0525
 9368SOL     OW30995   1.675   6.708   5.419  0.4417  0.1206  0.3247
 9368SOL    HW130996   1.619   6.639   5.382 -0.8297  0.4404  1.5474
 9368SOL    HW230997   1.735   6.731   5.349 -0.3265 -0.9448 -0.7191
 9369SOL     OW30998   5.856   1.891   3.736 -0.4516 -0.3976 -0.3768
 9369SOL    HW130999   5.821   1.966   3.688 -1.8069  0.0804  1.2678
 9369SOL    HW231000   5.779   1.847   3.772  0.4843 -0.6169  1.4872
 9370SOL     OW31001   1.926   7.666   2.923 -0.1112  0.5532  0.0007
 9370SOL    HW131002   1.958   7.736   2.980 -0.8745  0.0008  1.1569
 9370SOL    HW231003   1.831   7.669   2.933 -0.1423 -2.9833  3.1653
 9371SOL     OW31004   0.410   1.876   1.457 -0.4157 -0.0532  0.3225
 9371SOL    HW131005   0.356   1.813   1.505 -0.3776  0.0322  0.4799
 9371SOL    HW231006   0.418   1.950   1.517  0.9713 -0.5938  0.8431
 9372SOL     OW31007   4.214   7.371   0.247  0.4033  0.0724  0.0008
 9372SOL    HW131008   4.254   7.433   0.308 -1.5149 -0.1297  1.5465
 9372SOL    HW231009   4.123   7.364   0.275 -0.4566 -0.4298 -2.6073
 9373SOL     OW31010   6.840   5.060   3.139  0.5089 -0.1098 -0.4547
 9373SOL    HW131011   6.846   5.010   3.220  0.1277 -0.1547 -0.4553
 9373SOL    HW231012   6.777   5.129   3.157  0.7689  0.1609 -0.5673
 9374SOL     OW31013   4.447   6.964   6.949 -0.1942 -0.0368  0.2662
 9374SOL    HW131014   4.398   6.942   7.028 -1.4168 -0.5393 -0.5965
 9374SOL    HW231015   4.406   7.044   6.916  0.0863 -0.0135 -0.0364
 9375SOL     OW31016   6.353   7.020   9.134 -0.1221  0.3951  0.0855
 9375SOL    HW131017   6.358   6.932   9.096 -0.1157  0.5669 -0.3228
 9375SOL    HW231018   6.381   7.009   9.225  0.5609  0.0980 -0.1576
 9376SOL     OW31019   4.609   3.015   8.425 -0.2671 -0.4492  0.4719
 9376SOL    HW131020   4.657   3.091   8.392  0.2505 -1.3400 -0.9168
 9376SOL    HW231021   4.549   2.992   8.354 -1.9681 -0.0721  1.7169
 9377SOL     OW31022   6.490   8.048   7.676  0.7423  0.2473 -0.2012
 9377SOL    HW131023   6.444   8.130   7.655 -2.0334 -0.0036  3.7562
 9377SOL    HW231024   6.430   7.979   7.650  1.2226 -0.3629  0.2710
 9378SOL     OW31025   2.218   4.648   2.437 -0.1316 -0.1608  0.6484
 9378SOL    HW131026   2.266   4.570   2.407 -0.6133 -0.2711  0.1496
 9378SOL    HW231027   2.284   4.717   2.440 -0.0882 -0.0857 -0.9114
 9379SOL     OW31028   5.575   2.444   2.185  0.1881 -0.2630 -0.6251
 9379SOL    HW131029   5.536   2.452   2.098  0.9168  1.7318 -0.8295
 9379SOL    HW231030   5.669   2.441   2.169  0.4062  1.4114  0.1052
 9380SOL     OW31031   3.901   6.889   9.624 -0.0388  0.2542  0.7282
 9380SOL    HW131032   3.921   6.836   9.547  0.3810  1.9410 -0.3856
 9380SOL    HW231033   3.817   6.855   9.656  0.9024 -2.0124  0.9822
 9381SOL     OW31034   2.252   6.311   4.433 -0.3588  0.0229  0.6222
 9381SOL    HW131035   2.165   6.349   4.420 -0.0685 -0.2493 -3.1761
 9381SOL    HW231036   2.237   6.217   4.437 -0.2029 -0.2162 -2.3116
 9382SOL     OW31037   4.552   0.803   3.432  0.4249  0.3198  0.3808
 9382SOL    HW131038   4.518   0.783   3.519 -0.7240  2.0154  0.3571
 9382SOL    HW231039   4.515   0.888   3.410 -1.8311 -1.3261 -3.0380
 9383SOL     OW31040   6.809   0.326   1.715 -0.2132 -0.6309  0.1140
 9383SOL    HW131041   6.759   0.246   1.700  0.8872 -1.3247  0.0059
 9383SOL    HW231042   6.782   0.386   1.645 -0.6778 -1.0921 -0.1044
 9384SOL     OW31043   1.358   7.630   3.787  0.9656 -0.0486 -0.0633
 9384SOL    HW131044   1.336   7.544   3.821  0.6907 -0.2777 -0.8086
 9384SOL    HW231045   1.421   7.666   3.850  0.8323 -0.6601  0.4150
 9385SOL     OW31046   6.610   9.531   4.264 -0.1341  0.4684  0.0533
 9385SOL    HW131047   6.681   9.538   4.200  0.3556 -0.3339  0.4827
 9385SOL    HW231048   6.642   9.581   4.340  0.5857 -0.9611  0.7427
 9386SOL     OW31049   7.077   4.707   2.827  0.2569 -0.3329 -0.0215
 9386SOL    HW131050   7.057   4.643   2.759 -0.1688  0.3795 -0.5861
 9386SOL    HW231051   6.999   4.711   2.881  1.2588 -2.2866  1.6958
 9387SOL     OW31052   0.329   2.543   5.407  0.6874 -0.0488  0.1146
 9387SOL    HW131053   0.369   2.496   5.334  1.2862  2.3523 -1.2117
 9387SOL    HW231054   0.371   2.629   5.406 -0.5052  0.6322  2.2629
 9388SOL     OW31055   8.747   0.639   4.421 -0.1991 -0.1629 -0.7376
 9388SOL    HW131056   8.800   0.671   4.348 -1.5585 -1.1192 -2.1887
 9388SOL    HW231057   8.720   0.551   4.395  1.7068 -1.8104  2.2037
 9389SOL     OW31058   4.648   5.345   1.329 -0.0300 -0.3106  0.0230
 9389SOL    HW131059   4.637   5.263   1.378  0.2325  0.0771  0.7373
 9389SOL    HW231060   4.674   5.409   1.395  2.7286 -0.3018 -0.9232
 9390SOL     OW31061   3.573   1.339   3.509  0.6019 -0.0172  0.0924
 9390SOL    HW131062   3.562   1.308   3.598 -2.4077 -0.0437 -0.1815
 9390SOL    HW231063   3.541   1.267   3.454 -0.5502  1.1407 -0.8221
 9391SOL     OW31064   5.866   2.830   7.081  0.2193 -0.5811 -0.0126
 9391SOL    HW131065   5.876   2.857   6.990 -1.2686  0.0058 -0.0277
 9391SOL    HW231066   5.775   2.850   7.103  0.3415 -1.3690  1.3918
 9392SOL     OW31067   4.980   5.254   6.935  0.5678  0.5526 -0.0191
 9392SOL    HW131068   5.013   5.222   6.851  1.1346  3.1275 -0.8353
 9392SOL    HW231069   5.057   5.284   6.982  0.0832  0.4717  0.8625
 9393SOL     OW31070   2.917   1.572   8.398 -0.0057 -0.1470 -0.2138
 9393SOL    HW131071   2.975   1.582   8.474 -2.0708  1.7799  1.2314
 9393SOL    HW231072   2.901   1.478   8.392  0.7041 -0.4058  1.3625
 9394SOL     OW31073   4.434   5.324   2.294  0.9366 -0.2645 -0.5622
 9394SOL    HW131074   4.381   5.394   2.255  0.2139 -1.1760 -1.2871
 9394SOL    HW231075   4.494   5.297   2.224  0.1734 -1.3750 -0.8234
 9395SOL     OW31076   1.057   5.566   0.639  0.0409 -0.0698  0.0756
 9395SOL    HW131077   1.123   5.622   0.680  0.2976  1.3605 -2.1150
 9395SOL    HW231078   1.107   5.513   0.577 -0.5144 -1.0804  0.4779
 9396SOL     OW31079   1.086   5.271   1.163  0.0463 -0.4506 -0.4961
 9396SOL    HW131080   1.156   5.299   1.222 -1.2405  0.3258  0.7097
 9396SOL    HW231081   1.036   5.207   1.214 -1.3351  0.5503 -0.5469
 9397SOL     OW31082   0.978   2.324   3.548  0.9802 -0.3625 -0.2816
 9397SOL    HW131083   0.972   2.413   3.513 -0.7346  0.0086  0.8745
 9397SOL    HW231084   0.907   2.318   3.611  0.7480 -2.7324 -0.6930
 9398SOL     OW31085   6.893   4.222   2.021 -0.1969 -0.2708  0.2419
 9398SOL    HW131086   6.978   4.260   2.001  0.1216 -1.8130 -1.5845
 9398SOL    HW231087   6.910   4.129   2.030 -1.6278 -0.5520  0.2457
 9399SOL     OW31088   4.900   0.102   4.192  0.6802  0.6046 -0.2753
 9399SOL    HW131089   4.815   0.117   4.151  0.8835  0.0011 -0.9365
 9399SOL    HW231090   4.888   0.130   4.283 -0.1312  0.8142 -0.4375
 9400SOL     OW31091   6.598   9.496   7.815 -0.7760  0.4782  0.2923
 9400SOL    HW131092   6.619   9.569   7.756 -0.2033 -1.3374 -1.9266
 9400SOL    HW231093   6.671   9.493   7.877 -0.2953  1.1964 -0.2230
 9401SOL     OW31094   0.812   3.290   3.143 -0.2513 -0.1551  0.0384
 9401SOL    HW131095   0.793   3.321   3.054 -0.6909 -0.9553 -0.1556
 9401SOL    HW231096   0.742   3.326   3.197 -0.0925  0.1717  0.0270
 9402SOL     OW31097   7.739   7.814   9.296  0.2722 -0.3040  0.2338
 9402SOL    HW131098   7.824   7.842   9.263  1.0332 -2.1007  0.5494
 9402SOL    HW231099   7.679   7.885   9.272  1.5941  0.3879 -1.1790
 9403SOL     OW31100   6.144   5.351   4.882 -0.1730  0.6035 -0.3578
 9403SOL    HW131101   6.119   5.270   4.927  0.2689  0.5747 -0.1561
 9403SOL    HW231102   6.099   5.347   4.799  0.3169 -0.1499 -0.6001
 9404SOL     OW31103   9.261   3.292   9.445  0.6780  0.3512 -0.4431
 9404SOL    HW131104   9.292   3.231   9.378 -0.0813  1.1200 -1.5413
 9404SOL    HW231105   9.329   3.292   9.512  0.8906 -1.3469 -0.6316
 9405SOL     OW31106   1.628   3.781   4.136  0.2418  0.2751 -0.0859
 9405SOL    HW131107   1.720   3.761   4.150 -0.2746 -1.7176  0.7956
 9405SOL    HW231108   1.623   3.877   4.139  2.1847  0.3922  0.4078
 9406SOL     OW31109   8.057   6.057   1.345 -0.3651  0.1816  0.1212
 9406SOL    HW131110   8.151   6.055   1.362 -0.4178 -1.8295  0.4479
 9406SOL    HW231111   8.048   6.024   1.256 -0.7242  1.3935 -0.3132
 9407SOL     OW31112   7.239   3.522   3.213 -0.0684  0.2140 -0.1949
 9407SOL    HW131113   7.314   3.503   3.156  0.3026 -0.4750  0.5029
 9407SOL    HW231114   7.199   3.436   3.229 -0.5496  0.4821  0.0543
 9408SOL     OW31115   6.741   6.608   0.373 -0.3060 -0.6343  0.0365
 9408SOL    HW131116   6.784   6.528   0.345 -1.0126 -0.5642 -1.2939
 9408SOL    HW231117   6.773   6.675   0.312 -1.3899 -0.3499 -0.2264
 9409SOL     OW31118   7.177   0.462   5.206  0.7484  0.1324  0.7912
 9409SOL    HW131119   7.101   0.519   5.197  0.1177 -1.0277 -2.2008
 9409SOL    HW231120   7.147   0.390   5.262 -0.0323  0.1662  0.4193
 9410SOL     OW31121   8.253   1.335   8.413  0.0106 -0.2032  0.8247
 9410SOL    HW131122   8.193   1.344   8.340  1.6416  1.2331 -0.4347
 9410SOL    HW231123   8.206   1.372   8.488 -0.5484  1.2714 -0.2125
 9411SOL     OW31124   3.558   2.485   8.106  0.4976 -0.3590 -0.5420
 9411SOL    HW131125   3.607   2.476   8.025  0.0431  1.6870 -1.1233
 9411SOL    HW231126   3.592   2.417   8.164  1.2844 -1.4405 -2.2147
 9412SOL     OW31127   1.415   5.621   4.404 -0.7563  0.1580 -0.8693
 9412SOL    HW131128   1.466   5.614   4.484 -1.3500 -0.2605 -0.5236
 9412SOL    HW231129   1.407   5.715   4.388 -1.1571  0.2563 -0.1029
 9413SOL     OW31130   3.114   0.411   1.744 -0.4700 -0.0149 -0.1570
 9413SOL    HW131131   3.063   0.463   1.682  1.9114  0.5210 -1.7973
 9413SOL    HW231132   3.144   0.335   1.693  1.1771  0.2145  0.4249
 9414SOL     OW31133   6.493   5.611   6.514  0.0832  0.4732 -0.0350
 9414SOL    HW131134   6.575   5.568   6.540  0.2023 -0.4251 -1.7487
 9414SOL    HW231135   6.512   5.705   6.522  0.8146  0.2666  0.8809
 9415SOL     OW31136   4.254   3.875   0.748 -0.0379  0.3235  0.0728
 9415SOL    HW131137   4.324   3.929   0.785  0.1653  0.4233 -0.4517
 9415SOL    HW231138   4.235   3.811   0.816  1.2383 -0.3115 -0.1400
 9416SOL     OW31139   5.067   0.080   1.298 -0.3294  0.4440 -0.4756
 9416SOL    HW131140   4.993   0.111   1.349  0.4719  1.0821  0.3324
 9416SOL    HW231141   5.137   0.069   1.362  0.4591  0.4658 -1.3151
 9417SOL     OW31142   6.621   4.915   9.166  0.4017  0.0203  0.8246
 9417SOL    HW131143   6.581   4.923   9.252 -2.2785 -1.8858 -0.0951
 9417SOL    HW231144   6.619   4.821   9.147  1.5956  0.3127 -1.0031
 9418SOL     OW31145   5.382   0.445   1.222  0.1045 -0.5020 -0.4216
 9418SOL    HW131146   5.384   0.510   1.152  1.2133  0.5140  0.5315
 9418SOL    HW231147   5.431   0.371   1.186  2.3341  0.7326 -0.0766
 9419SOL     OW31148   0.247   8.701   6.218  0.0716 -0.4668 -0.0855
 9419SOL    HW131149   0.238   8.796   6.206  0.5905 -0.2480  1.1680
 9419SOL    HW231150   0.327   8.678   6.170  0.2903 -0.1648  0.1337
 9420SOL     OW31151   0.399   3.342   6.873 -0.4771 -0.2695  0.0997
 9420SOL    HW131152   0.465   3.402   6.838  1.1033 -1.5263  0.7957
 9420SOL    HW231153   0.422   3.257   6.835 -2.3641 -0.5676 -0.4796
 9421SOL     OW31154   8.108   5.429   3.716 -0.2416 -0.4041 -0.3197
 9421SOL    HW131155   8.104   5.370   3.791 -0.5934 -0.3985 -0.3311
 9421SOL    HW231156   8.034   5.404   3.661 -0.4224  0.0767 -0.3049
 9422SOL     OW31157   1.570   4.632   3.475 -0.7226 -0.5593 -0.3804
 9422SOL    HW131158   1.634   4.619   3.544 -0.4881  1.6237 -0.1384
 9422SOL    HW231159   1.551   4.543   3.443 -0.2710 -1.5431  1.9258
 9423SOL     OW31160   7.490   1.640   7.927  0.1072 -0.4140  0.1064
 9423SOL    HW131161   7.472   1.546   7.919 -1.4563 -0.2969  1.6921
 9423SOL    HW231162   7.503   1.654   8.020 -0.1979  1.0371 -0.0545
 9424SOL     OW31163   8.903   6.528   6.059 -0.3034  0.2694 -0.1565
 9424SOL    HW131164   8.865   6.560   5.977 -1.3281  0.9001  0.5359
 9424SOL    HW231165   8.975   6.471   6.032  0.3873  1.6900 -1.4677
 9425SOL     OW31166   5.170   8.660   6.156 -0.5873  0.4286  0.3385
 9425SOL    HW131167   5.214   8.684   6.238 -1.4279  0.6702  0.7274
 9425SOL    HW231168   5.179   8.565   6.151 -0.7533  0.3838  0.8392
 9426SOL     OW31169   6.425   6.634   6.101  0.0980 -0.7363  0.3834
 9426SOL    HW131170   6.490   6.666   6.163 -0.1296  0.7209 -0.0909
 9426SOL    HW231171   6.458   6.660   6.016 -0.8511 -0.4324  0.0991
 9427SOL     OW31172   0.054   4.689   7.726  0.2320 -0.4430 -0.1584
 9427SOL    HW131173   0.049   4.733   7.641 -0.2177 -2.7209 -1.4069
 9427SOL    HW231174   0.135   4.638   7.722  0.0305 -0.8480  0.6403
 9428SOL     OW31175   0.847   6.318   3.169 -0.0793 -0.6334 -0.2039
 9428SOL    HW131176   0.794   6.295   3.245 -0.7956 -1.0383 -0.8156
 9428SOL    HW231177   0.801   6.392   3.129 -0.9543 -1.8186 -1.4892
 9429SOL     OW31178   8.684   3.021   3.154  0.6121  0.1709  0.0721
 9429SOL    HW131179   8.685   2.927   3.172  0.2695  0.4418  1.5797
 9429SOL    HW231180   8.599   3.037   3.114  1.3273 -0.4147 -1.7911
 9430SOL     OW31181   6.111   7.250   4.757  0.5683 -0.1112  0.2965
 9430SOL    HW131182   6.087   7.335   4.722 -0.8696 -1.2345 -1.6401
 9430SOL    HW231183   6.048   7.235   4.828  0.6837  0.3552  0.4964
 9431SOL     OW31184   1.627   2.124   8.994 -0.6418  0.7029 -0.1932
 9431SOL    HW131185   1.705   2.095   9.041 -0.7145  0.9731  0.0975
 9431SOL    HW231186   1.553   2.095   9.048 -0.9073 -2.1818 -1.8791
 9432SOL     OW31187   8.817   1.536   6.138 -0.1554 -0.0869  0.1867
 9432SOL    HW131188   8.815   1.615   6.084 -0.8081 -0.1032  0.1842
 9432SOL    HW231189   8.773   1.560   6.219  2.9840  0.7026  1.8053
 9433SOL     OW31190   4.205   8.879   6.754 -0.0963 -0.3929 -0.2311
 9433SOL    HW131191   4.229   8.971   6.746 -1.3209 -0.1655 -1.6308
 9433SOL    HW231192   4.287   8.832   6.745  0.9540  0.5885  2.9626
 9434SOL     OW31193   8.570   2.953   7.993 -0.3246  0.2811  0.2806
 9434SOL    HW131194   8.569   2.970   7.899  1.2943  0.0796  0.1885
 9434SOL    HW231195   8.632   3.018   8.028 -1.4152  0.7995  1.3147
 9435SOL     OW31196   1.176   4.917   3.846  0.1601  0.4082  0.1161
 9435SOL    HW131197   1.087   4.949   3.834 -0.2473 -0.1752  1.3808
 9435SOL    HW231198   1.231   4.992   3.827 -0.6656  1.1632  0.6360
 9436SOL     OW31199   8.439   6.870   1.132 -0.2724 -0.0796 -0.3544
 9436SOL    HW131200   8.417   6.946   1.077 -1.9167 -0.9780 -1.0002
 9436SOL    HW231201   8.470   6.804   1.070 -2.1003 -1.0880 -0.2414
 9437SOL     OW31202   5.267   5.130   7.379 -0.1447  0.0027  0.6050
 9437SOL    HW131203   5.189   5.168   7.339  0.6202  0.4076 -0.5512
 9437SOL    HW231204   5.239   5.106   7.467 -1.5661  0.1531  0.2258
 9438SOL     OW31205   3.781   7.421   5.095 -0.6140 -0.1897 -0.2971
 9438SOL    HW131206   3.794   7.480   5.169  0.4302  1.7552 -1.9434
 9438SOL    HW231207   3.709   7.460   5.045 -1.2604 -1.4305 -0.3909
 9439SOL     OW31208   2.813   9.413   1.492 -0.1457 -0.3602 -0.0129
 9439SOL    HW131209   2.900   9.375   1.481  0.8613  1.5524  0.9789
 9439SOL    HW231210   2.827   9.507   1.491 -2.2751  0.0097 -0.2464
 9440SOL     OW31211   2.683   4.583   6.204  0.6733 -0.2789  0.0947
 9440SOL    HW131212   2.778   4.574   6.210  0.9233 -0.4606 -2.7278
 9440SOL    HW231213   2.668   4.677   6.213  1.1615 -0.2127  0.2612
 9441SOL     OW31214   2.746   4.336   1.224  0.0993 -0.3272 -0.6151
 9441SOL    HW131215   2.803   4.315   1.298 -0.8394  0.7025  0.4511
 9441SOL    HW231216   2.752   4.260   1.166 -1.0619 -2.3708  1.7373
 9442SOL     OW31217   7.977   0.533   1.982 -0.3304  0.2046 -0.1197
 9442SOL    HW131218   7.951   0.440   1.984  1.8830 -0.4575  0.6668
 9442SOL    HW231219   8.054   0.535   1.925 -0.0420  1.4718  0.2944
 9443SOL     OW31220   3.931   8.812   0.819 -0.1379 -0.1000  0.1933
 9443SOL    HW131221   3.918   8.799   0.913 -1.2884  0.3430  0.1197
 9443SOL    HW231222   3.843   8.800   0.782  0.0500  1.0535 -0.6590
 9444SOL     OW31223   2.463   4.588   4.799 -0.8901 -0.0675 -0.2535
 9444SOL    HW131224   2.391   4.619   4.745  0.1357  0.1785 -1.5169
 9444SOL    HW231225   2.420   4.542   4.871 -2.3102  0.3456 -0.7961
 9445SOL     OW31226   1.948   4.279   2.310  0.6070  0.6060 -0.1401
 9445SOL    HW131227   2.029   4.275   2.361  0.4032 -0.0526  0.1540
 9445SOL    HW231228   1.879   4.289   2.376  0.3035 -0.6736 -0.2231
 9446SOL     OW31229   5.292   5.237   2.046 -0.1185  0.3411 -0.3601
 9446SOL    HW131230   5.311   5.218   2.137  1.2004 -0.2624 -0.7351
 9446SOL    HW231231   5.212   5.188   2.027  0.0894 -0.2383  0.2374
 9447SOL     OW31232   0.593   9.524   1.528 -0.2003 -0.0626  0.3714
 9447SOL    HW131233   0.604   9.581   1.604 -2.4753  0.6883  0.2362
 9447SOL    HW231234   0.498   9.524   1.512  0.2713  1.8536 -3.9589
 9448SOL     OW31235   4.630   0.133   9.307 -0.2122 -0.4042  0.7602
 9448SOL    HW131236   4.715   0.142   9.263 -1.2256 -1.8450 -1.7224
 9448SOL    HW231237   4.581   0.210   9.280 -0.0598 -0.1303  1.2705
 9449SOL     OW31238   3.858   0.562   1.847  0.0733  0.1050  0.2546
 9449SOL    HW131239   3.860   0.574   1.752  0.3082  0.5025  0.3088
 9449SOL    HW231240   3.833   0.470   1.859  0.4427 -0.0556 -0.1949
 9450SOL     OW31241   5.783   2.517   7.711 -0.0099  0.4828  0.7546
 9450SOL    HW131242   5.697   2.542   7.678  0.3898  0.5946 -0.2224
 9450SOL    HW231243   5.844   2.575   7.666  0.5254  0.8937  1.9844
 9451SOL     OW31244   7.031   7.089   5.639  0.1760  0.0776  0.2795
 9451SOL    HW131245   7.078   7.157   5.590 -0.8195  0.2530 -0.4640
 9451SOL    HW231246   7.087   7.070   5.714  1.0547  0.8373 -0.1679
 9452SOL     OW31247   5.752   4.431   7.882 -0.2289  0.6637 -0.3215
 9452SOL    HW131248   5.678   4.400   7.830  0.6200 -0.7837 -0.7151
 9452SOL    HW231249   5.765   4.363   7.948  0.8563  0.8148 -0.3651
 9453SOL     OW31250   2.776   4.493   9.417  0.4475  0.6583  0.0632
 9453SOL    HW131251   2.720   4.416   9.406  0.4597  0.8511 -1.5966
 9453SOL    HW231252   2.844   4.464   9.478 -0.4175 -0.1510  0.6687
 9454SOL     OW31253   6.815   2.299   8.769 -0.1045 -0.6681 -0.3037
 9454SOL    HW131254   6.812   2.355   8.692  2.4197  0.3040  0.2270
 9454SOL    HW231255   6.723   2.285   8.792 -0.8563  0.8465 -2.1476
 9455SOL     OW31256   5.098   1.946   2.641 -0.3790 -0.1796 -0.1575
 9455SOL    HW131257   5.186   1.937   2.677  0.4927 -2.2057 -2.5238
 9455SOL    HW231258   5.044   1.890   2.697  0.0683  0.1139  0.5755
 9456SOL     OW31259   3.950   5.864   5.644  0.2858 -0.1618 -0.3696
 9456SOL    HW131260   3.973   5.844   5.554  1.2597  0.6497 -0.3158
 9456SOL    HW231261   3.886   5.935   5.637  2.5824  2.0503 -0.4145
 9457SOL     OW31262   6.963   2.209   6.212 -0.1367  0.4849 -0.6710
 9457SOL    HW131263   6.997   2.123   6.187  0.9450  0.9214 -0.7640
 9457SOL    HW231264   6.912   2.192   6.291  1.0879 -0.0690  0.0218
 9458SOL     OW31265   3.132   7.377   2.279 -0.4429 -0.7545  0.0314
 9458SOL    HW131266   3.114   7.419   2.363  0.6426  0.0418 -0.1175
 9458SOL    HW231267   3.048   7.380   2.232 -0.8557 -0.5022  0.7732
 9459SOL     OW31268   8.662   1.299   9.462  0.1184  0.3498 -0.2959
 9459SOL    HW131269   8.576   1.304   9.421 -0.8700 -3.2774  0.9229
 9459SOL    HW231270   8.719   1.261   9.395 -0.3878 -1.3431  0.1809
 9460SOL     OW31271   6.203   4.640   7.127  1.3856  0.0959  0.2503
 9460SOL    HW131272   6.219   4.560   7.177  0.7231  0.5140  1.1808
 9460SOL    HW231273   6.112   4.663   7.148  1.3071  0.6425 -0.6517
 9461SOL     OW31274   9.449   4.913   4.237  0.1832 -0.1323 -0.0082
 9461SOL    HW131275   9.368   4.962   4.225  0.6790  0.8166  0.4383
 9461SOL    HW231276   9.447   4.884   4.328  0.4149  0.0134  0.0441
 9462SOL     OW31277   2.982   1.461   3.963 -0.2797 -0.5997 -0.1442
 9462SOL    HW131278   2.976   1.476   4.057  0.7358  0.7958 -0.2643
 9462SOL    HW231279   2.954   1.370   3.951  1.0140 -1.3025  1.6762
 9463SOL     OW31280   8.044   1.329   8.233 -0.2661  0.0658  0.0830
 9463SOL    HW131281   7.954   1.356   8.251 -0.1404 -0.4063  1.5319
 9463SOL    HW231282   8.049   1.238   8.263  0.5244 -0.1241 -0.5808
 9464SOL     OW31283   0.617   4.271   2.884  0.0108 -0.1482  0.0947
 9464SOL    HW131284   0.555   4.311   2.824 -0.0361  0.3857  0.4848
 9464SOL    HW231285   0.596   4.178   2.884  0.1935 -0.1944 -0.9196
 9465SOL     OW31286   7.973   2.090   1.374 -0.3133  0.2736 -0.2085
 9465SOL    HW131287   7.918   2.037   1.433  0.5308 -0.8308 -0.3831
 9465SOL    HW231288   7.941   2.069   1.286 -0.3690  0.5308 -0.2517
 9466SOL     OW31289   4.021   1.117   3.241 -0.0292  0.3663  0.5351
 9466SOL    HW131290   3.985   1.205   3.243 -1.1068 -0.0347  3.4090
 9466SOL    HW231291   3.945   1.059   3.232  0.6576 -0.3652 -1.3103
 9467SOL     OW31292   0.084   0.582   7.541 -0.1112 -0.7011 -0.4661
 9467SOL    HW131293   0.148   0.557   7.608 -0.9305 -0.6992  0.3384
 9467SOL    HW231294  -0.000   0.554   7.578 -0.8725  1.6038 -0.3268
 9468SOL     OW31295   1.828   3.524   1.907 -0.0979 -0.1709  0.5492
 9468SOL    HW131296   1.779   3.477   1.840  0.5507  0.5356 -0.4548
 9468SOL    HW231297   1.920   3.509   1.885  0.1627  2.2032 -0.3609
 9469SOL     OW31298   4.716   2.060   8.052  0.3804  0.5831 -0.5982
 9469SOL    HW131299   4.744   2.120   7.984 -0.9244  2.0442  0.0957
 9469SOL    HW231300   4.677   1.986   8.005  2.4047  0.0163 -1.4726
 9470SOL     OW31301   3.770   8.023   7.830  0.1768  0.3122 -0.6257
 9470SOL    HW131302   3.858   8.047   7.861  0.2199  1.1590 -1.3697
 9470SOL    HW231303   3.722   8.106   7.827 -0.9078 -0.2303  0.4968
 9471SOL     OW31304   7.057   9.415   7.121  0.2038 -0.3503  0.4460
 9471SOL    HW131305   7.052   9.494   7.175  0.5795  0.1692 -0.2713
 9471SOL    HW231306   7.025   9.345   7.179  0.1752  0.2653  1.1930
 9472SOL     OW31307   2.445   2.806   4.215  0.5817 -0.1881  0.5427
 9472SOL    HW131308   2.444   2.727   4.269  0.4183 -0.1022  0.6653
 9472SOL    HW231309   2.489   2.871   4.269 -0.6648  0.2429  1.0604
 9473SOL     OW31310   0.936   4.610   2.507  0.2874 -0.6170 -0.4501
 9473SOL    HW131311   0.841   4.625   2.509  0.4114  0.1215  0.7285
 9473SOL    HW231312   0.952   4.547   2.577  0.6416 -0.9538 -0.8298
 9474SOL     OW31313   1.379   9.041   8.708 -0.1995  0.5989  0.0989
 9474SOL    HW131314   1.399   8.947   8.701  1.1267  0.8613  0.0630
 9474SOL    HW231315   1.340   9.051   8.794 -1.1218 -0.1060 -0.2163
 9475SOL     OW31316   7.847   1.009   3.521  0.2529  0.5313  0.2962
 9475SOL    HW131317   7.919   1.060   3.558  1.2592 -0.7991  0.2759
 9475SOL    HW231318   7.830   1.049   3.436 -0.0018  1.7249  0.8896
 9476SOL     OW31319   1.244   0.449   2.869  0.4137  0.4724  0.3369
 9476SOL    HW131320   1.166   0.472   2.818  1.1751  0.1218 -1.0413
 9476SOL    HW231321   1.250   0.353   2.861 -0.3691  0.1888  2.4979
 9477SOL     OW31322   2.052   7.064   4.219 -0.0834 -0.7903 -0.0668
 9477SOL    HW131323   1.993   7.020   4.281  0.6912 -0.3293  1.0172
 9477SOL    HW231324   2.027   7.157   4.224 -2.2606 -1.0767 -2.9328
 9478SOL     OW31325   6.841   1.492   1.089  0.1454 -0.1192  0.5873
 9478SOL    HW131326   6.820   1.575   1.132  1.1818 -0.0528  0.9888
 9478SOL    HW231327   6.780   1.488   1.016 -0.8335  0.3434  1.3548
 9479SOL     OW31328   9.388   2.592   7.245 -0.7020 -0.3728 -0.1330
 9479SOL    HW131329   9.335   2.520   7.280 -1.7088 -0.0972 -1.0305
 9479SOL    HW231330   9.329   2.638   7.185  0.9949 -1.0654 -2.5221
 9480SOL     OW31331   6.502   9.155   4.030  0.6337 -0.1347 -0.6352
 9480SOL    HW131332   6.426   9.191   3.984  1.0479  1.2154 -0.2868
 9480SOL    HW231333   6.570   9.221   4.021  1.2889 -0.6349  0.4024
 9481SOL     OW31334   4.928   3.239   5.497  0.1875 -0.4791  0.2645
 9481SOL    HW131335   4.926   3.150   5.533 -2.9023 -0.0723  1.3779
 9481SOL    HW231336   4.869   3.236   5.422 -0.7696  0.8247  0.9310
 9482SOL     OW31337   1.971   2.147   7.974 -0.1751 -0.0491  0.3254
 9482SOL    HW131338   1.918   2.087   8.027  0.4508 -1.2392 -0.3325
 9482SOL    HW231339   2.049   2.164   8.027 -1.1504  1.6855  1.2850
 9483SOL     OW31340   4.340   8.543   6.036  0.3636 -0.4325  0.0976
 9483SOL    HW131341   4.402   8.591   6.090  0.1393 -1.4003  1.2670
 9483SOL    HW231342   4.300   8.610   5.980 -0.7314  0.9789  2.4123
 9484SOL     OW31343   5.631   4.351   6.761 -0.5633  0.1260 -0.3022
 9484SOL    HW131344   5.622   4.265   6.802  1.0190  0.1011  0.0736
 9484SOL    HW231345   5.726   4.363   6.753 -0.7595  0.3594 -3.5215
 9485SOL     OW31346   3.973   3.654   7.214 -0.1057  0.0907 -0.0967
 9485SOL    HW131347   3.953   3.727   7.155  0.0785 -0.1143 -0.4162
 9485SOL    HW231348   3.960   3.576   7.161 -0.7687 -0.1296  0.3820
 9486SOL     OW31349   5.389   7.892   4.534 -0.1342  0.1630 -0.7054
 9486SOL    HW131350   5.351   7.821   4.482  2.7073 -2.4045  0.3789
 9486SOL    HW231351   5.364   7.871   4.624  0.1754  0.9208 -0.4395
 9487SOL     OW31352   6.912   4.696   7.839  0.2767  0.5338 -0.6058
 9487SOL    HW131353   6.979   4.628   7.837 -0.0017  0.2361 -2.8332
 9487SOL    HW231354   6.939   4.759   7.772 -0.2671  1.8461  0.3606
 9488SOL     OW31355   6.679   9.360   3.982  0.1150 -0.3048  0.0525
 9488SOL    HW131356   6.757   9.374   4.035 -0.5856  0.9757  0.7900
 9488SOL    HW231357   6.697   9.405   3.899 -0.2894  1.0921  0.6846
 9489SOL     OW31358   8.960   4.049   0.671  0.6259 -0.3012  0.3030
 9489SOL    HW131359   9.003   4.103   0.604  0.4571 -0.2405  0.2436
 9489SOL    HW231360   8.952   4.107   0.747  0.3325 -0.2031  0.1983
 9490SOL     OW31361   4.496   5.647   5.797  0.2061  0.5095  0.1317
 9490SOL    HW131362   4.476   5.589   5.871 -0.0076  1.8745  1.1954
 9490SOL    HW231363   4.500   5.735   5.836 -1.6609  1.5133 -1.7545
 9491SOL     OW31364   2.730   7.527   9.584 -0.2796 -0.5095  0.1508
 9491SOL    HW131365   2.692   7.562   9.503  1.1729  0.6464 -0.0716
 9491SOL    HW231366   2.785   7.454   9.554 -0.3562 -0.5830  0.1883
 9492SOL     OW31367   0.714   2.389   4.866 -0.5231 -0.7692  0.2942
 9492SOL    HW131368   0.661   2.451   4.916  0.0276 -0.5437  0.6061
 9492SOL    HW231369   0.686   2.303   4.896  1.0367 -0.6484  2.3582
 9493SOL     OW31370   2.680   4.286   4.211 -0.0589 -0.2555  0.0209
 9493SOL    HW131371   2.735   4.294   4.133 -1.1204  3.4231 -0.5567
 9493SOL    HW231372   2.738   4.309   4.283  0.2543 -0.9362 -0.0092
 9494SOL     OW31373   9.526   3.603   5.525  0.1324 -0.1753  0.4332
 9494SOL    HW131374   9.573   3.674   5.570  0.0545 -1.3624  2.4925
 9494SOL    HW231375   9.593   3.563   5.469  0.9999 -0.3463  1.5441
 9495SOL     OW31376   6.426   8.047   6.249  0.4703 -0.5650  0.4950
 9495SOL    HW131377   6.485   8.011   6.315  0.1088  0.4001  1.3757
 9495SOL    HW231378   6.422   8.140   6.268 -0.9109 -0.5150  0.1183
 9496SOL     OW31379   1.019   5.944   5.321 -0.1536  0.4103  0.0638
 9496SOL    HW131380   1.059   6.006   5.261  2.2712  0.5090  1.6814
 9496SOL    HW231381   0.955   5.897   5.267 -1.5213  3.6819 -1.3904
 9497SOL     OW31382   6.396   1.264   5.360 -0.3132  0.4290 -0.0826
 9497SOL    HW131383   6.389   1.229   5.449  1.4910 -0.6518 -0.3229
 9497SOL    HW231384   6.325   1.222   5.312 -0.1064 -0.4912  0.3953
 9498SOL     OW31385   7.872   6.047   1.527 -0.2345  0.8341  0.5557
 9498SOL    HW131386   7.822   6.129   1.535 -1.8754  0.1346 -1.6282
 9498SOL    HW231387   7.942   6.068   1.464 -0.7095  0.5565 -0.0733
 9499SOL     OW31388   5.666   9.341   2.728  0.1827 -0.3355 -0.4339
 9499SOL    HW131389   5.713   9.358   2.810 -0.0350  0.5172 -0.4780
 9499SOL    HW231390   5.693   9.413   2.670 -0.0367 -0.6662 -0.9524
 9500SOL     OW31391   8.391   5.133   0.350 -0.2309 -0.3605 -0.3961
 9500SOL    HW131392   8.463   5.188   0.383 -3.2960  2.6075  2.0466
 9500SOL    HW231393   8.382   5.158   0.258  0.0367  1.4291  0.0309
 9501SOL     OW31394   9.021   3.040   3.585 -0.4482  0.0860 -0.4311
 9501SOL    HW131395   8.966   3.026   3.508 -0.1897  2.4866 -1.1459
 9501SOL    HW231396   8.958   3.059   3.655 -0.6319  2.3723 -1.1415
 9502SOL     OW31397   2.959   5.579   5.190  0.4884  0.6357  0.5209
 9502SOL    HW131398   2.977   5.555   5.280  0.9295  1.2926  0.6154
 9502SOL    HW231399   3.012   5.658   5.175  0.4761  0.4922 -0.3259
 9503SOL     OW31400   5.431   9.635   7.483 -0.1047 -0.0615 -0.2692
 9503SOL    HW131401   5.382   9.669   7.558 -0.9726  1.9934 -1.6676
 9503SOL    HW231402   5.386   9.554   7.460 -1.2093  0.4201  0.1220
 9504SOL     OW31403   3.321   2.284   4.708 -0.4228  0.5527 -0.5839
 9504SOL    HW131404   3.260   2.303   4.636 -1.3109 -0.6691 -0.1819
 9504SOL    HW231405   3.358   2.199   4.686 -2.9229 -1.3314  1.7629
 9505SOL     OW31406   9.239   7.611   7.631  0.2436  0.0969 -0.6248
 9505SOL    HW131407   9.327   7.642   7.652 -0.2217  0.1982  1.2849
 9505SOL    HW231408   9.216   7.551   7.702 -2.2829  2.1533  0.4596
 9506SOL     OW31409   3.620   5.401   9.528  0.7816  0.1376 -0.0504
 9506SOL    HW131410   3.652   5.391   9.617 -1.4600 -0.0656  0.7923
 9506SOL    HW231411   3.643   5.319   9.485  0.8758 -0.2217  0.6720
 9507SOL     OW31412   0.355   3.122   1.581 -0.2463 -0.6341 -0.5649
 9507SOL    HW131413   0.293   3.053   1.602 -1.0658  0.1811 -0.2585
 9507SOL    HW231414   0.302   3.190   1.539  0.3411  0.2828  0.1519
 9508SOL     OW31415   9.542   7.804   6.013  0.0726 -0.4671  0.3183
 9508SOL    HW131416   9.515   7.892   6.039  1.3135 -0.2268  0.8861
 9508SOL    HW231417   9.463   7.752   6.018 -1.0050  0.8885 -1.3780
 9509SOL     OW31418   0.756   8.237   3.772  0.3625  0.2314 -0.0245
 9509SOL    HW131419   0.815   8.222   3.847  0.0193  2.6929  0.8244
 9509SOL    HW231420   0.698   8.161   3.773  0.0427  0.3930  2.5728
 9510SOL     OW31421   7.140   6.809   4.570 -0.3124  0.4337 -0.0434
 9510SOL    HW131422   7.064   6.864   4.589 -0.0541  1.0170 -0.6753
 9510SOL    HW231423   7.125   6.776   4.482 -0.6503 -0.8336  0.4724
 9511SOL     OW31424   2.774   4.803   1.148  0.4248  0.3674 -0.0548
 9511SOL    HW131425   2.794   4.775   1.058 -2.4961  1.3165 -1.1382
 9511SOL    HW231426   2.755   4.722   1.194  0.6495 -0.0486 -0.6761
 9512SOL     OW31427   9.046   6.890   4.294 -0.1900  0.3522 -0.1778
 9512SOL    HW131428   9.034   6.811   4.347 -0.5840  1.1106  0.8789
 9512SOL    HW231429   9.141   6.903   4.292 -0.1642  0.2526  0.2468
 9513SOL     OW31430   7.455   8.639   0.275 -0.0354 -0.4201 -0.4609
 9513SOL    HW131431   7.534   8.645   0.330  1.4539  1.0544 -2.5686
 9513SOL    HW231432   7.397   8.707   0.309  0.3676 -0.3088  0.0153
 9514SOL     OW31433   6.553   4.815   6.212 -0.2002  0.4853 -0.2270
 9514SOL    HW131434   6.510   4.860   6.285  1.0375  0.4759  0.5359
 9514SOL    HW231435   6.482   4.797   6.150 -1.2216  0.8135  0.8040
 9515SOL     OW31436   7.346   2.000   7.654 -0.5988  0.1979 -0.0814
 9515SOL    HW131437   7.376   2.083   7.616 -0.7426  0.5669  0.5982
 9515SOL    HW231438   7.419   1.971   7.708 -1.5878  1.3809  2.0312
 9516SOL     OW31439   8.885   3.633   2.224  0.5128 -0.0099 -0.3254
 9516SOL    HW131440   8.972   3.672   2.216 -0.6434  3.0438  0.4603
 9516SOL    HW231441   8.865   3.602   2.136  2.3151 -0.7236 -0.5405
 9517SOL     OW31442   0.528   2.818   0.710  0.2506  0.0744  0.1646
 9517SOL    HW131443   0.446   2.866   0.704  0.3182  0.1255 -0.3631
 9517SOL    HW231444   0.596   2.885   0.703  0.3405  0.0663  0.8930
 9518SOL     OW31445   1.355   4.985   7.601 -0.1047 -0.6938  0.2600
 9518SOL    HW131446   1.315   4.997   7.515 -0.3392 -3.0676 -0.0327
 9518SOL    HW231447   1.287   5.013   7.663 -0.0076  0.8386 -0.2925
 9519SOL     OW31448   0.798   4.918   6.875 -0.3819  0.5438  0.8888
 9519SOL    HW131449   0.880   4.952   6.838 -0.3944 -0.1687  0.1648
 9519SOL    HW231450   0.734   4.987   6.858 -0.0952  0.7823  0.7600
 9520SOL     OW31451   6.717   0.466   4.963 -0.1962 -0.6726  0.3432
 9520SOL    HW131452   6.774   0.439   4.891 -1.2184  0.0281 -0.7719
 9520SOL    HW231453   6.756   0.427   5.041  0.8340 -1.6162 -0.6145
 9521SOL     OW31454   3.673   5.345   9.193  0.1839  0.3837  0.3134
 9521SOL    HW131455   3.707   5.386   9.113 -0.4509  1.6925  0.6704
 9521SOL    HW231456   3.748   5.342   9.253  0.6517 -0.5702 -0.3117
 9522SOL     OW31457   2.896   4.252   9.160  0.0148 -0.5530 -0.1201
 9522SOL    HW131458   2.933   4.180   9.212  0.4840 -1.6843 -1.9302
 9522SOL    HW231459   2.806   4.260   9.191  0.9911  0.6476  2.7183
 9523SOL     OW31460   7.762   8.904   8.788  0.0182  0.1483 -0.0758
 9523SOL    HW131461   7.688   8.852   8.822 -0.0601  0.2139 -0.1470
 9523SOL    HW231462   7.793   8.953   8.864  0.2757 -0.2177  0.0605
 9524SOL     OW31463   8.413   5.247   1.823 -0.0877 -0.2196 -0.0267
 9524SOL    HW131464   8.459   5.297   1.757 -1.4780 -0.3122 -1.1174
 9524SOL    HW231465   8.404   5.159   1.785 -2.7291  0.2619 -0.7066
 9525SOL     OW31466   4.085   7.066   7.338 -0.0285 -0.1225  0.3070
 9525SOL    HW131467   4.159   7.127   7.332  0.2876 -0.6200 -1.3981
 9525SOL    HW231468   4.008   7.122   7.338  0.2818  0.3188 -0.4360
 9526SOL     OW31469   0.187   1.641   4.987  0.4564  0.0085  0.3935
 9526SOL    HW131470   0.206   1.716   5.043 -0.6128 -0.3322  1.2451
 9526SOL    HW231471   0.092   1.639   4.981  0.5403 -0.0501 -1.3454
 9527SOL     OW31472   4.214   4.788   5.712 -0.1114  0.0985  0.1218
 9527SOL    HW131473   4.245   4.871   5.674  1.2471 -0.1182  0.7290
 9527SOL    HW231474   4.284   4.726   5.696 -1.7131 -1.3695 -1.6205
 9528SOL     OW31475   4.109   0.939   2.384  0.3121  0.4570 -0.0505
 9528SOL    HW131476   4.091   1.002   2.454  1.2625  0.2855  0.3661
 9528SOL    HW231477   4.157   0.868   2.427  0.8610  0.3251 -0.8638
 9529SOL     OW31478   7.673   2.234   9.282  0.5523  0.4754  0.1676
 9529SOL    HW131479   7.743   2.173   9.259  0.9247  0.5007  1.1775
 9529SOL    HW231480   7.619   2.187   9.345 -0.3872  0.4380 -0.6396
 9530SOL     OW31481   1.157   6.132   2.830  0.1860  0.4111 -0.4516
 9530SOL    HW131482   1.167   6.223   2.856 -0.6096  0.9752 -1.9622
 9530SOL    HW231483   1.178   6.131   2.737  1.6504 -1.2546 -0.1608
 9531SOL     OW31484   8.570   3.954   4.905  0.0248  0.9675 -0.2477
 9531SOL    HW131485   8.530   4.035   4.935 -0.5606  0.3661  0.6695
 9531SOL    HW231486   8.652   3.981   4.863  0.1434  1.9799  0.5989
 9532SOL     OW31487   6.291   1.553   4.172 -0.1071  0.4658 -0.1107
 9532SOL    HW131488   6.303   1.544   4.267  0.0126  0.9508 -0.0789
 9532SOL    HW231489   6.264   1.644   4.160  0.0474  0.4514 -0.5632
 9533SOL     OW31490   1.267   4.700   7.959 -0.6313 -0.0629  0.1676
 9533SOL    HW131491   1.285   4.609   7.935 -0.2704  0.1029 -0.1990
 9533SOL    HW231492   1.295   4.706   8.050 -1.7518 -0.6225  0.5813
 9534SOL     OW31493   9.182   4.575   0.313 -0.5241 -0.1482 -0.2779
 9534SOL    HW131494   9.195   4.660   0.356 -0.2085 -0.0891 -0.4888
 9534SOL    HW231495   9.201   4.511   0.382 -0.7249 -0.0512 -0.1294
 9535SOL     OW31496   6.568   9.142   8.044 -0.6931  0.2646  0.7912
 9535SOL    HW131497   6.526   9.142   8.130 -0.7219 -0.1423  0.7814
 9535SOL    HW231498   6.524   9.212   7.995 -2.9548 -1.5557  0.0364
 9536SOL     OW31499   1.045   8.680   1.308 -0.3390 -0.3199 -0.1077
 9536SOL    HW131500   1.032   8.709   1.398 -0.2151  0.3034 -0.2837
 9536SOL    HW231501   1.107   8.608   1.314  0.2653  0.2234  0.2371
 9537SOL     OW31502   3.752   2.788   7.773 -0.1506 -0.4055  0.0377
 9537SOL    HW131503   3.797   2.825   7.849 -0.5530 -0.6202  0.3857
 9537SOL    HW231504   3.691   2.857   7.746  0.2471 -0.1847 -0.3246
 9538SOL     OW31505   7.528   0.967   1.196 -0.2415 -0.5820  0.1505
 9538SOL    HW131506   7.500   0.876   1.187  0.8386 -0.9030 -0.2195
 9538SOL    HW231507   7.619   0.960   1.225 -0.6158  0.3958  1.6456
 9539SOL     OW31508   4.207   2.365   5.227 -0.1408 -0.4849 -0.4945
 9539SOL    HW131509   4.144   2.436   5.215  1.4705  1.2177  0.6252
 9539SOL    HW231510   4.287   2.397   5.185  0.7670 -1.4147  0.4767
 9540SOL     OW31511   5.122   6.412   0.552  0.2436 -0.7499 -0.1530
 9540SOL    HW131512   5.100   6.328   0.512  1.8128 -1.3235  0.1458
 9540SOL    HW231513   5.090   6.405   0.642 -1.8136 -0.0668 -0.7626
 9541SOL     OW31514   7.008   2.879   7.764  0.2603 -0.0663  0.1701
 9541SOL    HW131515   7.070   2.814   7.797  0.8400 -0.2185 -1.1620
 9541SOL    HW231516   7.057   2.961   7.764 -0.3839  0.3633  1.5784
 9542SOL     OW31517   8.683   8.038   1.018 -0.0840 -0.1318  0.2024
 9542SOL    HW131518   8.732   8.098   0.961 -1.5003 -0.4106 -1.3740
 9542SOL    HW231519   8.625   8.095   1.067  0.9738  0.0862  1.2428
 9543SOL     OW31520   7.272   4.666   7.595 -0.1239 -0.1487 -0.4320
 9543SOL    HW131521   7.232   4.643   7.511 -0.6619  0.3126 -0.3086
 9543SOL    HW231522   7.366   4.674   7.576 -0.6031  3.6757 -1.8748
 9544SOL     OW31523   3.302   7.499   6.981 -0.0796  0.5954  0.2046
 9544SOL    HW131524   3.383   7.540   6.951  0.0165  0.9670  0.9407
 9544SOL    HW231525   3.317   7.481   7.074 -0.2556 -0.8171 -0.0190
 9545SOL     OW31526   7.170   3.677   7.221  0.5924  0.1651  0.1105
 9545SOL    HW131527   7.140   3.721   7.141 -0.1840 -2.0394 -0.8922
 9545SOL    HW231528   7.107   3.703   7.288  1.1099  1.8436  0.0064
 9546SOL     OW31529   5.851   4.048   0.954 -0.3365 -0.4006  0.0908
 9546SOL    HW131530   5.758   4.040   0.974 -0.4918 -2.1815 -1.0901
 9546SOL    HW231531   5.892   4.070   1.038 -1.8536  0.9928  0.5097
 9547SOL     OW31532   4.893   3.481   4.351  0.2468  0.2125  0.1873
 9547SOL    HW131533   4.939   3.446   4.427  1.0546  2.4872  0.8317
 9547SOL    HW231534   4.803   3.492   4.381  0.4604  0.6602  0.6834
 9548SOL     OW31535   5.676   9.459   3.502 -0.4322  0.0453 -0.3014
 9548SOL    HW131536   5.706   9.463   3.411  0.8150  0.7638  0.1177
 9548SOL    HW231537   5.661   9.550   3.526  1.3442  0.0784  0.8566
 9549SOL     OW31538   0.812   3.667   7.619  0.0132  0.7915  0.1307
 9549SOL    HW131539   0.764   3.680   7.701 -0.4718 -0.3443  0.0546
 9549SOL    HW231540   0.900   3.701   7.637  0.6936 -1.5915  1.9906
 9550SOL     OW31541   0.805   4.205   1.591  0.2584 -0.0589  0.7137
 9550SOL    HW131542   0.747   4.134   1.563  2.8578 -1.2040 -2.3574
 9550SOL    HW231543   0.757   4.285   1.570 -0.9061 -0.9446 -0.1250
 9551SOL     OW31544   9.559   0.557   2.335  0.1332  0.2768  0.0600
 9551SOL    HW131545   9.514   0.587   2.256 -0.8241 -0.2252  0.3894
 9551SOL    HW231546   9.527   0.615   2.404  0.4310  0.2771  0.1968
 9552SOL     OW31547   4.072   3.091   1.467 -0.1622 -0.1003 -0.6903
 9552SOL    HW131548   4.158   3.120   1.436  0.7309 -0.5331  1.2977
 9552SOL    HW231549   4.045   3.158   1.530 -1.9215  0.7271 -2.2179
 9553SOL     OW31550   3.706   2.397   2.781 -0.1651 -0.2111  0.5647
 9553SOL    HW131551   3.795   2.365   2.796 -0.3689 -0.0255  2.5186
 9553SOL    HW231552   3.716   2.491   2.770 -0.0396 -0.3066 -0.1700
 9554SOL     OW31553   7.026   8.529   3.246 -0.3312 -0.4300  0.1699
 9554SOL    HW131554   6.974   8.535   3.166 -0.2621  0.4516  0.1827
 9554SOL    HW231555   7.117   8.543   3.217 -0.1567 -1.3780  0.2294
 9555SOL     OW31556   1.462   0.942   9.228 -0.3863 -0.1765 -0.0863
 9555SOL    HW131557   1.485   1.025   9.271 -0.5347 -0.4349  0.5065
 9555SOL    HW231558   1.390   0.964   9.170  0.2914  0.3238 -0.7563
 9556SOL     OW31559   0.472   0.006   0.286 -0.1372  0.2598  0.0720
 9556SOL    HW131560   0.430  -0.067   0.332 -0.8476  1.6857  1.7735
 9556SOL    HW231561   0.415   0.023   0.211  1.8288 -3.0838 -2.5056
 9557SOL     OW31562   9.216   7.230   0.639  0.0605 -0.5497  0.0446
 9557SOL    HW131563   9.187   7.321   0.638  1.0668 -0.1376  2.3482
 9557SOL    HW231564   9.264   7.220   0.556  1.7515  1.6834  0.6513
 9558SOL     OW31565   7.962   6.470   0.523 -0.2093 -0.4263  0.3656
 9558SOL    HW131566   7.974   6.380   0.495 -0.3866  0.0530 -1.4307
 9558SOL    HW231567   8.024   6.483   0.594  1.5892 -1.2914 -0.9636
 9559SOL     OW31568   8.527   7.198   1.020  0.5789 -0.1021 -0.1494
 9559SOL    HW131569   8.477   7.267   1.065  0.9338 -0.3284  0.6181
 9559SOL    HW231570   8.590   7.246   0.966 -0.4017  0.1823 -1.0556
 9560SOL     OW31571   2.427   1.549   5.319  0.3053 -0.1975  0.3434
 9560SOL    HW131572   2.491   1.496   5.271 -0.5991 -0.4042 -0.6756
 9560SOL    HW231573   2.390   1.489   5.384  0.7956 -0.2049  0.6240
 9561SOL     OW31574   9.632   6.400   7.470  0.1961 -0.4360 -0.2869
 9561SOL    HW131575   9.555   6.385   7.525  1.0307 -0.1594  1.0143
 9561SOL    HW231576   9.629   6.332   7.403 -1.5870  0.0497 -0.7500
 9562SOL     OW31577   0.305   8.861   8.029 -0.1041  0.6843  0.6536
 9562SOL    HW131578   0.359   8.792   7.989 -0.0709  0.5195  0.9802
 9562SOL    HW231579   0.338   8.942   7.990 -1.2265  0.4068 -0.9933
 9563SOL     OW31580   0.827   6.374   9.490 -0.0585  0.2604  0.1374
 9563SOL    HW131581   0.742   6.357   9.530  0.3156 -0.7756  0.5367
 9563SOL    HW231582   0.838   6.469   9.496 -0.9176  0.3400  0.6241
 9564SOL     OW31583   0.014   7.657   6.911 -0.4129 -0.5733 -0.3659
 9564SOL    HW131584   0.088   7.596   6.923 -1.0535 -1.7416 -1.9828
 9564SOL    HW231585   0.030   7.698   6.826 -1.5496 -0.7489 -0.6821
 9565SOL     OW31586   1.390   8.237   5.705 -0.1656  0.2611  0.0126
 9565SOL    HW131587   1.383   8.142   5.707  0.1571  0.2359  0.0413
 9565SOL    HW231588   1.364   8.262   5.617  2.0502 -0.0619 -0.8059
 9566SOL     OW31589   5.497   8.120   5.129 -0.2481 -0.6265  0.5753
 9566SOL    HW131590   5.447   8.085   5.055 -0.1982 -0.9382  0.6894
 9566SOL    HW231591   5.445   8.194   5.160  0.3419  0.3064 -0.5593
 9567SOL     OW31592   5.708   0.490   1.502  0.2073  0.5390 -0.2178
 9567SOL    HW131593   5.621   0.503   1.540  0.3908  0.6825  0.1565
 9567SOL    HW231594   5.739   0.578   1.483  0.6098  0.5369  0.4186
 9568SOL     OW31595   6.519   7.181   9.623  0.3356 -0.1627  0.3438
 9568SOL    HW131596   6.447   7.192   9.561  1.6256  0.1749 -1.1384
 9568SOL    HW231597   6.530   7.267   9.662 -0.1525 -0.2548  0.6998
 9569SOL     OW31598   3.709   7.991   6.540 -0.2673  0.1961 -0.1508
 9569SOL    HW131599   3.652   7.971   6.614  0.8970  0.2951  0.8041
 9569SOL    HW231600   3.659   8.052   6.487 -0.4872  1.5059  1.4848
 9570SOL     OW31601   2.858   8.673   7.141 -0.7106  0.7207  0.4348
 9570SOL    HW131602   2.843   8.703   7.230 -1.9257  0.9793  0.1597
 9570SOL    HW231603   2.795   8.603   7.127  0.4465 -0.3171  0.2420
 9571SOL     OW31604   3.453   3.185   8.292 -0.2673  0.1809 -0.0661
 9571SOL    HW131605   3.492   3.268   8.264  0.7373  0.0801  0.9505
 9571SOL    HW231606   3.362   3.206   8.310 -0.5388  0.6047 -1.7486
 9572SOL     OW31607   3.110   2.853   2.434 -0.0843 -0.1675  0.3469
 9572SOL    HW131608   3.031   2.904   2.417  0.4070  0.4635 -0.1193
 9572SOL    HW231609   3.115   2.791   2.361  0.7702  0.9680 -0.5958
 9573SOL     OW31610   6.621   6.006   4.885  0.0293 -0.2769 -0.5966
 9573SOL    HW131611   6.698   5.998   4.941 -0.3693  0.7061  0.1150
 9573SOL    HW231612   6.583   5.918   4.885 -0.5351 -0.0910  1.5476
 9574SOL     OW31613   6.124   2.598   6.439 -0.6961  0.3555 -0.0006
 9574SOL    HW131614   6.141   2.572   6.348 -1.4507 -1.4693  0.3324
 9574SOL    HW231615   6.052   2.661   6.432 -1.4101 -0.4969 -0.6367
 9575SOL     OW31616   6.202   4.729   8.751 -0.3688 -0.3045 -0.3594
 9575SOL    HW131617   6.140   4.662   8.781 -0.9568 -0.5133 -1.9796
 9575SOL    HW231618   6.278   4.679   8.721 -0.3190 -0.1699 -0.4528
 9576SOL     OW31619   6.205   0.123   3.114  0.1702  0.2800 -0.1989
 9576SOL    HW131620   6.234   0.206   3.076  2.4087  0.8734  2.5216
 9576SOL    HW231621   6.280   0.065   3.105 -0.0363 -0.2489  1.2993
 9577SOL     OW31622   2.354   3.387   3.315 -0.3567  0.7552 -0.4092
 9577SOL    HW131623   2.399   3.314   3.273 -1.2603 -0.1492  0.1503
 9577SOL    HW231624   2.422   3.453   3.327  0.7293 -0.4012  0.0205
 9578SOL     OW31625   8.756   0.389   7.954 -0.1202  0.1146  0.6603
 9578SOL    HW131626   8.804   0.329   7.897  1.2349 -0.0034  1.8825
 9578SOL    HW231627   8.765   0.352   8.041 -1.5168  0.7024  1.0694
 9579SOL     OW31628   5.094   6.426   6.824  0.3242  0.6250 -0.5791
 9579SOL    HW131629   5.163   6.477   6.781  0.3883  0.6660 -0.4290
 9579SOL    HW231630   5.120   6.425   6.916 -1.3860  3.1738  0.0529
 9580SOL     OW31631   1.984   0.330   3.417 -0.0238 -0.1865 -0.3616
 9580SOL    HW131632   1.954   0.242   3.397  0.4040 -0.1166 -1.3558
 9580SOL    HW231633   1.923   0.388   3.372 -1.0742  0.0916  1.3243
 9581SOL     OW31634   8.908   8.509   7.058  0.0097  0.0677 -0.0537
 9581SOL    HW131635   8.911   8.419   7.023  2.7923 -0.1853  0.5940
 9581SOL    HW231636   8.882   8.562   6.983 -1.6315 -1.2229 -0.4753
 9582SOL     OW31637   5.130   3.540   8.408 -0.2989  0.1362  1.1329
 9582SOL    HW131638   5.196   3.554   8.476  1.1697  1.6898 -0.4880
 9582SOL    HW231639   5.088   3.626   8.398 -1.3313 -0.3828  0.9258
 9583SOL     OW31640   8.005   5.558   3.433  0.5786  0.0503  0.2370
 9583SOL    HW131641   8.086   5.608   3.442  0.8254  0.1833 -2.1586
 9583SOL    HW231642   8.034   5.467   3.425  0.4241  0.0131  0.1001
 9584SOL     OW31643   4.537   7.611   3.210  0.3955 -0.2883 -0.2192
 9584SOL    HW131644   4.606   7.676   3.223  0.4778  0.1217 -2.3796
 9584SOL    HW231645   4.455   7.660   3.218  0.4224 -0.2014 -0.4849
 9585SOL     OW31646   6.805   1.082   2.214  0.1777  0.4762  0.1496
 9585SOL    HW131647   6.845   1.028   2.282  1.5126  0.7488 -0.3917
 9585SOL    HW231648   6.764   1.020   2.154 -0.4788  0.2048  0.8738
 9586SOL     OW31649   1.279   7.923   7.243  0.0301  0.3457  0.3629
 9586SOL    HW131650   1.278   7.842   7.293  3.8338  1.1213  2.1159
 9586SOL    HW231651   1.232   7.986   7.297 -0.8676 -0.1235  0.1372
 9587SOL     OW31652   1.356   0.158   3.830  0.6902 -0.3448  0.2907
 9587SOL    HW131653   1.429   0.198   3.876 -0.5422  2.2719  0.1620
 9587SOL    HW231654   1.288   0.148   3.898 -0.1433  0.8841 -0.3320
 9588SOL     OW31655   6.034   8.791   8.787 -0.5415 -0.1379 -0.5216
 9588SOL    HW131656   6.016   8.757   8.699  0.1117 -0.6830 -0.4531
 9588SOL    HW231657   6.117   8.750   8.812 -0.9657 -0.3753  0.5457
 9589SOL     OW31658   6.984   0.658   6.571 -0.2769  0.2419  0.2572
 9589SOL    HW131659   6.972   0.657   6.476  0.9741  0.9408  0.0689
 9589SOL    HW231660   6.898   0.636   6.606 -0.2317 -2.5908 -1.0583
 9590SOL     OW31661   4.005   0.257   0.129 -0.2923 -0.1432  0.3056
 9590SOL    HW131662   3.986   0.292   0.042  0.0023 -1.6451 -0.4125
 9590SOL    HW231663   3.921   0.262   0.176 -0.1947  1.6923  0.3401
 9591SOL     OW31664   1.453   2.119   0.565  0.2422  0.5663  0.2423
 9591SOL    HW131665   1.453   2.072   0.482  0.3139  1.2853 -0.1805
 9591SOL    HW231666   1.462   2.051   0.632 -0.7920 -0.1097 -0.2803
 9592SOL     OW31667   5.737   7.250   3.298 -0.2615 -0.3126  0.0303
 9592SOL    HW131668   5.662   7.220   3.246 -0.1898  1.1916 -0.9836
 9592SOL    HW231669   5.813   7.234   3.242 -0.0806  0.3932  0.0633
 9593SOL     OW31670   2.886   3.241   3.477  0.7674  0.2278  0.0964
 9593SOL    HW131671   2.954   3.201   3.423  1.2814  0.5575  0.4920
 9593SOL    HW231672   2.931   3.265   3.558  0.3262  1.0659  0.0977
 9594SOL     OW31673   2.867   1.935   1.764  0.3207  0.1160  0.0823
 9594SOL    HW131674   2.850   1.952   1.672 -0.3022  0.7484  0.3041
 9594SOL    HW231675   2.960   1.913   1.767  0.0828 -1.0816 -0.8380
 9595SOL     OW31676   6.864   0.364   8.561  0.0961 -0.0695 -0.6038
 9595SOL    HW131677   6.793   0.344   8.623  0.6570  1.2359  0.5237
 9595SOL    HW231678   6.833   0.441   8.513  1.2169  1.3714  0.8402
 9596SOL     OW31679   7.238   3.596   5.021  0.3898 -0.5319  0.0776
 9596SOL    HW131680   7.254   3.542   5.099  0.0882  0.2527  0.7033
 9596SOL    HW231681   7.160   3.558   4.981  1.2171 -1.6647 -0.5205
 9597SOL     OW31682   6.002   1.140   3.523 -0.1413 -0.2005  0.1579
 9597SOL    HW131683   6.000   1.221   3.574  0.5314 -0.8093  1.1922
 9597SOL    HW231684   5.911   1.124   3.499 -0.3438  0.5961  0.3846
 9598SOL     OW31685   5.928   1.499   6.523  0.6995  0.7102 -0.1205
 9598SOL    HW131686   5.905   1.588   6.496  0.8951  0.3049 -1.7661
 9598SOL    HW231687   5.844   1.454   6.528  0.7002  0.6000 -0.8784
 9599SOL     OW31688   8.689   2.462   3.327  0.3967 -0.0012  0.4023
 9599SOL    HW131689   8.612   2.458   3.383  0.2859 -1.0941  0.1836
 9599SOL    HW231690   8.750   2.398   3.365  0.3416 -0.7153 -0.6763
 9600SOL     OW31691   4.127   0.955   0.642 -0.5067  0.0462 -0.3534
 9600SOL    HW131692   4.178   0.997   0.711 -2.2848  0.5695  0.7285
 9600SOL    HW231693   4.153   0.863   0.645  0.1390  0.2459  0.3661
 9601SOL     OW31694   4.576   6.497   0.125  0.1528  0.0711  0.1343
 9601SOL    HW131695   4.544   6.539   0.205 -1.8219  1.8187 -1.4293
 9601SOL    HW231696   4.628   6.565   0.082 -0.3719 -0.1582 -0.9049
 9602SOL     OW31697   8.456   4.582   1.848  0.1766  0.7957 -1.0057
 9602SOL    HW131698   8.377   4.625   1.816  0.0536  0.2511 -1.4436
 9602SOL    HW231699   8.425   4.513   1.906  0.3927  1.6456  0.1799
 9603SOL     OW31700   0.022   7.006   5.414  0.1512  0.1995 -0.0001
 9603SOL    HW131701  -0.050   6.945   5.399  2.1353 -2.4214  0.3517
 9603SOL    HW231702   0.011   7.034   5.505 -1.3537  1.2360 -0.4728
 9604SOL     OW31703   1.592   8.306   1.506 -0.4474  0.2235 -0.3909
 9604SOL    HW131704   1.642   8.293   1.587 -1.6640 -0.1981  0.3155
 9604SOL    HW231705   1.613   8.230   1.452  1.7445  1.3436 -1.2703
 9605SOL     OW31706   2.323   1.147   1.664  0.0629 -0.6257 -0.5078
 9605SOL    HW131707   2.390   1.097   1.710  0.4455 -0.2963 -0.7048
 9605SOL    HW231708   2.339   1.238   1.689  0.5267 -0.3959 -1.6044
 9606SOL     OW31709   5.857   6.420   1.409  0.5369  0.5473  0.1463
 9606SOL    HW131710   5.951   6.409   1.413  0.5309  0.4526  0.0362
 9606SOL    HW231711   5.823   6.332   1.391  0.4908  0.7332 -0.7561
 9607SOL     OW31712   7.533   4.051   6.405 -0.0920  0.2385 -0.0319
 9607SOL    HW131713   7.449   4.030   6.364 -0.8437  0.1894  1.4863
 9607SOL    HW231714   7.530   4.145   6.419  0.4953  0.3782 -0.7696
 9608SOL     OW31715   9.108   8.876   0.902 -0.1199  0.1231 -0.3185
 9608SOL    HW131716   9.148   8.794   0.930 -0.8280  0.6190  2.4414
 9608SOL    HW231717   9.078   8.859   0.813  2.2982 -1.6354 -0.8996
 9609SOL     OW31718   0.245   3.106   2.715 -0.0209  0.5045 -0.0925
 9609SOL    HW131719   0.185   3.145   2.778 -1.0455 -0.0637 -0.6923
 9609SOL    HW231720   0.221   3.014   2.712  0.3963  0.4084 -0.8769
 9610SOL     OW31721   9.617   6.891   3.458  0.1389  0.2652  0.7191
 9610SOL    HW131722   9.676   6.963   3.435  2.1485 -1.1380  1.2457
 9610SOL    HW231723   9.672   6.813   3.458 -1.4568 -0.9597  2.4571
 9611SOL     OW31724   6.324   7.233   9.451  0.3063 -0.1662  0.1419
 9611SOL    HW131725   6.375   7.224   9.370  0.0346  1.2072 -0.2038
 9611SOL    HW231726   6.298   7.325   9.453 -1.7565 -0.6886  0.5430
 9612SOL     OW31727   3.188   6.940   3.017 -0.0524  0.4438  0.5219
 9612SOL    HW131728   3.117   6.936   2.954 -0.4527 -0.6816  1.0252
 9612SOL    HW231729   3.260   6.893   2.976  0.0176  0.5774  0.4919
 9613SOL     OW31730   8.107   8.701   5.463 -0.1503  0.0598  0.4893
 9613SOL    HW131731   8.044   8.695   5.535 -0.4210 -0.9183  0.1854
 9613SOL    HW231732   8.085   8.783   5.419  0.5833  1.1188  2.0219
 9614SOL     OW31733   7.783   1.091   4.748  0.9374 -0.1147 -0.0424
 9614SOL    HW131734   7.841   1.027   4.790  0.1696 -0.9435 -0.2216
 9614SOL    HW231735   7.792   1.074   4.655  1.2010  0.4683 -0.1288
 9615SOL     OW31736   8.323   7.460   2.711  0.4065 -0.0827 -0.2944
 9615SOL    HW131737   8.361   7.541   2.747  1.7327 -0.9868  0.4164
 9615SOL    HW231738   8.309   7.479   2.619 -0.0141  1.2054  0.0075
 9616SOL     OW31739   7.038   8.015   5.366  0.3925  0.0144  0.1670
 9616SOL    HW131740   7.071   8.086   5.420  0.4814  0.1398 -0.0507
 9616SOL    HW231741   7.047   8.046   5.276  1.2562 -0.6159  0.0253
 9617SOL     OW31742   4.652   4.103   4.778  0.4546 -0.4439  0.8970
 9617SOL    HW131743   4.570   4.054   4.789 -1.3391  2.1595  0.2063
 9617SOL    HW231744   4.697   4.094   4.861 -3.4282  2.8403  3.7594
 9618SOL     OW31745   3.436   2.463   1.130  0.2536 -0.3090  0.1948
 9618SOL    HW131746   3.530   2.481   1.125  0.0048  0.9395 -0.2443
 9618SOL    HW231747   3.419   2.402   1.059  0.3563  1.2186 -1.1862
 9619SOL     OW31748   1.479   4.009   6.144  0.2569  0.4427  0.2490
 9619SOL    HW131749   1.429   4.091   6.154 -0.2087  0.1168  0.6436
 9619SOL    HW231750   1.450   3.955   6.217  0.3807 -0.1734 -0.1555
 9620SOL     OW31751   7.936   2.620   3.330  0.3922 -0.5527 -0.1807
 9620SOL    HW131752   7.981   2.560   3.271  0.8966  0.0802 -0.4459
 9620SOL    HW231753   7.896   2.685   3.272 -0.7320 -1.0016  0.0571
 9621SOL     OW31754   2.484   6.076   1.528  0.2209  0.3295 -0.5401
 9621SOL    HW131755   2.438   6.150   1.567 -1.1426 -0.7447 -0.0306
 9621SOL    HW231756   2.548   6.050   1.593  0.1268  0.5379 -0.3654
 9622SOL     OW31757   8.973   3.729   8.538 -0.4124  0.0517  0.0380
 9622SOL    HW131758   8.896   3.747   8.592 -0.1896  1.9288 -0.1903
 9622SOL    HW231759   8.963   3.787   8.463  0.2720 -1.0992 -0.9768
 9623SOL     OW31760   2.711   3.746   7.390  0.9042  0.4031  0.6323
 9623SOL    HW131761   2.657   3.819   7.360  1.5630  0.1660 -1.3045
 9623SOL    HW231762   2.784   3.788   7.436  0.9312  0.9533  0.1085
 9624SOL     OW31763   1.536   4.706   1.188 -0.0656 -0.7379 -0.1183
 9624SOL    HW131764   1.597   4.711   1.261  0.5971 -0.1255 -0.6885
 9624SOL    HW231765   1.582   4.749   1.115 -1.0200 -0.6066 -0.6711
 9625SOL     OW31766   6.671   0.353   6.552  0.1445 -0.2286  0.0415
 9625SOL    HW131767   6.763   0.325   6.554  0.7235  1.4781 -0.3868
 9625SOL    HW231768   6.669   0.430   6.608 -1.2618 -0.8062  0.8191
 9626SOL     OW31769   6.249   6.481   3.119  0.2068  0.5222  0.0072
 9626SOL    HW131770   6.290   6.401   3.150  0.9335  0.3645 -1.2988
 9626SOL    HW231771   6.246   6.471   3.024 -0.5859  1.6263 -0.1015
 9627SOL     OW31772   7.343   5.101   5.151  0.4803  0.1630 -0.2834
 9627SOL    HW131773   7.421   5.046   5.154  0.3499 -0.0216 -0.2300
 9627SOL    HW231774   7.293   5.076   5.229  1.5986  2.1232  1.1451
 9628SOL     OW31775   3.327   1.327   2.374 -0.3766  0.0482  0.0994
 9628SOL    HW131776   3.409   1.377   2.369 -0.3439  0.5825  3.4799
 9628SOL    HW231777   3.259   1.394   2.382 -0.9394 -0.4197 -0.6837
 9629SOL     OW31778   6.636   3.925   1.384  0.1238  0.2122 -0.0894
 9629SOL    HW131779   6.674   3.861   1.444 -0.3931 -1.7394 -1.7183
 9629SOL    HW231780   6.642   4.009   1.430  5.0127 -0.1347  0.4283
 9630SOL     OW31781   6.379   8.688   7.023 -0.0082 -0.4139 -0.6156
 9630SOL    HW131782   6.388   8.740   6.943  0.2795  1.6341  0.6786
 9630SOL    HW231783   6.446   8.620   7.015  0.0181 -0.2431 -2.0941
 9631SOL     OW31784   7.565   9.095   5.326  0.6037 -0.1920  0.2516
 9631SOL    HW131785   7.640   9.035   5.324 -0.2506 -1.3531  1.9585
 9631SOL    HW231786   7.525   9.082   5.411 -0.4233  1.8415  0.1381
 9632SOL     OW31787   7.390   1.949   3.304  0.0537 -0.4948  0.0745
 9632SOL    HW131788   7.469   1.960   3.357 -0.4182  0.1166  0.6696
 9632SOL    HW231789   7.325   1.916   3.365 -0.3290 -0.3709 -0.2629
 9633SOL     OW31790   0.776   7.024   2.769 -0.1877  0.6752  0.4640
 9633SOL    HW131791   0.688   7.057   2.751  0.4988  2.1080 -0.4099
 9633SOL    HW231792   0.835   7.096   2.747  1.4595 -1.2780 -2.2347
 9634SOL     OW31793   1.551   5.351   0.559 -0.0038  0.2525 -0.2037
 9634SOL    HW131794   1.509   5.271   0.589  0.0784 -0.1310 -1.0973
 9634SOL    HW231795   1.641   5.344   0.591 -0.5057  0.9661  1.5096
 9635SOL     OW31796   2.181   4.826   5.172 -0.2794 -0.4512 -0.4260
 9635SOL    HW131797   2.107   4.831   5.232  0.8977  0.2478  1.0139
 9635SOL    HW231798   2.178   4.909   5.123  0.5548  0.4051  0.9033
 9636SOL     OW31799   6.046   3.778   4.961  0.1794  0.2219 -0.4399
 9636SOL    HW131800   6.064   3.852   4.904 -0.0057  1.5816  1.1780
 9636SOL    HW231801   5.950   3.773   4.965  0.1494 -1.3876 -2.0737
 9637SOL     OW31802   6.204   6.550   1.120  0.1265 -0.1911 -0.2949
 9637SOL    HW131803   6.241   6.599   1.046 -1.9873  0.0580 -1.2666
 9637SOL    HW231804   6.125   6.509   1.084  0.5699 -2.4728  1.0945
 9638SOL     OW31805   3.891   0.709   9.508  0.1970 -0.3365 -0.3849
 9638SOL    HW131806   3.880   0.803   9.497 -2.0353 -0.4369  0.6190
 9638SOL    HW231807   3.808   0.678   9.544  0.6831 -2.7772 -1.1426
 9639SOL     OW31808   4.774   0.207   7.184  0.4751 -0.0673 -0.2121
 9639SOL    HW131809   4.796   0.299   7.174 -1.1583  0.4037  0.1630
 9639SOL    HW231810   4.678   0.205   7.185  0.4639 -1.8213 -0.6642
 9640SOL     OW31811   6.769   4.804   8.058  0.6087  0.5773  0.4720
 9640SOL    HW131812   6.805   4.758   7.981  1.8840  0.8018  0.9130
 9640SOL    HW231813   6.839   4.800   8.123  0.4305  2.4314  0.8081
 9641SOL     OW31814   0.483   8.426   5.884  0.1133 -0.4653  0.4222
 9641SOL    HW131815   0.558   8.474   5.849 -0.7764 -0.3107 -1.3923
 9641SOL    HW231816   0.407   8.467   5.842 -0.6848 -3.4090 -1.2215
 9642SOL     OW31817   4.577   2.992   2.702 -0.4087  0.1256 -0.6007
 9642SOL    HW131818   4.614   2.965   2.618  0.0337  1.3102 -0.7963
 9642SOL    HW231819   4.563   3.086   2.693  0.2395  0.3833  0.8876
 9643SOL     OW31820   5.113   1.576   5.196 -0.6780 -0.4019  0.1537
 9643SOL    HW131821   5.071   1.660   5.213  0.2312  0.7054 -2.4995
 9643SOL    HW231822   5.098   1.559   5.103  3.4175 -0.5576 -0.7012
 9644SOL     OW31823   6.079   7.631   6.198  0.1824  0.9455 -0.6066
 9644SOL    HW131824   6.019   7.688   6.151 -0.0602  0.1789 -1.2482
 9644SOL    HW231825   6.137   7.690   6.246 -2.4075  1.7417  1.8001
 9645SOL     OW31826   3.426   5.508   2.052 -0.0475  0.1526 -0.0066
 9645SOL    HW131827   3.467   5.464   2.127 -0.7518  1.5391  1.2638
 9645SOL    HW231828   3.434   5.601   2.073 -1.0364  0.5358 -1.2545
 9646SOL     OW31829   3.619   8.730   8.947  0.1548 -0.5365 -0.0440
 9646SOL    HW131830   3.613   8.821   8.918 -1.7035  0.1204  2.0671
 9646SOL    HW231831   3.529   8.698   8.943  0.4411 -1.5948  1.2305
 9647SOL     OW31832   9.520   4.220   4.595 -0.2177 -0.6717  0.1821
 9647SOL    HW131833   9.539   4.251   4.684  1.0372 -0.3228 -0.1814
 9647SOL    HW231834   9.592   4.161   4.575 -1.0085 -1.5107 -0.2529
 9648SOL     OW31835   7.219   0.138   3.556  0.8981 -0.1590 -0.2715
 9648SOL    HW131836   7.227   0.043   3.546  2.0462 -0.0030 -1.0085
 9648SOL    HW231837   7.137   0.150   3.605  0.9572 -1.5399  0.2137
 9649SOL     OW31838   1.250   8.399   9.105 -0.0456  0.6579  0.3568
 9649SOL    HW131839   1.239   8.379   9.013 -0.9229  0.6535  0.4579
 9649SOL    HW231840   1.191   8.339   9.151  0.1964  0.8273  0.9066
 9650SOL     OW31841   4.687   7.073   3.602 -0.3475  0.3150 -0.2699
 9650SOL    HW131842   4.779   7.050   3.589 -0.0978  1.1618 -0.0656
 9650SOL    HW231843   4.661   7.117   3.521 -0.3992  0.6015 -0.0989
 9651SOL     OW31844   4.819   4.439   1.230  0.3400  0.0241  0.7338
 9651SOL    HW131845   4.747   4.378   1.245  0.0986  0.4440  1.2860
 9651SOL    HW231846   4.792   4.491   1.154  0.2042 -0.0328  0.7446
 9652SOL     OW31847   4.100   8.324   4.417  0.0938 -0.3586  0.2836
 9652SOL    HW131848   4.080   8.358   4.504  0.9785 -0.9577  0.7340
 9652SOL    HW231849   4.056   8.240   4.413  1.8838 -1.3944  1.0457
 9653SOL     OW31850   5.985   4.204   9.123  0.5821  0.4331 -0.6877
 9653SOL    HW131851   6.027   4.126   9.159 -1.5868 -0.2042  0.6290
 9653SOL    HW231852   6.058   4.255   9.087  2.2295 -1.4932 -0.3003
 9654SOL     OW31853   5.258   6.985   7.944  0.1464  0.0706 -0.1516
 9654SOL    HW131854   5.247   7.080   7.942  0.5961  0.1393  0.2714
 9654SOL    HW231855   5.222   6.954   7.861 -1.3066  0.4570  0.3179
 9655SOL     OW31856   5.506   4.869   1.730 -0.1415  0.3630  0.5147
 9655SOL    HW131857   5.514   4.964   1.729 -0.0246  0.3536 -0.3747
 9655SOL    HW231858   5.556   4.840   1.654  0.5639 -0.4778  1.2713
 9656SOL     OW31859   5.915   1.144   2.720  0.2799 -0.1918  0.0198
 9656SOL    HW131860   5.979   1.207   2.687 -0.8145  2.3418  2.3641
 9656SOL    HW231861   5.968   1.080   2.768  1.3705 -0.9307 -2.0162
 9657SOL     OW31862   1.669   5.643   3.238  0.5729 -0.1441  0.5983
 9657SOL    HW131863   1.760   5.632   3.265  0.9597  0.1297 -0.5283
 9657SOL    HW231864   1.662   5.594   3.156 -0.3497 -0.3109  0.7613
 9658SOL     OW31865   4.096   0.164   1.153 -0.0435  0.1337 -0.0934
 9658SOL    HW131866   4.082   0.070   1.145  3.1335 -0.2954 -2.6204
 9658SOL    HW231867   4.085   0.182   1.247  0.2416 -2.9283  0.6271
 9659SOL     OW31868   6.912   8.391   5.569 -0.3169 -0.0552 -0.3801
 9659SOL    HW131869   6.960   8.473   5.556 -0.3362 -0.3676 -2.8436
 9659SOL    HW231870   6.977   8.322   5.552 -0.5069 -0.5699  0.8679
 9660SOL     OW31871   4.972   5.877   7.135 -0.7764 -0.6291 -0.0925
 9660SOL    HW131872   5.014   5.964   7.131 -1.6347 -0.0861  1.6644
 9660SOL    HW231873   5.044   5.816   7.123  0.1453  0.3223  0.3681
 9661SOL     OW31874   0.162   6.442   2.250  0.1953  0.0313 -0.0084
 9661SOL    HW131875   0.080   6.394   2.243  0.2940 -0.4268  1.5884
 9661SOL    HW231876   0.162   6.502   2.175 -1.8056  0.3967  0.2436
 9662SOL     OW31877   5.608   7.694   7.007  0.0813 -0.6447  0.5916
 9662SOL    HW131878   5.668   7.659   7.072  2.2384  0.8041 -0.4834
 9662SOL    HW231879   5.647   7.778   6.982 -2.1906  0.1491 -0.5016
 9663SOL     OW31880   1.361   1.213   8.182  0.3476  0.2306 -0.5734
 9663SOL    HW131881   1.296   1.276   8.214  0.8556 -0.1935  1.4152
 9663SOL    HW231882   1.429   1.267   8.142 -0.7464  0.7270 -1.8604
 9664SOL     OW31883   2.858   0.753   6.776  0.0683 -0.2007 -0.1399
 9664SOL    HW131884   2.824   0.780   6.691 -0.2463  0.5109  0.2020
 9664SOL    HW231885   2.951   0.776   6.773 -0.1788  0.9123  0.1188
 9665SOL     OW31886   4.289   4.399   4.370 -0.0743  0.2252 -0.2199
 9665SOL    HW131887   4.280   4.487   4.407  1.1356 -0.0491  0.7905
 9665SOL    HW231888   4.336   4.412   4.288 -2.9249  0.8597 -1.9090
 9666SOL     OW31889   8.383   9.126   8.493  0.3266  0.1195 -0.0398
 9666SOL    HW131890   8.294   9.148   8.519  0.5740  0.1541  0.8049
 9666SOL    HW231891   8.378   9.114   8.398 -0.6685 -0.3306  0.0561
 9667SOL     OW31892   8.582   0.773   3.188  0.0350 -0.4335  0.6655
 9667SOL    HW131893   8.532   0.727   3.121 -1.4775 -1.2535  2.2846
 9667SOL    HW231894   8.518   0.794   3.256  1.0088  2.5937  0.7991
 9668SOL     OW31895   4.907   8.465   5.947 -0.1668 -0.2798  0.0896
 9668SOL    HW131896   4.965   8.541   5.946 -0.4692 -0.0493 -0.7631
 9668SOL    HW231897   4.824   8.498   5.982  0.1050 -0.5367  1.0076
 9669SOL     OW31898   1.711   9.000   1.566  0.0887 -0.3629 -0.5515
 9669SOL    HW131899   1.638   9.060   1.560  0.6431  0.3992  0.0771
 9669SOL    HW231900   1.752   9.020   1.651 -0.0160 -1.9763 -0.0871
 9670SOL     OW31901   1.642   0.656   0.335  0.0760 -0.1100 -0.3436
 9670SOL    HW131902   1.562   0.708   0.345  1.3066  2.0790 -1.0870
 9670SOL    HW231903   1.625   0.600   0.259 -0.9414 -0.0413 -0.1749
 9671SOL     OW31904   2.440   1.580   1.978 -0.3414 -0.0640 -0.0840
 9671SOL    HW131905   2.391   1.620   2.050  0.8654 -1.5616  1.6620
 9671SOL    HW231906   2.418   1.487   1.982 -1.3131 -0.0182 -2.5962
 9672SOL     OW31907   0.836   6.584   6.161  0.1420  0.1211 -0.1930
 9672SOL    HW131908   0.825   6.491   6.182  1.3962  0.0084  0.0578
 9672SOL    HW231909   0.890   6.618   6.232  0.7334  0.7555 -0.9335
 9673SOL     OW31910   8.666   5.717   3.947  0.2564  0.5012  0.2055
 9673SOL    HW131911   8.670   5.638   4.000 -2.1325  0.1782  0.0057
 9673SOL    HW231912   8.733   5.774   3.984  0.4490 -0.7205  1.8513
 9674SOL     OW31913   7.362   3.235   9.629 -0.6415  0.1828 -0.4310
 9674SOL    HW131914   7.350   3.143   9.606 -1.7825  0.3972 -0.7438
 9674SOL    HW231915   7.372   3.234   9.724 -1.2470 -0.2201 -0.3612
 9675SOL     OW31916   1.082   4.289   8.434  0.1860 -0.3445  0.6237
 9675SOL    HW131917   0.987   4.284   8.424  0.2291  0.4879 -0.3316
 9675SOL    HW231918   1.096   4.364   8.491  0.3189  0.3141 -0.2685
 9676SOL     OW31919   7.044   4.319   7.665 -0.9222 -0.5264 -0.3689
 9676SOL    HW131920   6.952   4.306   7.687 -1.0331  1.9836  1.0073
 9676SOL    HW231921   7.090   4.322   7.749  0.2558 -0.6088 -0.9768
 9677SOL     OW31922   3.342   4.476   2.631 -0.3408  0.1054 -0.0020
 9677SOL    HW131923   3.295   4.518   2.703  1.8746  0.4589  1.3291
 9677SOL    HW231924   3.435   4.485   2.654  0.3691 -3.9905 -0.5032
 9678SOL     OW31925   3.409   5.714   3.576 -0.6459 -0.5272  0.6681
 9678SOL    HW131926   3.485   5.771   3.586 -1.2509  0.6601 -1.0504
 9678SOL    HW231927   3.423   5.644   3.640  3.5097 -2.2200 -1.6743
 9679SOL     OW31928   4.478   0.703   6.556 -0.4477  0.1416  0.4459
 9679SOL    HW131929   4.395   0.736   6.522 -1.1782  0.4281  2.3739
 9679SOL    HW231930   4.482   0.612   6.525 -1.2468  0.2726 -0.0795
 9680SOL     OW31931   1.080   5.607   3.897 -0.6030  0.3096 -0.2275
 9680SOL    HW131932   1.063   5.662   3.974 -0.1933  0.2967 -0.1252
 9680SOL    HW231933   1.172   5.584   3.904 -0.2512  1.2843 -1.3408
 9681SOL     OW31934   4.983   2.227   7.748  0.5207 -0.5765  0.4411
 9681SOL    HW131935   5.017   2.240   7.659 -1.3639  2.8051  0.0173
 9681SOL    HW231936   4.902   2.177   7.736  0.9660 -1.3013  0.4323
 9682SOL     OW31937   0.149   9.516   3.786  0.0194  0.1048 -0.1256
 9682SOL    HW131938   0.148   9.612   3.782 -0.9309  0.0678 -1.8283
 9682SOL    HW231939   0.057   9.491   3.778  0.3943 -0.9719 -1.4355
 9683SOL     OW31940   9.065   1.857   6.945 -0.0708  0.0770  0.4629
 9683SOL    HW131941   8.975   1.835   6.922  0.3192 -1.6126  0.4377
 9683SOL    HW231942   9.087   1.931   6.889 -0.8327 -0.7144 -0.9301
 9684SOL     OW31943   7.979   9.223   8.867 -0.2296  0.3754  0.5004
 9684SOL    HW131944   7.962   9.136   8.902 -1.7396  1.1843  1.9492
 9684SOL    HW231945   8.074   9.227   8.858 -0.2266 -2.1669 -1.8021
 9685SOL     OW31946   8.610   7.322   6.161  0.2806  0.0208  0.5489
 9685SOL    HW131947   8.533   7.266   6.177 -0.8655  0.9102 -1.3987
 9685SOL    HW231948   8.648   7.337   6.248 -2.6452  0.7689  1.8292
 9686SOL     OW31949   1.785   6.890   7.178  0.1124 -0.0716  0.1550
 9686SOL    HW131950   1.759   6.818   7.119 -0.4195  0.7566 -0.6523
 9686SOL    HW231951   1.702   6.929   7.206  0.3967  0.1996  0.6299
 9687SOL     OW31952   5.596   7.371   5.308 -0.2665 -0.0821  0.3922
 9687SOL    HW131953   5.591   7.464   5.284 -0.5117  0.3140  1.8616
 9687SOL    HW231954   5.506   7.349   5.334 -0.3459 -0.9196 -0.5571
 9688SOL     OW31955   2.427   6.205   3.631  0.4435  0.5084  0.3258
 9688SOL    HW131956   2.423   6.292   3.593  1.1139 -0.1255 -1.3173
 9688SOL    HW231957   2.460   6.149   3.560 -3.0499 -1.7160  0.1983
 9689SOL     OW31958   4.973   7.246   3.604 -0.1393 -0.1914 -0.2416
 9689SOL    HW131959   4.989   7.251   3.699 -1.9231 -0.1491  0.1021
 9689SOL    HW231960   4.964   7.337   3.577  0.1402 -0.2135 -0.4063
 9690SOL     OW31961   9.119   7.345   5.343 -0.2084 -0.2094  0.3071
 9690SOL    HW131962   9.104   7.272   5.283  0.3496  0.4861 -0.6908
 9690SOL    HW231963   9.120   7.423   5.288 -2.8952  0.8680  1.5683
 9691SOL     OW31964   0.763   6.100   2.219  0.0055 -0.0115 -0.3317
 9691SOL    HW131965   0.782   6.054   2.138 -0.1696 -0.9394  0.1372
 9691SOL    HW231966   0.675   6.135   2.207 -0.3629 -0.8727 -0.2367
 9692SOL     OW31967   8.928   5.548   6.500 -0.4006  0.5155 -0.2252
 9692SOL    HW131968   8.872   5.539   6.577  0.4100 -0.6355  0.2712
 9692SOL    HW231969   8.922   5.462   6.457 -0.0291  0.8100 -0.8747
 9693SOL     OW31970   9.592   7.807   1.168  0.6842 -0.3604  0.0753
 9693SOL    HW131971   9.499   7.791   1.179  0.1498  1.8801 -0.5283
 9693SOL    HW231972   9.611   7.778   1.079  0.6478 -1.0829  0.2968
 9694SOL     OW31973   6.050   0.450   5.050 -0.5841 -0.4583 -0.4844
 9694SOL    HW131974   6.007   0.371   5.017 -1.2418  0.4827 -1.9965
 9694SOL    HW231975   6.084   0.425   5.135 -1.6141 -2.0948 -0.5118
 9695SOL     OW31976   0.218   5.032   9.520 -0.1188 -0.5924  0.5574
 9695SOL    HW131977   0.161   5.067   9.451  1.1806  0.8119  0.1347
 9695SOL    HW231978   0.186   4.944   9.536 -1.9723 -0.0880 -0.1355
 9696SOL     OW31979   3.442   0.580   2.421  0.2250 -0.4647  0.6766
 9696SOL    HW131980   3.415   0.626   2.342  0.2715  0.6769  1.2943
 9696SOL    HW231981   3.395   0.497   2.418 -0.9229  0.1742  0.1803
 9697SOL     OW31982   4.566   8.299   2.313  0.9027  0.4935 -0.7584
 9697SOL    HW131983   4.637   8.363   2.323  0.6814  0.5947  0.3089
 9697SOL    HW231984   4.511   8.336   2.244  1.2201  1.0500 -0.7239
 9698SOL     OW31985   8.002   3.572   1.609 -0.6816  0.4941 -0.1639
 9698SOL    HW131986   7.940   3.513   1.567 -0.4641 -0.2063  0.4640
 9698SOL    HW231987   7.962   3.659   1.602 -1.5012  0.1228 -0.2000
 9699SOL     OW31988   4.932   8.717   4.784 -0.5064 -0.1021  0.5234
 9699SOL    HW131989   4.890   8.718   4.698 -0.0862  1.3766  0.3163
 9699SOL    HW231990   4.987   8.639   4.782  0.2192  0.4053 -0.9292
 9700SOL     OW31991   1.453   5.805   8.407  0.4344  0.0385  0.0354
 9700SOL    HW131992   1.371   5.772   8.369 -0.7623  1.1909  1.5312
 9700SOL    HW231993   1.495   5.727   8.444  0.4646 -0.6987 -1.4508
 9701SOL     OW31994   6.282   5.363   0.438 -0.5445 -0.3775 -0.1258
 9701SOL    HW131995   6.229   5.288   0.466 -0.1998 -1.0674 -1.2737
 9701SOL    HW231996   6.354   5.325   0.387 -1.0587  0.7893 -1.8216
 9702SOL     OW31997   2.719   3.346   3.284 -0.3242 -0.2485 -0.2048
 9702SOL    HW131998   2.728   3.441   3.274 -1.2527 -0.3831 -3.3104
 9702SOL    HW231999   2.772   3.326   3.361  1.8523  2.5048 -0.7896
 9703SOL     OW32000   2.077   8.755   2.625  0.2062  0.9638 -0.4641
 9703SOL    HW132001   2.135   8.692   2.583 -0.0237  1.0683 -0.9534
 9703SOL    HW232002   2.115   8.770   2.711  0.6682  0.7152 -0.6223
 9704SOL     OW32003   8.016   0.438   3.344 -0.1380 -0.0252 -0.1348
 9704SOL    HW132004   8.028   0.417   3.252 -1.5622 -2.0116  0.0646
 9704SOL    HW232005   8.082   0.386   3.390 -0.5475 -0.3746  0.0658
 9705SOL     OW32006   1.586   4.672   7.349  0.0598 -0.4920  0.1199
 9705SOL    HW132007   1.582   4.635   7.260  0.1646 -0.9635  0.3051
 9705SOL    HW232008   1.662   4.630   7.388 -0.1576 -0.5097  0.5304
 9706SOL     OW32009   1.011   3.591   5.987  0.2811 -0.3824  0.8286
 9706SOL    HW132010   1.083   3.641   5.949  0.8856 -0.5749  1.6952
 9706SOL    HW232011   0.938   3.654   5.990  0.8973  0.3239  1.4794
 9707SOL     OW32012   2.715   1.611   7.760  0.5524 -0.9369 -0.0521
 9707SOL    HW132013   2.727   1.558   7.682 -0.1394 -1.5568  0.2535
 9707SOL    HW232014   2.795   1.664   7.766  1.6427 -2.5348  0.0967
 9708SOL     OW32015   4.668   5.460   4.622  0.4074  0.5421  0.3525
 9708SOL    HW132016   4.738   5.519   4.651  0.1918  0.6518  0.6642
 9708SOL    HW232017   4.590   5.492   4.667  0.5054 -0.6976  1.4765
 9709SOL     OW32018   2.839   9.291   2.435 -0.1073  0.2226 -0.1251
 9709SOL    HW132019   2.870   9.228   2.370 -1.5375 -0.5958 -0.0678
 9709SOL    HW232020   2.815   9.237   2.511 -2.3107  0.6740 -0.4398
 9710SOL     OW32021   4.812   8.096   3.171 -0.7738  0.3452 -0.4566
 9710SOL    HW132022   4.743   8.031   3.187 -0.6238  0.4907  0.9528
 9710SOL    HW232023   4.772   8.179   3.196 -0.4136  0.5671 -0.6227
 9711SOL     OW32024   5.965   1.573   7.373 -0.0966  0.0842  0.1247
 9711SOL    HW132025   6.055   1.596   7.396  0.2768 -0.9115 -0.2861
 9711SOL    HW232026   5.937   1.513   7.441 -0.6671  0.8269  0.5660
 9712SOL     OW32027   0.345   3.208   0.777  0.2782 -0.0147  0.1764
 9712SOL    HW132028   0.365   3.154   0.854 -1.0171 -3.0487 -1.4360
 9712SOL    HW232029   0.250   3.217   0.779  0.3080  0.5548 -0.6433
 9713SOL     OW32030   2.832   0.620   4.632 -0.6364 -0.7281 -0.0044
 9713SOL    HW132031   2.890   0.580   4.567  1.4347 -0.2954  1.4707
 9713SOL    HW232032   2.822   0.711   4.602 -0.2781 -0.7185 -0.1105
 9714SOL     OW32033   5.963   4.718   1.796  0.4015  0.4574 -0.0934
 9714SOL    HW132034   5.950   4.722   1.702  1.0718 -1.0621 -0.2938
 9714SOL    HW232035   5.875   4.721   1.833 -0.0200 -1.0232 -0.9034
 9715SOL     OW32036   2.906   7.096   5.319 -0.9631 -0.7230  0.1635
 9715SOL    HW132037   2.816   7.073   5.339 -0.6440  0.0719  3.0500
 9715SOL    HW232038   2.905   7.191   5.305 -0.5170 -0.5885  0.9409
 9716SOL     OW32039   2.537   3.565   1.492  0.1248  0.1897  0.3107
 9716SOL    HW132040   2.462   3.590   1.437  1.4201  0.2451 -1.5210
 9716SOL    HW232041   2.570   3.647   1.527 -1.0714  0.1007  1.7178
 9717SOL     OW32042   6.977   2.183   0.939  0.1582 -0.2471 -0.2832
 9717SOL    HW132043   6.979   2.089   0.918  0.5225  0.0072 -1.4572
 9717SOL    HW232044   6.962   2.226   0.855 -2.0609  0.6645  0.5080
 9718SOL     OW32045   2.105   1.459   1.402 -0.0495 -0.1113  0.5821
 9718SOL    HW132046   2.155   1.497   1.329 -0.3092 -1.2196 -0.1851
 9718SOL    HW232047   2.017   1.494   1.391 -0.3550 -1.1290 -0.2833
 9719SOL     OW32048   6.018   7.497   3.748 -0.1851  0.5779 -0.0671
 9719SOL    HW132049   6.036   7.441   3.672 -2.4798  2.4615 -2.1684
 9719SOL    HW232050   5.924   7.485   3.764  0.1620  0.5372  2.3105
 9720SOL     OW32051   6.525   7.837   7.099 -0.0024  1.1303 -0.0186
 9720SOL    HW132052   6.509   7.906   7.164 -2.4380 -0.1695  0.9127
 9720SOL    HW232053   6.546   7.760   7.151 -2.0015  0.0615 -0.6665
 9721SOL     OW32054   8.092   7.736   4.180 -0.1460  0.0277  0.1783
 9721SOL    HW132055   8.007   7.724   4.139 -0.1949  1.3780 -0.1629
 9721SOL    HW232056   8.154   7.738   4.107  0.1362 -0.4739  0.3933
 9722SOL     OW32057   0.625   1.816   4.270  0.1319 -0.1545  0.8995
 9722SOL    HW132058   0.572   1.763   4.330 -1.4968  0.9412  0.4751
 9722SOL    HW232059   0.714   1.783   4.282 -0.3345 -0.7789  3.0378
 9723SOL     OW32060   5.385   4.579   7.206 -0.2527 -0.0518 -0.8797
 9723SOL    HW132061   5.414   4.670   7.202  2.1340 -0.7665 -1.7563
 9723SOL    HW232062   5.400   4.545   7.118 -0.2739 -1.4991 -0.3528
 9724SOL     OW32063   3.980   0.802   6.380  0.6377  0.3354  0.2663
 9724SOL    HW132064   4.038   0.831   6.310 -1.8331  0.2422 -1.9876
 9724SOL    HW232065   3.905   0.762   6.335 -0.6468 -0.6280  3.0037
 9725SOL     OW32066   7.703   3.783   7.640  0.1364 -0.5085 -0.3155
 9725SOL    HW132067   7.794   3.754   7.633  0.1996 -1.0537  1.8392
 9725SOL    HW232068   7.652   3.703   7.626  0.1814 -1.0206  1.9748
 9726SOL     OW32069   2.533   6.084   4.965 -0.2315 -0.3196  0.4649
 9726SOL    HW132070   2.578   6.006   5.000  1.7313  0.7616  0.4844
 9726SOL    HW232071   2.471   6.108   5.034 -1.2067 -2.0920  0.2708
 9727SOL     OW32072   7.500   0.923   3.037  0.0466  0.6261 -0.1418
 9727SOL    HW132073   7.410   0.919   3.069  0.1169  1.4074  0.1665
 9727SOL    HW232074   7.494   0.967   2.953  0.0856  0.1998 -0.3742
 9728SOL     OW32075   8.542   3.423   5.757 -0.3363  0.5860 -0.2820
 9728SOL    HW132076   8.556   3.472   5.838 -1.0449 -0.9435  0.8104
 9728SOL    HW232077   8.621   3.369   5.748 -0.9992 -0.5349  0.3752
 9729SOL     OW32078   8.709   8.900   9.364 -0.7070  0.2134  0.5292
 9729SOL    HW132079   8.749   8.842   9.428 -1.5582 -1.7727 -0.6543
 9729SOL    HW232080   8.782   8.951   9.328  0.4092 -1.5805  0.1548
 9730SOL     OW32081   5.175   2.034   3.175 -0.7466  0.0240  0.3961
 9730SOL    HW132082   5.097   2.029   3.120 -0.9325  1.2936  0.5248
 9730SOL    HW232083   5.204   2.125   3.168  0.6749 -0.4024  0.4244
 9731SOL     OW32084   9.135   0.653   4.764  0.2478  0.1856 -0.3451
 9731SOL    HW132085   9.078   0.657   4.687  0.0260  1.2304 -0.1465
 9731SOL    HW232086   9.214   0.609   4.734  0.6192  1.5672 -1.4905
 9732SOL     OW32087   6.973   6.156   1.919 -0.1547 -0.0173 -0.2978
 9732SOL    HW132088   7.014   6.132   1.836 -2.4403 -2.2526 -0.9009
 9732SOL    HW232089   7.043   6.147   1.983  1.0929 -0.5107 -1.6599
 9733SOL     OW32090   1.242   4.753   3.334 -0.4648  0.2051  0.4788
 9733SOL    HW132091   1.169   4.719   3.386 -0.9486 -1.2338 -1.0532
 9733SOL    HW232092   1.200   4.798   3.261  0.1895 -0.2121 -0.1544
 9734SOL     OW32093   7.662   3.414   2.040 -0.2349  0.1757  0.0495
 9734SOL    HW132094   7.706   3.459   2.111 -1.1687  0.5409  0.4156
 9734SOL    HW232095   7.719   3.427   1.964  0.6382 -0.0004  0.6651
 9735SOL     OW32096   6.251   0.683   2.824  0.1612  0.0665  0.0312
 9735SOL    HW132097   6.278   0.634   2.747 -1.4823 -1.4626  0.3911
 9735SOL    HW232098   6.312   0.655   2.893  1.6721  1.4836 -0.6509
 9736SOL     OW32099   0.156   5.036   2.794 -0.1876 -0.5129 -0.5097
 9736SOL    HW132100   0.242   5.029   2.751 -0.1518  0.0275 -0.5336
 9736SOL    HW232101   0.148   5.129   2.815 -0.4188 -0.6968  0.2206
 9737SOL     OW32102   7.295   3.464   0.230 -0.0801  0.5829  0.6759
 9737SOL    HW132103   7.284   3.380   0.274  0.1393  0.4952  0.5648
 9737SOL    HW232104   7.213   3.477   0.182 -0.1181  0.4358  0.7008
 9738SOL     OW32105   7.010   2.367   4.243  0.1847 -0.0509 -0.1606
 9738SOL    HW132106   6.945   2.303   4.270  0.7174  0.1994  1.8869
 9738SOL    HW232107   7.001   2.439   4.306  1.6692  0.4923 -0.5262
 9739SOL     OW32108   3.119   9.065   9.107  0.0107 -0.1145 -0.4612
 9739SOL    HW132109   3.064   8.986   9.107 -0.4416  0.1978 -0.6588
 9739SOL    HW232110   3.187   9.046   9.042 -0.1691 -0.2925 -0.5999
 9740SOL     OW32111   2.207   3.942   5.592 -0.1203  0.3261  0.0975
 9740SOL    HW132112   2.278   3.967   5.651  0.1532 -0.2490  0.0138
 9740SOL    HW232113   2.212   4.007   5.521  0.1479  0.4476  0.2254
 9741SOL     OW32114   1.371   3.981   8.284 -0.4994  0.8513 -0.0755
 9741SOL    HW132115   1.327   3.919   8.226  1.7706 -1.9038  0.9174
 9741SOL    HW232116   1.308   3.997   8.354 -0.9503 -0.8140 -0.0709
 9742SOL     OW32117   2.869   8.278   0.572 -0.0558  0.0994 -0.2531
 9742SOL    HW132118   2.850   8.302   0.481  1.2914  0.9979 -0.3251
 9742SOL    HW232119   2.964   8.287   0.579  0.0258 -1.3827  0.8564
 9743SOL     OW32120   8.777   5.410   0.199  0.0751 -0.4294 -0.3404
 9743SOL    HW132121   8.722   5.479   0.162  0.8604 -0.1177 -0.9591
 9743SOL    HW232122   8.810   5.446   0.281  0.4978 -0.0620 -0.6719
 9744SOL     OW32123   8.575   0.907   2.890 -0.2700  0.2186  0.4675
 9744SOL    HW132124   8.551   0.819   2.861 -1.6341  0.9180 -0.6656
 9744SOL    HW232125   8.624   0.893   2.971 -0.8137 -1.5500  0.5369
 9745SOL     OW32126   5.372   6.005   9.254  0.6022 -0.4812  0.3853
 9745SOL    HW132127   5.321   5.925   9.265 -0.9687  0.4341  0.0849
 9745SOL    HW232128   5.443   5.999   9.318 -0.1279 -1.6101  1.1021
 9746SOL     OW32129   7.690   2.396   7.621  0.4220  0.4690 -0.0478
 9746SOL    HW132130   7.696   2.410   7.716  1.5163  0.3496 -0.0929
 9746SOL    HW232131   7.771   2.431   7.586  0.8533 -1.1021 -0.7384
 9747SOL     OW32132   7.538   4.000   2.040  0.6457  0.4024 -0.3104
 9747SOL    HW132133   7.558   3.971   1.951 -0.2491 -3.1598  0.4810
 9747SOL    HW232134   7.584   3.938   2.097 -1.9412  0.0446  1.6015
 9748SOL     OW32135   8.328   6.074   1.318 -0.1739 -0.0646  0.2264
 9748SOL    HW132136   8.400   6.094   1.257 -1.0093 -0.5306 -0.9498
 9748SOL    HW232137   8.317   6.155   1.368  0.7873  0.2099  0.0234
 9749SOL     OW32138   9.378   1.520   2.381  0.2907  0.5410  0.2395
 9749SOL    HW132139   9.318   1.586   2.346  1.3380 -0.0177 -2.9232
 9749SOL    HW232140   9.341   1.436   2.351  0.9685 -0.0413  0.9858
 9750SOL     OW32141   9.353   4.280   8.512 -0.0346 -0.4353  0.3066
 9750SOL    HW132142   9.369   4.192   8.479 -0.1241 -0.6921  0.9278
 9750SOL    HW232143   9.409   4.288   8.589  0.1410  0.1365  0.1312
 9751SOL     OW32144   1.677   5.516   5.657 -0.6768  0.2299  0.1476
 9751SOL    HW132145   1.601   5.549   5.705 -0.6115  1.9514 -0.8579
 9751SOL    HW232146   1.647   5.512   5.566  0.4273  0.9573 -0.2657
 9752SOL     OW32147   5.428   5.303   3.206 -0.8179  0.2807  0.1803
 9752SOL    HW132148   5.357   5.256   3.249 -1.0804  1.2968  0.8786
 9752SOL    HW232149   5.386   5.380   3.167 -0.1661  0.6821  0.2637
 9753SOL     OW32150   6.949   6.017   0.926  0.1501 -0.5297  0.2868
 9753SOL    HW132151   7.021   5.999   0.865  0.5266  2.7609 -0.4009
 9753SOL    HW232152   6.942   5.937   0.978  0.6074 -3.0955 -3.2061
 9754SOL     OW32153   5.894   2.843   6.811 -0.5548 -0.2740 -0.2352
 9754SOL    HW132154   5.800   2.846   6.793 -0.3231  0.3377 -1.4516
 9754SOL    HW232155   5.911   2.752   6.833 -1.5596 -0.2408  0.7432
 9755SOL     OW32156   6.495   3.721   2.519  0.6593 -0.5487 -0.3205
 9755SOL    HW132157   6.562   3.788   2.534 -0.1095 -0.3129  2.8747
 9755SOL    HW232158   6.543   3.647   2.484  1.9772  0.7509 -1.4096
 9756SOL     OW32159   8.287   5.129   8.089  0.2601  0.0779  0.1129
 9756SOL    HW132160   8.353   5.167   8.031  0.3502  0.0835  0.2194
 9756SOL    HW232161   8.335   5.069   8.146 -0.0556 -1.1783 -0.8925
 9757SOL     OW32162   3.271   7.672   5.559  0.5712 -0.1377 -0.4728
 9757SOL    HW132163   3.351   7.721   5.578  0.7686  0.2931 -2.1823
 9757SOL    HW232164   3.245   7.633   5.642  1.7211  0.9567  0.4294
 9758SOL     OW32165   7.950   6.727   8.815  0.3993  1.1049  0.0858
 9758SOL    HW132166   7.895   6.780   8.873 -0.3822  1.1448 -0.6757
 9758SOL    HW232167   7.889   6.691   8.750  0.9857 -0.3366  0.2959
 9759SOL     OW32168   5.762   9.528   3.262  0.2259 -0.4322 -0.0093
 9759SOL    HW132169   5.703   9.594   3.225 -0.2574  0.1597  1.7094
 9759SOL    HW232170   5.848   9.550   3.225  0.0025  0.9443  0.2177
 9760SOL     OW32171   3.631   1.748   1.308  0.8738  0.4013 -0.6458
 9760SOL    HW132172   3.700   1.747   1.374  1.8749  0.4963 -1.6596
 9760SOL    HW232173   3.620   1.840   1.285 -0.0751  0.4610 -0.0294
 9761SOL     OW32174   7.126   8.101   4.069 -0.0041 -0.0614 -0.0741
 9761SOL    HW132175   7.195   8.115   4.004  0.7041 -1.9141  0.2293
 9761SOL    HW232176   7.047   8.136   4.028  0.7191  0.2020 -1.2864
 9762SOL     OW32177   7.726   2.326   6.561 -0.5910  0.0487  0.1632
 9762SOL    HW132178   7.643   2.313   6.607 -1.1259  0.6515 -0.5927
 9762SOL    HW232179   7.701   2.372   6.480  0.7446  2.6510  1.0946
 9763SOL     OW32180   6.348   0.115   4.096  0.8849  0.6464 -0.0821
 9763SOL    HW132181   6.267   0.127   4.146  1.3033  1.3501  0.4528
 9763SOL    HW232182   6.363   0.021   4.096 -1.3849  0.1840 -2.5308
 9764SOL     OW32183   6.358   5.810   1.111 -0.2691  0.2011 -0.3468
 9764SOL    HW132184   6.265   5.833   1.119 -0.8747 -1.7158 -1.1129
 9764SOL    HW232185   6.375   5.811   1.016  0.1793 -0.5486 -0.2800
 9765SOL     OW32186   3.904   6.539   2.972 -0.1564  0.0925 -0.2653
 9765SOL    HW132187   3.906   6.543   3.067  0.1037 -1.1177 -0.1969
 9765SOL    HW232188   3.958   6.463   2.950  0.4862  0.8540 -1.4250
 9766SOL     OW32189   2.253   2.960   4.085 -0.5526  0.2294 -0.9400
 9766SOL    HW132190   2.242   2.898   4.013 -3.1700 -0.2270 -0.2654
 9766SOL    HW232191   2.306   2.913   4.149  0.6143  0.1256 -1.9454
 9767SOL     OW32192   9.460   6.187   8.465 -0.4821 -0.0983  0.3999
 9767SOL    HW132193   9.491   6.210   8.378  1.7952 -1.5209  0.7513
 9767SOL    HW232194   9.453   6.271   8.511 -0.3612  0.5462 -0.7372
 9768SOL     OW32195   1.772   3.130   5.004  0.4591 -0.2579 -0.1934
 9768SOL    HW132196   1.743   3.094   4.920 -0.9031 -1.2100  0.6481
 9768SOL    HW232197   1.722   3.082   5.070  1.3676  0.5867  1.1720
 9769SOL     OW32198   3.044   4.325   2.213  0.0485 -0.1168 -0.4617
 9769SOL    HW132199   3.078   4.246   2.254 -1.8556 -0.0963  1.3603
 9769SOL    HW232200   3.113   4.390   2.225  0.4449 -0.7236  0.7753
 9770SOL     OW32201   5.671   2.140   0.856 -0.4957  0.0942 -0.2864
 9770SOL    HW132202   5.725   2.074   0.812 -0.4012  0.1378 -0.2351
 9770SOL    HW232203   5.605   2.164   0.790  1.3015  2.2068 -1.4696
 9771SOL     OW32204   3.713   7.342   2.102  0.3041 -0.3619  0.3771
 9771SOL    HW132205   3.670   7.305   2.179  1.9111 -1.0646  0.9717
 9771SOL    HW232206   3.799   7.301   2.100  0.9306  0.9260 -0.8341
 9772SOL     OW32207   8.266   0.012   5.828 -0.1976  0.1451  0.8207
 9772SOL    HW132208   8.215   0.072   5.883 -0.0217  2.3578 -1.2697
 9772SOL    HW232209   8.343   0.063   5.803 -0.2692 -0.7492 -1.4523
 9773SOL     OW32210   2.898   4.290   1.470 -0.3682  0.5598  0.1291
 9773SOL    HW132211   2.947   4.339   1.536  1.7117 -1.6323  0.3461
 9773SOL    HW232212   2.830   4.245   1.518  1.7232 -1.7945  1.0885
 9774SOL     OW32213   5.858   9.531   2.920  0.0146  0.2882  0.0936
 9774SOL    HW132214   5.863   9.603   2.983  0.0766 -0.1097  0.5495
 9774SOL    HW232215   5.828   9.456   2.972  1.5789 -0.4440 -0.0061
 9775SOL     OW32216   2.611   7.281   0.756 -0.1254 -0.2775 -0.1870
 9775SOL    HW132217   2.637   7.372   0.769  2.1050 -0.6571 -1.3921
 9775SOL    HW232218   2.515   7.282   0.755 -0.1474  1.9570  0.2998
 9776SOL     OW32219   2.150   5.411   4.939 -0.0397  0.0530  0.0442
 9776SOL    HW132220   2.061   5.376   4.932  0.0184 -0.1207  0.1678
 9776SOL    HW232221   2.186   5.405   4.850  0.2726 -1.0126  0.2294
 9777SOL     OW32222   6.597   1.844   7.502 -0.5167  0.3912 -0.3120
 9777SOL    HW132223   6.589   1.775   7.437  2.4637 -1.3033  0.9101
 9777SOL    HW232224   6.646   1.913   7.457  1.7507 -0.8747  0.0286
 9778SOL     OW32225   4.384   3.413   1.689  0.2058 -0.2657  0.2420
 9778SOL    HW132226   4.474   3.445   1.693 -0.2981  1.1874  0.4648
 9778SOL    HW232227   4.392   3.317   1.691  1.7739 -0.1822 -0.5429
 9779SOL     OW32228   6.132   8.107   5.901 -0.1918 -0.1093 -0.4451
 9779SOL    HW132229   6.095   8.129   5.815 -0.3187  1.2837 -0.0739
 9779SOL    HW232230   6.208   8.165   5.910 -0.5121  0.1854  0.5925
 9780SOL     OW32231   6.331   3.328   4.044  0.0724  0.5249  0.0519
 9780SOL    HW132232   6.360   3.330   3.953 -0.3801 -0.0488 -0.1073
 9780SOL    HW232233   6.242   3.362   4.042 -0.8935 -1.8448 -0.1009
 9781SOL     OW32234   1.413   0.097   5.005 -0.1574  0.8059 -0.4735
 9781SOL    HW132235   1.346   0.056   4.951 -0.7665  0.2610  0.6576
 9781SOL    HW232236   1.367   0.124   5.084  1.0061  0.0223  0.5171
 9782SOL     OW32237   1.396   0.789   3.733 -0.3149  0.0701 -0.2086
 9782SOL    HW132238   1.329   0.836   3.782 -0.0947  2.0786 -1.6729
 9782SOL    HW232239   1.350   0.754   3.657  0.1589  1.1559 -1.0348
 9783SOL     OW32240   7.651   0.330   2.882 -0.3520  0.3957 -0.0372
 9783SOL    HW132241   7.606   0.281   2.814 -0.0937 -0.8690  0.6655
 9783SOL    HW232242   7.674   0.413   2.841 -0.6143 -0.1481 -1.3342
 9784SOL     OW32243   1.964   3.108   4.488  0.0184  0.0852  0.4166
 9784SOL    HW132244   2.012   3.144   4.413  1.6772  2.8453  2.6152
 9784SOL    HW232245   1.991   3.017   4.492  1.0850  0.2691 -1.4149
 9785SOL     OW32246   3.778   8.398   4.320  0.2598 -0.7370 -0.4390
 9785SOL    HW132247   3.841   8.345   4.368  1.3404 -0.2138 -1.2318
 9785SOL    HW232248   3.728   8.444   4.388  3.0176  1.4819  0.2607
 9786SOL     OW32249   7.394   7.658   5.274 -0.3541  0.0132  0.2097
 9786SOL    HW132250   7.423   7.707   5.351  2.0873  3.5509 -2.6225
 9786SOL    HW232251   7.434   7.571   5.285 -1.2933 -0.1455  3.4669
 9787SOL     OW32252   5.344   4.174   3.729 -0.4908  0.1771 -0.3599
 9787SOL    HW132253   5.342   4.187   3.824 -2.6628 -0.7467 -0.2252
 9787SOL    HW232254   5.404   4.101   3.716  0.4638  0.8364  0.1966
 9788SOL     OW32255   1.301   4.359   8.256  0.4923  0.3749 -0.2831
 9788SOL    HW132256   1.243   4.312   8.317  0.6027  1.1009  0.3971
 9788SOL    HW232257   1.376   4.300   8.244  0.2153 -0.0120 -0.1498
 9789SOL     OW32258   2.018   6.207   1.422 -0.6748  0.0684 -0.2667
 9789SOL    HW132259   1.959   6.283   1.424  0.1980  1.0001 -3.6790
 9789SOL    HW232260   2.106   6.245   1.412 -0.1353 -1.3542 -1.2232
 9790SOL     OW32261   5.548   5.434   5.637  0.6067  0.4565 -0.2237
 9790SOL    HW132262   5.617   5.376   5.670 -1.0880 -0.1246  2.7028
 9790SOL    HW232263   5.502   5.381   5.572 -0.9777 -1.7472  2.4727
 9791SOL     OW32264   7.856   3.395   0.772  0.1673  0.3103 -0.0613
 9791SOL    HW132265   7.859   3.471   0.713 -0.9593  0.5086  0.1100
 9791SOL    HW232266   7.936   3.403   0.825  1.0367  0.3043 -1.3190
 9792SOL     OW32267   1.503   0.225   6.098  0.2197  0.0662 -0.5560
 9792SOL    HW132268   1.569   0.283   6.136  0.3569 -0.0232 -0.6587
 9792SOL    HW232269   1.422   0.251   6.141  0.3360  0.1175 -0.3640
 9793SOL     OW32270   7.055   7.101   6.144 -0.1504 -0.1839 -0.0642
 9793SOL    HW132271   7.056   7.128   6.236 -1.4888  1.5214 -0.5123
 9793SOL    HW232272   7.145   7.073   6.127  0.1169 -0.5692  1.7517
 9794SOL     OW32273   8.817   6.996   6.097 -0.6345  0.2027  0.1100
 9794SOL    HW132274   8.816   6.901   6.111 -1.3212 -0.1020 -1.7866
 9794SOL    HW232275   8.749   7.029   6.155 -0.2790 -0.4367  0.9125
 9795SOL     OW32276   0.477   0.271   0.355  0.0186  0.0539  0.0826
 9795SOL    HW132277   0.483   0.266   0.259 -1.9047  0.1569 -0.0870
 9795SOL    HW232278   0.488   0.181   0.384 -0.3110 -0.1128 -0.3011
 9796SOL     OW32279   7.640   0.406   5.738  0.5963  0.5189 -0.5603
 9796SOL    HW132280   7.711   0.468   5.753  1.3203 -0.2536 -0.7243
 9796SOL    HW232281   7.615   0.377   5.825 -0.3980  1.7334 -0.4142
 9797SOL     OW32282   7.002   7.018   7.942  0.1859  0.5636  0.0023
 9797SOL    HW132283   7.052   7.020   8.024  1.9609 -0.8185 -0.9774
 9797SOL    HW232284   6.922   6.969   7.964  0.7068  0.0744  0.8644
 9798SOL     OW32285   3.664   6.750   8.091  0.4736  0.1562  0.1418
 9798SOL    HW132286   3.739   6.749   8.031  0.3139 -0.5624 -0.0588
 9798SOL    HW232287   3.698   6.790   8.171  1.3637 -1.0593  0.4067
 9799SOL     OW32288   4.154   0.458   1.734  0.1332 -0.0987  0.2105
 9799SOL    HW132289   4.166   0.553   1.733  1.6105 -0.2201 -2.4302
 9799SOL    HW232290   4.197   0.430   1.815  0.2214  1.4040  0.7224
 9800SOL     OW32291   3.735   3.528   0.686  0.6958 -0.3387  0.1428
 9800SOL    HW132292   3.796   3.601   0.675  3.0358 -2.3257 -1.4703
 9800SOL    HW232293   3.686   3.526   0.604  0.6720 -0.5655  0.1610
 9801SOL     OW32294   8.606   1.272   8.648  0.5965  0.4447 -0.2241
 9801SOL    HW132295   8.623   1.186   8.687 -2.0267  0.9455  2.3174
 9801SOL    HW232296   8.540   1.255   8.580  0.3919  0.4057 -0.0158
 9802SOL     OW32297   4.267   3.909   0.144  0.0146 -0.1712 -0.1566
 9802SOL    HW132298   4.196   3.962   0.182  0.1557 -1.4925  2.0795
 9802SOL    HW232299   4.346   3.941   0.187  0.4436 -0.4212 -0.7548
 9803SOL     OW32300   8.524   4.913   9.289  0.5844  0.0592  0.3504
 9803SOL    HW132301   8.452   4.851   9.307 -0.0843  0.4425 -0.8646
 9803SOL    HW232302   8.597   4.857   9.261  1.3722 -0.4747  3.2064
 9804SOL     OW32303   8.178   5.640   7.072  0.1090  0.2883  0.3409
 9804SOL    HW132304   8.165   5.555   7.030 -1.9522  1.2039 -1.0439
 9804SOL    HW232305   8.198   5.700   6.999  0.2854  1.2279  1.1381
 9805SOL     OW32306   9.513   6.788   5.952  0.0819  0.3173  0.4517
 9805SOL    HW132307   9.517   6.883   5.958  0.0229  0.3939 -0.5252
 9805SOL    HW232308   9.566   6.756   6.025  3.9343  1.1389 -1.6795
 9806SOL     OW32309   7.983   1.177   9.324 -0.3945 -1.0540  0.4289
 9806SOL    HW132310   7.907   1.233   9.337  0.4165 -0.0080  0.8439
 9806SOL    HW232311   7.950   1.088   9.336 -1.5252 -0.6144  0.6787
 9807SOL     OW32312   3.232   9.134   7.203 -0.1734 -0.2284 -0.5483
 9807SOL    HW132313   3.231   9.229   7.216  0.1222 -0.3811  0.7816
 9807SOL    HW232314   3.146   9.105   7.233 -0.2958 -0.3702 -1.0376
 9808SOL     OW32315   2.561   3.982   7.793 -0.2689 -0.1010 -0.5352
 9808SOL    HW132316   2.629   3.987   7.860  0.6629 -2.0240 -1.2758
 9808SOL    HW232317   2.587   4.045   7.727 -2.0151  3.0210  1.4664
 9809SOL     OW32318   8.872   0.666   4.905 -0.0633 -0.6316  0.3467
 9809SOL    HW132319   8.955   0.714   4.910 -0.1495 -0.1882 -1.5222
 9809SOL    HW232320   8.819   0.717   4.843 -1.6287 -1.0792  1.2624
 9810SOL     OW32321   0.378   7.893   2.425  0.7613 -0.7457  0.0332
 9810SOL    HW132322   0.454   7.939   2.462  0.9331 -1.9250  1.2323
 9810SOL    HW232323   0.303   7.932   2.469  0.5312  1.0576 -1.8132
 9811SOL     OW32324   6.761   5.993   6.513 -0.3026  0.2741  0.5906
 9811SOL    HW132325   6.804   5.989   6.428  1.5112 -1.1705  1.4983
 9811SOL    HW232326   6.749   6.087   6.530  2.0123  0.7253  0.0156
 9812SOL     OW32327   4.829   1.708   1.549  0.4543  0.5571 -0.6790
 9812SOL    HW132328   4.872   1.626   1.523  0.1892  0.6755 -1.5092
 9812SOL    HW232329   4.744   1.705   1.505 -0.9675 -0.2599  1.9287
 9813SOL     OW32330   1.648   1.573   6.613  0.2998 -0.1391  0.3562
 9813SOL    HW132331   1.723   1.593   6.669  0.4805 -0.3911  0.2058
 9813SOL    HW232332   1.592   1.518   6.667 -0.1486  0.6681  0.7350
 9814SOL     OW32333   3.396   3.260   3.615  0.5357  0.3206 -0.0922
 9814SOL    HW132334   3.370   3.265   3.523  0.5728  0.9192 -0.0747
 9814SOL    HW232335   3.313   3.257   3.663  0.5177 -0.5204 -0.1662
 9815SOL     OW32336   3.238   5.353   6.188 -0.5006 -0.5954 -0.4395
 9815SOL    HW132337   3.295   5.325   6.115  0.8857 -1.8189  1.0357
 9815SOL    HW232338   3.192   5.430   6.154  3.2849  1.5723 -1.2329
 9816SOL     OW32339   6.051   9.539   3.557  0.3308  0.5441  0.2944
 9816SOL    HW132340   6.004   9.614   3.522 -1.6314 -0.5575  0.4044
 9816SOL    HW232341   6.100   9.504   3.483  1.8614  2.3003  0.4157
 9817SOL     OW32342   4.840   1.944   1.147  0.7194  0.4694  0.0405
 9817SOL    HW132343   4.767   1.976   1.092  1.5902 -1.1525 -2.2061
 9817SOL    HW232344   4.800   1.930   1.233 -1.2880  0.9191 -0.7427
 9818SOL     OW32345   0.696   5.762   5.857 -0.6044  0.0410 -0.7186
 9818SOL    HW132346   0.738   5.736   5.938 -1.3442  0.1423 -0.2967
 9818SOL    HW232347   0.643   5.686   5.831 -2.0534  0.7429  0.0425
 9819SOL     OW32348   4.339   7.146   0.446 -0.2149  0.7746 -0.6737
 9819SOL    HW132349   4.321   7.237   0.470 -1.3251  1.1987 -2.8816
 9819SOL    HW232350   4.371   7.150   0.356 -0.4022 -1.0273 -0.8615
 9820SOL     OW32351   2.671   6.738   4.056 -0.2986 -0.1446  0.5055
 9820SOL    HW132352   2.618   6.689   4.118 -0.9246  0.9448  0.8677
 9820SOL    HW232353   2.610   6.800   4.016  0.0432 -0.9063 -1.3302
 9821SOL     OW32354   6.078   5.028   2.777  0.5299 -0.3115 -0.2079
 9821SOL    HW132355   6.118   4.945   2.803 -0.4673 -0.9182 -0.5358
 9821SOL    HW232356   6.086   5.030   2.682  0.7478  0.0815 -0.1827
 9822SOL     OW32357   4.745   3.801   3.140 -0.3639 -0.1954  0.7650
 9822SOL    HW132358   4.822   3.839   3.181 -0.0689  2.1862 -1.7592
 9822SOL    HW232359   4.773   3.713   3.114  0.8533 -0.0706  1.5862
 9823SOL     OW32360   2.789   1.272   9.399  0.1872  0.2734  1.5030
 9823SOL    HW132361   2.877   1.307   9.386  0.6275 -1.3539 -0.6520
 9823SOL    HW232362   2.802   1.177   9.408 -1.3550 -0.1230  0.1694
 9824SOL     OW32363   7.944   1.668   8.268 -0.3237 -0.2098 -0.0009
 9824SOL    HW132364   7.898   1.584   8.261  1.5071 -1.2412 -0.3449
 9824SOL    HW232365   7.963   1.693   8.178 -1.1617  0.7765  0.0813
 9825SOL     OW32366   3.456   9.575   5.307  0.3630 -0.3633 -0.0603
 9825SOL    HW132367   3.467   9.496   5.360  0.7643  0.6252  1.3847
 9825SOL    HW232368   3.524   9.635   5.339  1.6682 -0.2232 -2.7253
 9826SOL     OW32369   2.110   2.183   8.549  0.4865 -0.0835 -0.2962
 9826SOL    HW132370   2.096   2.171   8.455  1.3366 -1.0443 -0.3207
 9826SOL    HW232371   2.196   2.145   8.566 -0.1174 -0.9439  1.0570
 9827SOL     OW32372   3.327   6.015   6.623  0.0996 -0.3555  0.1322
 9827SOL    HW132373   3.311   6.028   6.716  0.9867  0.1825  0.2208
 9827SOL    HW232374   3.320   6.103   6.585 -0.9501 -0.6637 -0.4277
 9828SOL     OW32375   6.362   6.923   6.871 -0.1277 -0.3459  0.8332
 9828SOL    HW132376   6.361   6.988   6.801 -1.4214 -1.5903 -0.3879
 9828SOL    HW232377   6.296   6.954   6.933 -1.4562 -0.8994 -0.2257
 9829SOL     OW32378   6.791   1.311   1.736  0.2675 -0.1668  0.6007
 9829SOL    HW132379   6.753   1.379   1.792 -1.6358  0.7798 -1.6463
 9829SOL    HW232380   6.826   1.360   1.661  1.7198 -1.4585  0.3915
 9830SOL     OW32381   7.026   1.051   9.085 -0.0074  0.0730  0.3173
 9830SOL    HW132382   7.117   1.081   9.086  0.7737 -2.1040  1.5262
 9830SOL    HW232383   7.001   1.052   8.993  0.4893  2.6500  0.1306
 9831SOL     OW32384   6.810   0.822   3.967  0.4770  0.0496  0.0809
 9831SOL    HW132385   6.862   0.825   3.887  2.4716 -0.8649  1.2620
 9831SOL    HW232386   6.874   0.834   4.037 -0.6959 -2.3247  1.6892
 9832SOL     OW32387   5.349   4.560   2.959  0.2528 -0.9255 -0.1164
 9832SOL    HW132388   5.276   4.618   2.980  0.8104 -0.1384 -0.3309
 9832SOL    HW232389   5.316   4.505   2.888 -0.4257 -1.1821  0.3842
 9833SOL     OW32390   6.820   3.594   3.248  0.0707  0.0246 -0.2041
 9833SOL    HW132391   6.782   3.507   3.265 -1.3433  0.6154 -0.1624
 9833SOL    HW232392   6.862   3.618   3.330 -0.7842 -0.0325  0.2674
 9834SOL     OW32393   4.774   3.589   0.276  0.2217 -0.3383 -0.9233
 9834SOL    HW132394   4.734   3.510   0.239  0.7656 -1.0734  0.0311
 9834SOL    HW232395   4.727   3.604   0.358 -2.2437  2.3353 -2.6168
 9835SOL     OW32396   3.517   9.477   7.559  0.7997 -0.3599  0.1140
 9835SOL    HW132397   3.503   9.410   7.493  3.2022 -1.9744  1.1041
 9835SOL    HW232398   3.576   9.437   7.623 -0.8199  1.3292  2.9234
 9836SOL     OW32399   5.686   9.538   6.633  0.0459 -0.1777 -0.1974
 9836SOL    HW132400   5.758   9.600   6.638  1.4041 -1.7421  1.0475
 9836SOL    HW232401   5.728   9.452   6.642 -1.9829 -1.1352  0.9729
 9837SOL     OW32402   8.451   4.623   9.571 -0.2455 -0.1310 -0.6225
 9837SOL    HW132403   8.391   4.592   9.638 -0.8504  0.1371 -1.0366
 9837SOL    HW232404   8.518   4.554   9.565  0.3186  0.2505  0.8795
 9838SOL     OW32405   6.663   0.626   9.368 -0.3526 -0.1114 -0.2281
 9838SOL    HW132406   6.621   0.606   9.284 -2.6851  1.1816  0.5414
 9838SOL    HW232407   6.614   0.575   9.432  0.3553  0.1570  0.5450
 9839SOL     OW32408   1.680   5.110   1.139  0.3467 -0.6681  0.2595
 9839SOL    HW132409   1.663   5.180   1.203  1.9668 -0.3476  0.3781
 9839SOL    HW232410   1.729   5.152   1.069 -0.6453 -1.2171 -0.8051
 9840SOL     OW32411   9.170   6.216   8.443 -0.6138  0.3872  0.0329
 9840SOL    HW132412   9.185   6.126   8.416  2.4012  0.3826  1.3310
 9840SOL    HW232413   9.218   6.269   8.379 -1.1233  0.9785  0.1304
 9841SOL     OW32414   5.050   1.097   4.223  0.5779  0.3164 -0.5182
 9841SOL    HW132415   5.036   1.070   4.132 -3.0063 -0.1454  0.0296
 9841SOL    HW232416   5.122   1.040   4.253 -0.1039 -1.6085 -2.2438
 9842SOL     OW32417   5.273   9.550   0.784  0.2789  0.1824 -0.2494
 9842SOL    HW132418   5.301   9.639   0.760  0.8976 -0.3161 -1.5119
 9842SOL    HW232419   5.211   9.525   0.715 -0.9360  0.1064  0.8249
 9843SOL     OW32420   3.930   2.505   6.904  0.0265  0.2641  0.2158
 9843SOL    HW132421   4.023   2.526   6.913  0.4892 -0.7714 -1.6732
 9843SOL    HW232422   3.925   2.410   6.915 -0.4152 -0.0288 -2.0035
 9844SOL     OW32423   7.700   5.138   3.250  0.3138 -0.1112  0.0064
 9844SOL    HW132424   7.762   5.108   3.317 -0.4139 -0.0527  0.7199
 9844SOL    HW232425   7.666   5.057   3.211  0.8914 -0.1423 -0.4369
 9845SOL     OW32426   6.732   0.939   7.942 -0.5814 -0.7295  0.1710
 9845SOL    HW132427   6.668   0.949   8.013 -0.1961 -1.9650  0.7281
 9845SOL    HW232428   6.715   1.012   7.883 -1.8867 -0.5120  0.7908
 9846SOL     OW32429   0.672   7.653   2.058  0.0481  0.2615 -0.2311
 9846SOL    HW132430   0.605   7.686   2.119  0.7084  1.3650 -0.0786
 9846SOL    HW232431   0.623   7.635   1.978 -0.7566 -0.7848  0.4570
 9847SOL     OW32432   1.576   1.164   8.668  0.0913  0.1137  0.1358
 9847SOL    HW132433   1.553   1.177   8.760 -0.6216  0.3342 -0.0657
 9847SOL    HW232434   1.615   1.247   8.641  0.3682  0.0240  0.2566
 9848SOL     OW32435   4.643   9.280   6.294 -0.6731 -0.5276 -0.7443
 9848SOL    HW132436   4.726   9.234   6.281  0.0220 -0.3161  2.2520
 9848SOL    HW232437   4.634   9.335   6.216  1.4969 -1.2757 -1.6010
 9849SOL     OW32438   3.420   6.171   1.067 -0.4448 -0.4808  0.1479
 9849SOL    HW132439   3.327   6.190   1.083 -0.1757  0.4114  0.7612
 9849SOL    HW232440   3.464   6.254   1.085  0.4613 -0.8579 -0.2845
 9850SOL     OW32441   5.300   6.847   3.057  0.5112 -0.3408 -0.1534
 9850SOL    HW132442   5.293   6.768   3.003  0.6590 -0.6029  0.2063
 9850SOL    HW232443   5.394   6.859   3.069  0.6527  1.2582 -2.1777
 9851SOL     OW32444   1.757   6.153   2.369  0.0425  0.1870  0.8718
 9851SOL    HW132445   1.748   6.059   2.354  0.3885  0.5564 -2.1715
 9851SOL    HW232446   1.842   6.163   2.412  1.1320 -0.7543 -0.9697
 9852SOL     OW32447   0.775   0.966   3.931 -0.7329 -0.7443 -0.5867
 9852SOL    HW132448   0.850   1.007   3.973 -0.5240 -4.3873  3.2971
 9852SOL    HW232449   0.699   1.010   3.971 -0.6281 -0.2447 -0.9262
 9853SOL     OW32450   2.653   1.301   0.612 -0.1939  0.7790 -0.7273
 9853SOL    HW132451   2.609   1.376   0.652  2.3478  1.0888  1.7980
 9853SOL    HW232452   2.614   1.294   0.525 -2.1331  3.5725 -0.2183
 9854SOL     OW32453   4.771   7.993   6.623 -0.4439 -0.2111 -0.2434
 9854SOL    HW132454   4.820   8.073   6.607 -1.0279  0.3896  0.8072
 9854SOL    HW232455   4.725   8.010   6.705  1.0762 -2.4265  1.1599
 9855SOL     OW32456   4.349   5.167   5.718  0.5654  0.5973  0.7366
 9855SOL    HW132457   4.402   5.128   5.648 -1.3805 -1.9458  0.5684
 9855SOL    HW232458   4.299   5.236   5.674 -1.1152 -1.3887 -0.6514
 9856SOL     OW32459   8.849   0.945   3.019 -0.4324  0.1033  0.2530
 9856SOL    HW132460   8.923   0.890   3.046 -0.8292 -0.2228  0.7034
 9856SOL    HW232461   8.794   0.950   3.098 -0.2915  1.3351  0.2857
 9857SOL     OW32462   9.193   0.720   6.512  0.0054  0.1165 -0.1844
 9857SOL    HW132463   9.164   0.733   6.602 -2.1254  1.4801 -0.9786
 9857SOL    HW232464   9.245   0.798   6.492 -0.7384  0.5269 -0.5546
 9858SOL     OW32465   0.087   9.263   4.312  0.3522 -0.1665  0.4074
 9858SOL    HW132466   0.026   9.334   4.297 -0.2013 -0.3855  1.5642
 9858SOL    HW232467   0.078   9.207   4.235  0.6454  0.8847 -0.4128
 9859SOL     OW32468   0.631   6.132   2.488  0.0307 -0.3080 -0.4512
 9859SOL    HW132469   0.615   6.220   2.521  0.4002 -0.1617 -0.6585
 9859SOL    HW232470   0.568   6.077   2.534  0.4388 -0.0867  0.3893
 9860SOL     OW32471   3.393   7.614   1.972 -0.1004  0.0939  0.3612
 9860SOL    HW132472   3.460   7.673   1.938 -1.3028  1.6899  0.5992
 9860SOL    HW232473   3.371   7.650   2.058 -1.6595  0.0161  0.0371
 9861SOL     OW32474   0.374   7.274   5.034  0.3119  0.2434  0.3323
 9861SOL    HW132475   0.308   7.245   5.096 -1.5539  1.4664 -0.9486
 9861SOL    HW232476   0.399   7.362   5.065 -1.3370  1.2717 -1.0477
 9862SOL     OW32477   2.109   0.873   5.089  0.0213  0.1600  0.5148
 9862SOL    HW132478   2.169   0.899   5.018  0.2565  0.2376  0.7404
 9862SOL    HW232479   2.091   0.781   5.072  1.8167 -0.4363  1.5818
 9863SOL     OW32480   7.068   3.945   3.938  0.0816 -0.1775 -0.1105
 9863SOL    HW132481   7.019   3.882   3.886 -0.1766 -0.2172  0.1778
 9863SOL    HW232482   7.158   3.911   3.939 -0.1138 -0.6961  0.2822
 9864SOL     OW32483   4.701   9.462   3.433  0.6910 -0.4774  0.3795
 9864SOL    HW132484   4.700   9.386   3.490  1.8987 -0.4173  0.4994
 9864SOL    HW232485   4.759   9.525   3.477  1.6941 -0.4503 -0.9241
 9865SOL     OW32486   3.575   8.842   2.185 -0.0231  0.5018 -0.3936
 9865SOL    HW132487   3.664   8.831   2.152  0.0380 -1.8924  0.3316
 9865SOL    HW232488   3.519   8.832   2.108  0.3054  2.8777 -0.9997
 9866SOL     OW32489   2.711   4.206   5.496 -0.1050 -0.3631 -0.5086
 9866SOL    HW132490   2.698   4.169   5.409  1.1448 -3.2648  0.4215
 9866SOL    HW232491   2.791   4.257   5.489  0.1231 -0.7786 -0.9967
 9867SOL     OW32492   9.626   2.141   1.666 -0.3948  0.2746 -0.5882
 9867SOL    HW132493   9.558   2.197   1.705 -0.5544 -0.4759  0.2377
 9867SOL    HW232494   9.708   2.185   1.688 -0.2008 -1.6497  3.4392
 9868SOL     OW32495   0.762   6.502   0.751  0.2913  0.6099  0.1367
 9868SOL    HW132496   0.710   6.581   0.736 -0.0379  0.4383  0.3562
 9868SOL    HW232497   0.700   6.430   0.737  0.0496  0.4259  1.9510
 9869SOL     OW32498   1.894   0.098   8.259  0.3083 -0.0794  1.0366
 9869SOL    HW132499   1.983   0.062   8.252  0.6241  0.9968 -1.6480
 9869SOL    HW232500   1.849   0.067   8.181 -0.7080  1.8926  0.7828
 9870SOL     OW32501   8.816   3.146   4.161 -0.2082  0.3203 -0.0796
 9870SOL    HW132502   8.759   3.073   4.183  0.9330 -1.2372 -1.9027
 9870SOL    HW232503   8.790   3.171   4.072  0.1914  1.3421  0.0762
 9871SOL     OW32504   3.347   5.200   2.546 -0.4402  0.1113  0.5147
 9871SOL    HW132505   3.382   5.269   2.488  0.5931 -0.4452  0.4476
 9871SOL    HW232506   3.289   5.246   2.606  1.8042  1.4249  1.8094
 9872SOL     OW32507   6.732   7.982   1.484  0.4022 -0.0618  0.5857
 9872SOL    HW132508   6.721   7.999   1.390 -0.2303 -1.5029  0.3598
 9872SOL    HW232509   6.778   7.898   1.487  0.4490 -0.0120  1.5735
 9873SOL     OW32510   3.738   9.265   2.484 -0.6125  0.1869  0.5313
 9873SOL    HW132511   3.693   9.183   2.501  0.7316 -0.5124  0.8862
 9873SOL    HW232512   3.671   9.332   2.492 -1.4934 -0.7763  1.4224
 9874SOL     OW32513   9.357   5.246   3.007 -0.5686  0.0742  0.6972
 9874SOL    HW132514   9.300   5.266   2.932  1.3140  2.0973 -0.3075
 9874SOL    HW232515   9.424   5.187   2.972 -0.0509  0.5022  0.9590
 9875SOL     OW32516   6.871   8.903   7.720  0.4414  0.4998 -0.7925
 9875SOL    HW132517   6.880   8.904   7.625  1.5963  2.4931 -0.7165
 9875SOL    HW232518   6.791   8.954   7.737 -0.5850 -1.0567 -0.6965
 9876SOL     OW32519   0.896   3.390   8.867  0.0668 -0.4763 -0.1260
 9876SOL    HW132520   0.951   3.400   8.789 -1.2092 -0.4662 -1.0633
 9876SOL    HW232521   0.812   3.359   8.833 -0.6674 -0.0218  1.2069
 9877SOL     OW32522   9.602   7.224   1.485  0.7123  0.0521 -0.0963
 9877SOL    HW132523   9.575   7.133   1.489  1.8217 -0.3013 -0.3827
 9877SOL    HW232524   9.692   7.222   1.452  0.5950  1.2761 -0.5547
 9878SOL     OW32525   7.103   7.532   3.799 -0.2213 -0.6657 -0.6786
 9878SOL    HW132526   7.041   7.462   3.779 -0.6936 -0.3297 -0.4116
 9878SOL    HW232527   7.109   7.582   3.717 -2.1326  0.6918 -0.0798
 9879SOL     OW32528   2.699   0.620   6.948  0.3193  0.3789 -0.1097
 9879SOL    HW132529   2.767   0.653   6.889  2.0440 -1.9771  0.3989
 9879SOL    HW232530   2.743   0.612   7.033 -0.5340 -1.2825  0.2240
 9880SOL     OW32531   3.497   1.635   2.204  0.4303 -0.5940 -0.8046
 9880SOL    HW132532   3.505   1.569   2.273 -0.8692  0.5695  0.5289
 9880SOL    HW232533   3.574   1.691   2.216  0.4777 -0.6934 -0.6368
 9881SOL     OW32534   1.929   2.011   3.228  0.0534  0.0205  0.1755
 9881SOL    HW132535   1.872   2.034   3.301 -0.2509  0.4236 -0.1846
 9881SOL    HW232536   1.895   1.926   3.198 -0.4843  0.3515 -0.1612
 9882SOL     OW32537   5.339   3.156   7.392  0.1065  0.4432  0.2005
 9882SOL    HW132538   5.274   3.168   7.323  1.6298 -1.1378 -1.5984
 9882SOL    HW232539   5.288   3.132   7.469 -1.5272  0.6642 -0.7677
 9883SOL     OW32540   6.112   6.335   1.457  0.2903 -0.1639  0.0379
 9883SOL    HW132541   6.125   6.308   1.548 -0.4083  1.8842  0.7974
 9883SOL    HW232542   6.165   6.273   1.406  0.8535 -1.2390  1.8327
 9884SOL     OW32543   9.166   2.375   5.654 -0.3047  0.7423 -0.0946
 9884SOL    HW132544   9.204   2.444   5.600 -0.8635  0.7203 -0.5207
 9884SOL    HW232545   9.215   2.296   5.631 -1.8971  0.2729 -2.1548
 9885SOL     OW32546   7.424   9.511   6.183  0.7624  0.0271  0.3837
 9885SOL    HW132547   7.480   9.460   6.124  1.7194  0.4438  0.8956
 9885SOL    HW232548   7.427   9.600   6.149  0.4400  0.0577  0.4369
 9886SOL     OW32549   2.409   1.354   2.798 -0.0735 -0.2474 -0.1753
 9886SOL    HW132550   2.408   1.259   2.787  0.1218 -0.3228  0.4328
 9886SOL    HW232551   2.378   1.369   2.887  1.0235  0.1846  0.1539
 9887SOL     OW32552   2.637   8.173   1.206 -0.0776 -0.7144  0.3033
 9887SOL    HW132553   2.677   8.258   1.191 -0.5565 -0.5758 -0.2426
 9887SOL    HW232554   2.708   8.110   1.197  0.1507 -0.4211  0.0588
 9888SOL     OW32555   6.917   5.927   2.165  0.0909  0.0841 -0.0930
 9888SOL    HW132556   6.902   6.006   2.216  1.0186  0.2378 -0.0248
 9888SOL    HW232557   6.909   5.855   2.228 -0.5940  0.1280 -0.1235
 9889SOL     OW32558   2.664   1.909   2.915  0.2436  0.0559 -0.4301
 9889SOL    HW132559   2.569   1.904   2.908  0.2684  0.0728 -0.8016
 9889SOL    HW232560   2.689   1.837   2.973 -0.0896  0.6876  0.5114
 9890SOL     OW32561   6.844   5.013   2.240 -0.2981  0.1088  0.2217
 9890SOL    HW132562   6.924   5.008   2.292  0.3452  0.7137 -0.6894
 9890SOL    HW232563   6.786   4.949   2.281 -0.0651  1.0095  2.0970
 9891SOL     OW32564   2.076   3.893   5.196 -0.0172 -0.2467 -0.0789
 9891SOL    HW132565   2.112   3.834   5.262 -0.3622  0.1696  0.4813
 9891SOL    HW232566   2.108   3.979   5.220  1.3610 -0.3038 -1.4903
 9892SOL     OW32567   4.691   2.029   0.868  0.1150 -0.0240 -0.1819
 9892SOL    HW132568   4.674   1.936   0.854  0.0342 -0.0111 -0.1704
 9892SOL    HW232569   4.784   2.039   0.848  0.5470 -0.4258  1.4418
 9893SOL     OW32570   6.998   8.922   0.537 -0.3091  0.1503  0.1129
 9893SOL    HW132571   6.916   8.944   0.582  0.7648 -0.9855  2.8372
 9893SOL    HW232572   7.064   8.975   0.581  0.5481  0.5101 -1.5580
 9894SOL     OW32573   0.017   0.573   7.253  0.3715 -0.1413 -0.4873
 9894SOL    HW132574   0.001   0.583   7.347 -0.8285 -0.3837 -0.6540
 9894SOL    HW232575   0.026   0.662   7.220  1.0519 -0.0619 -0.1135
 9895SOL     OW32576   7.252   3.764   4.594 -0.3156 -0.4298 -0.2762
 9895SOL    HW132577   7.228   3.779   4.686  0.3242  0.5115 -0.2418
 9895SOL    HW232578   7.344   3.738   4.597 -0.2982 -0.4128 -0.6399
 9896SOL     OW32579   4.777   1.995   4.980  0.6450 -0.6956 -0.2673
 9896SOL    HW132580   4.793   2.041   4.898  1.0709 -2.7616 -1.4301
 9896SOL    HW232581   4.818   2.050   5.047  1.0764  0.6082 -1.5394
 9897SOL     OW32582   5.334   5.504   1.363 -0.0310 -0.5566  0.0018
 9897SOL    HW132583   5.322   5.592   1.398 -3.2117  0.3510 -2.8429
 9897SOL    HW232584   5.388   5.517   1.285  4.2193 -2.0843  2.3980
 9898SOL     OW32585   9.186   5.751   4.819 -0.1679  0.2701  0.5049
 9898SOL    HW132586   9.172   5.671   4.870 -1.7974 -0.7340 -1.4084
 9898SOL    HW232587   9.268   5.786   4.853  0.1476 -1.7274  2.0128
 9899SOL     OW32588   4.369   8.103   4.763  0.2175  0.0907  0.2212
 9899SOL    HW132589   4.327   8.020   4.742 -0.6881  0.6963 -0.4043
 9899SOL    HW232590   4.440   8.079   4.823  0.8450 -1.2941 -1.0129
 9900SOL     OW32591   4.360   1.913   9.148  0.6338  0.0524  0.0298
 9900SOL    HW132592   4.359   1.818   9.147  1.8019 -0.0004  1.1165
 9900SOL    HW232593   4.453   1.936   9.154  0.3646  1.2639 -0.0815
 9901SOL     OW32594   2.386   5.229   7.349  0.2039 -0.1769 -0.3754
 9901SOL    HW132595   2.351   5.164   7.411 -0.8458 -0.3032 -1.0711
 9901SOL    HW232596   2.477   5.204   7.337 -0.1029 -1.3493 -0.3863
 9902SOL     OW32597   2.877   3.695   3.162  0.4700 -0.7671  0.2873
 9902SOL    HW132598   2.870   3.648   3.245 -0.0431  0.6644  1.0943
 9902SOL    HW232599   2.878   3.788   3.188 -1.1641 -0.2365 -1.3907
 9903SOL     OW32600   7.928   4.920   1.701 -0.0507  0.5695  0.4574
 9903SOL    HW132601   7.895   4.838   1.737 -1.1477  1.3983  1.3948
 9903SOL    HW232602   7.928   4.981   1.775  0.4569  1.5024 -0.2852
 9904SOL     OW32603   2.319   7.018   4.764 -0.1225  0.2164  0.4116
 9904SOL    HW132604   2.271   7.043   4.685  0.4901  0.0110 -0.0338
 9904SOL    HW232605   2.257   6.963   4.813  0.5393 -2.4503 -1.4989
 9905SOL     OW32606   8.884   4.289   3.580 -0.5035 -0.0715 -0.4495
 9905SOL    HW132607   8.971   4.250   3.576 -0.2943  0.1817  1.0563
 9905SOL    HW232608   8.891   4.370   3.528  1.2476  1.8177  2.4262
 9906SOL     OW32609   2.590   9.519   6.416  0.1300 -0.1295 -0.2140
 9906SOL    HW132610   2.531   9.506   6.342  0.7215 -2.5757 -0.3377
 9906SOL    HW232611   2.533   9.527   6.492 -0.4241 -1.3682 -0.4773
 9907SOL     OW32612   0.121   8.836   8.543 -0.0505 -0.5208  0.2993
 9907SOL    HW132613   0.101   8.814   8.452  0.2028  0.9249 -0.1361
 9907SOL    HW232614   0.036   8.848   8.585 -0.1702 -1.3491  0.3030
 9908SOL     OW32615   7.309   4.914   1.363 -0.5565  0.4455 -0.7310
 9908SOL    HW132616   7.365   4.862   1.421  0.0617  0.7210 -1.0719
 9908SOL    HW232617   7.269   4.849   1.304 -0.6608  0.2406 -0.4373
 9909SOL     OW32618   3.471   6.468   7.530 -0.2555 -0.5372  0.2763
 9909SOL    HW132619   3.555   6.514   7.535  0.3623 -1.6449  0.3865
 9909SOL    HW232620   3.483   6.404   7.460 -1.0014 -0.7209  0.3177
 9910SOL     OW32621   8.614   0.800   5.193  0.1532 -0.3532 -0.1466
 9910SOL    HW132622   8.667   0.847   5.128 -0.9451  0.0307 -0.7759
 9910SOL    HW232623   8.679   0.758   5.250  1.2436  2.3121  0.7862
 9911SOL     OW32624   3.467   4.355   5.416  0.5335  0.0425 -0.3357
 9911SOL    HW132625   3.375   4.365   5.392  0.4532 -1.0737 -0.5837
 9911SOL    HW232626   3.484   4.261   5.404  2.1827  0.5040 -2.0259
 9912SOL     OW32627   3.224   3.688   7.666  0.5831  0.0361  0.1099
 9912SOL    HW132628   3.278   3.656   7.738 -0.1440 -0.3350  0.5002
 9912SOL    HW232629   3.143   3.637   7.672  0.0335  0.8486 -0.2264
 9913SOL     OW32630   2.014   5.005   1.043 -0.0614 -0.3386 -0.2419
 9913SOL    HW132631   2.067   5.041   1.114 -1.3119  0.1520  0.4795
 9913SOL    HW232632   1.966   5.080   1.008 -0.7391 -0.8569 -0.4521
 9914SOL     OW32633   3.555   5.784   5.143 -0.2831 -0.3680  0.3216
 9914SOL    HW132634   3.518   5.705   5.181 -0.5832  0.7518  2.5748
 9914SOL    HW232635   3.569   5.842   5.219 -1.4337  2.2829 -1.3575
 9915SOL     OW32636   9.450   0.953   0.747 -0.1365 -0.3141 -0.2297
 9915SOL    HW132637   9.518   1.007   0.786 -0.0066 -0.0263 -0.8435
 9915SOL    HW232638   9.396   0.924   0.821  0.0783  0.2573  0.1508
 9916SOL     OW32639   3.873   5.837   2.406  0.0253 -0.1637 -0.3231
 9916SOL    HW132640   3.929   5.914   2.395 -0.1693  0.6254  3.0276
 9916SOL    HW232641   3.880   5.815   2.499 -3.7897 -1.1118 -0.0806
 9917SOL     OW32642   3.811   5.537   7.131  0.1889  0.6346  0.0126
 9917SOL    HW132643   3.816   5.537   7.036 -1.4229  2.1293 -0.0953
 9917SOL    HW232644   3.788   5.446   7.153  0.8120  0.2134 -0.9766
 9918SOL     OW32645   4.713   7.674   2.208  0.8990  0.1110 -0.3559
 9918SOL    HW132646   4.735   7.735   2.278  0.8957  1.2565 -1.3225
 9918SOL    HW232647   4.629   7.705   2.174  1.4320  0.2847 -1.5997
 9919SOL     OW32648   2.031   9.153   4.385  0.1079 -0.1283 -0.0752
 9919SOL    HW132649   1.986   9.080   4.426  0.9785 -0.5256  0.1914
 9919SOL    HW232650   1.963   9.197   4.333 -0.1922 -1.7894 -1.1630
 9920SOL     OW32651   3.195   4.422   5.325  0.6916  0.1769  0.1405
 9920SOL    HW132652   3.174   4.481   5.397  1.6598  0.2921  0.3398
 9920SOL    HW232653   3.110   4.395   5.290  0.2373  1.2423  0.4087
 9921SOL     OW32654   1.520   5.903   1.664  0.0013  0.7652 -0.0153
 9921SOL    HW132655   1.610   5.892   1.695 -0.0267  0.0309 -0.1729
 9921SOL    HW232656   1.506   5.828   1.606 -0.6363  1.0021 -0.1711
 9922SOL     OW32657   9.048   0.909   8.152  0.2004  0.2527  0.2380
 9922SOL    HW132658   9.046   0.860   8.235 -2.5108  0.2664  0.2659
 9922SOL    HW232659   9.057   0.841   8.085 -0.0731  0.0038  0.4468
 9923SOL     OW32660   2.148   6.381   3.051 -0.6201 -0.1677  0.1941
 9923SOL    HW132661   2.102   6.304   3.017  1.4725 -1.5927  0.3772
 9923SOL    HW232662   2.137   6.376   3.146  1.7020 -1.8426  0.4540
 9924SOL     OW32663   7.638   0.147   7.155 -0.2036 -0.4694  0.2680
 9924SOL    HW132664   7.704   0.120   7.219 -1.2610 -2.9717  0.3801
 9924SOL    HW232665   7.554   0.137   7.200 -0.8227  0.7470 -0.5344
 9925SOL     OW32666   7.847   5.650   5.931  0.2574 -0.4976 -0.5621
 9925SOL    HW132667   7.850   5.636   6.025  0.8852 -1.2852 -0.6885
 9925SOL    HW232668   7.934   5.623   5.899  0.2876  0.3867 -1.2842
 9926SOL     OW32669   3.581   2.123   1.745 -0.2354  0.0836  1.1483
 9926SOL    HW132670   3.574   2.209   1.704  1.1527 -0.2854  0.0676
 9926SOL    HW232671   3.662   2.086   1.709 -1.2687 -2.0395  0.8732
 9927SOL     OW32672   3.238   0.179   2.752  0.0878  0.3584  0.4891
 9927SOL    HW132673   3.184   0.199   2.828 -0.6069  2.4179 -0.4651
 9927SOL    HW232674   3.179   0.132   2.692 -0.0330  0.7140  0.3250
 9928SOL     OW32675   7.982   7.156   2.221  0.4976  0.5715  0.0482
 9928SOL    HW132676   8.062   7.116   2.187 -0.0248 -1.0459  0.6506
 9928SOL    HW232677   8.012   7.211   2.294  0.9873 -0.9040  1.0107
 9929SOL     OW32678   4.781   9.261   2.046 -0.2480  0.0798 -0.1856
 9929SOL    HW132679   4.811   9.348   2.075  0.9172 -0.4916  0.4143
 9929SOL    HW232680   4.858   9.221   2.006 -1.2364 -0.0283 -2.1182
 9930SOL     OW32681   7.512   8.305   4.198 -0.2810 -0.3301 -0.4453
 9930SOL    HW132682   7.569   8.382   4.201 -1.0342  0.3739 -2.2824
 9930SOL    HW232683   7.572   8.231   4.194  0.4776 -0.0273  2.8962
 9931SOL     OW32684   3.441   0.139   3.703  0.4591 -0.1800  0.0103
 9931SOL    HW132685   3.387   0.065   3.678  2.0317 -1.5721  0.5264
 9931SOL    HW232686   3.410   0.212   3.648 -1.5569 -1.0201 -0.0292
 9932SOL     OW32687   2.309   0.269   4.251  0.4405 -0.2582  0.1313
 9932SOL    HW132688   2.237   0.231   4.302 -0.0857  0.0495 -0.3689
 9932SOL    HW232689   2.322   0.207   4.179  0.5981 -0.2533  0.1560
 9933SOL     OW32690   6.467   4.741   8.004  0.4831 -0.0151  0.5833
 9933SOL    HW132691   6.494   4.751   7.913 -0.7219 -2.6265 -0.1314
 9933SOL    HW232692   6.524   4.801   8.052  0.4592  2.2322 -1.9416
 9934SOL     OW32693   5.517   0.170   4.654  0.2526  0.2951 -0.1846
 9934SOL    HW132694   5.529   0.258   4.617  0.0714  1.3021  2.0367
 9934SOL    HW232695   5.486   0.118   4.580  0.6618  2.0081 -1.6429
 9935SOL     OW32696   9.330   8.143   6.910  0.2779 -0.7642 -0.4222
 9935SOL    HW132697   9.314   8.234   6.885  1.3416 -0.0008  1.4769
 9935SOL    HW232698   9.375   8.106   6.834  1.0157  0.6787 -0.7274
 9936SOL     OW32699   9.323   1.307   6.013  0.4786  0.0337 -0.0056
 9936SOL    HW132700   9.243   1.268   6.046 -0.4622  1.1985 -0.8468
 9936SOL    HW232701   9.312   1.402   6.026  0.4682  0.4841 -2.6619
 9937SOL     OW32702   8.203   4.591   3.053  0.2788  0.4113  0.1327
 9937SOL    HW132703   8.138   4.644   3.007 -0.4396  0.5796  1.3011
 9937SOL    HW232704   8.182   4.500   3.029 -0.0816  0.4995  0.1102
 9938SOL     OW32705   3.300   2.062   5.328  0.9941  0.3554  0.3948
 9938SOL    HW132706   3.253   1.987   5.364 -0.7083  0.8769 -0.6504
 9938SOL    HW232707   3.389   2.054   5.364  0.6904 -1.8139  0.7852
 9939SOL     OW32708   4.455   5.705   1.178  0.0401 -0.5493 -0.0065
 9939SOL    HW132709   4.431   5.770   1.112  3.0198 -0.6649 -1.3657
 9939SOL    HW232710   4.378   5.648   1.185 -0.9206  0.3708 -2.2634
 9940SOL     OW32711   7.657   3.369   5.904 -0.0556  0.2222  0.2386
 9940SOL    HW132712   7.611   3.348   5.986  0.1523  2.5330  1.0495
 9940SOL    HW232713   7.729   3.306   5.899 -0.1276 -0.0250  1.8057
 9941SOL     OW32714   4.412   8.666   0.619 -0.2995  0.1760  0.6900
 9941SOL    HW132715   4.390   8.641   0.709 -0.7210  0.3275  0.6280
 9941SOL    HW232716   4.425   8.583   0.574 -3.9602 -0.0995 -0.1141
 9942SOL     OW32717   8.800   3.121   8.027 -0.6029  0.0934  0.0707
 9942SOL    HW132718   8.785   3.154   8.115  0.9022 -0.6344  0.6421
 9942SOL    HW232719   8.890   3.088   8.029 -0.8960 -0.9013 -1.4341
 9943SOL     OW32720   5.767   7.522   1.796 -0.1451 -0.6963  0.0032
 9943SOL    HW132721   5.782   7.475   1.878 -1.2024 -2.4642 -0.7290
 9943SOL    HW232722   5.727   7.456   1.739 -0.2807  0.7327 -1.6279
 9944SOL     OW32723   4.255   0.039   5.330  0.0217 -0.1058 -0.2610
 9944SOL    HW132724   4.346   0.046   5.302  0.4233  1.2270  1.2163
 9944SOL    HW232725   4.223  -0.042   5.289  1.0154  0.7884 -3.0770
 9945SOL     OW32726   7.731   1.970   3.818 -0.0898  0.1570 -0.2084
 9945SOL    HW132727   7.646   2.002   3.851 -0.4010 -1.3926  0.6109
 9945SOL    HW232728   7.765   2.042   3.765 -1.0406  1.5555  0.9891
 9946SOL     OW32729   1.801   3.807   6.764  0.0469 -0.2584 -0.3506
 9946SOL    HW132730   1.720   3.844   6.800 -0.1279 -1.1199  0.1719
 9946SOL    HW232731   1.783   3.800   6.670 -0.0865  0.5322 -0.3933
 9947SOL     OW32732   4.659   5.755   3.796 -0.6471  0.6810  0.3371
 9947SOL    HW132733   4.587   5.693   3.782 -0.2198  0.2584 -0.0683
 9947SOL    HW232734   4.713   5.714   3.864  0.8868 -0.5671 -1.5253
 9948SOL     OW32735   1.180   8.016   3.419  0.7231  0.3326 -0.3407
 9948SOL    HW132736   1.193   8.043   3.509 -0.3909  2.1191 -0.6734
 9948SOL    HW232737   1.089   7.984   3.416  1.4883 -2.0850 -0.3306
 9949SOL     OW32738   5.836   6.256   5.508  0.4356 -0.0853  0.0439
 9949SOL    HW132739   5.754   6.239   5.554  0.0854  1.4642  0.0519
 9949SOL    HW232740   5.810   6.267   5.416  0.3687  1.9663  0.2685
 9950SOL     OW32741   8.973   4.728   0.161  0.4076  0.4472 -0.0774
 9950SOL    HW132742   8.999   4.817   0.186 -0.0560  0.4204  0.5282
 9950SOL    HW232743   9.055   4.687   0.132  0.5038  1.2736 -1.0071
 9951SOL     OW32744   1.140   5.121   1.801 -0.0317  0.0028 -0.0008
 9951SOL    HW132745   1.050   5.156   1.804  0.0195  0.3803 -1.7795
 9951SOL    HW232746   1.195   5.199   1.795  0.3500 -0.2648  0.0325
 9952SOL     OW32747   4.878   4.388   8.115 -0.2052 -0.0221  0.0995
 9952SOL    HW132748   4.829   4.431   8.186  0.5468  1.5373 -0.2831
 9952SOL    HW232749   4.823   4.402   8.038 -0.4332 -0.6494  0.1409
 9953SOL     OW32750   7.611   8.117   0.707 -0.0752 -0.1100 -0.0391
 9953SOL    HW132751   7.672   8.044   0.704  0.4926  0.1818  2.4482
 9953SOL    HW232752   7.530   8.080   0.740  0.2670  0.3694  1.4021
 9954SOL     OW32753   5.371   1.184   7.279  0.0444  0.1506 -0.0462
 9954SOL    HW132754   5.318   1.104   7.271  0.8484 -0.4552  0.5270
 9954SOL    HW232755   5.366   1.224   7.192 -0.7207 -0.2982 -0.2225
 9955SOL     OW32756   3.312   9.562   5.078 -0.5013 -0.2517 -0.6375
 9955SOL    HW132757   3.371   9.571   5.152 -0.5436  0.8465 -0.7320
 9955SOL    HW232758   3.329   9.473   5.045  2.5741  0.6768 -1.9043
 9956SOL     OW32759   1.213   6.662   2.249  0.0988  0.2606  0.6678
 9956SOL    HW132760   1.201   6.731   2.314 -0.2922 -1.0614  2.0507
 9956SOL    HW232761   1.305   6.637   2.256  0.0210  0.0136  0.8338
 9957SOL     OW32762   8.794   9.632   8.463 -0.4338 -0.1678 -0.2997
 9957SOL    HW132763   8.850   9.699   8.504 -0.9072  1.1223 -1.6836
 9957SOL    HW232764   8.706   9.669   8.467 -0.9610 -1.4579  0.3686
 9958SOL     OW32765   3.460   6.828   8.317  0.3208  0.0401 -0.3944
 9958SOL    HW132766   3.470   6.905   8.261 -0.8836 -0.5309 -1.4450
 9958SOL    HW232767   3.365   6.816   8.325  0.4841 -1.4766 -0.4500
 9959SOL     OW32768   1.219   8.156   0.156  0.0168 -0.3526 -0.0654
 9959SOL    HW132769   1.270   8.082   0.189 -0.0130 -0.6688 -0.6950
 9959SOL    HW232770   1.179   8.123   0.075  0.4926  0.5319 -0.6827
 9960SOL     OW32771   4.065   8.816   1.393 -0.2560 -0.2561 -0.2020
 9960SOL    HW132772   4.064   8.887   1.329  1.6638 -0.2062 -0.2183
 9960SOL    HW232773   4.016   8.852   1.468 -0.7121  0.4666 -0.8277
 9961SOL     OW32774   7.728   3.776   9.548 -0.1702 -0.1276  0.6185
 9961SOL    HW132775   7.747   3.828   9.626 -0.7994 -0.3545  0.9317
 9961SOL    HW232776   7.813   3.743   9.520 -0.0975 -1.3206  2.1187
 9962SOL     OW32777   5.979   7.974   8.966 -0.6911 -0.3727  0.0812
 9962SOL    HW132778   5.888   7.985   8.937 -0.6228 -2.3551 -1.0934
 9962SOL    HW232779   6.031   7.976   8.885  0.2813  0.3457  0.7006
 9963SOL     OW32780   4.724   5.066   6.010 -0.0976 -0.3305  0.2788
 9963SOL    HW132781   4.776   5.106   6.080  0.7824  0.6439 -0.8826
 9963SOL    HW232782   4.654   5.019   6.056  0.8617 -0.3223  1.8307
 9964SOL     OW32783   0.076   9.222   1.424 -0.1864 -0.2631  0.7634
 9964SOL    HW132784   0.097   9.183   1.508 -0.6049 -3.4309 -0.4833
 9964SOL    HW232785  -0.005   9.178   1.397  1.1635 -1.0801 -2.2980
 9965SOL     OW32786   5.330   2.061   2.471 -0.0495 -0.3887 -0.3832
 9965SOL    HW132787   5.412   2.062   2.520 -0.7244  1.8767  0.8771
 9965SOL    HW232788   5.341   2.128   2.403 -0.6788 -0.3958 -0.5033
 9966SOL     OW32789   6.264   4.240   4.394  0.0234  0.4176 -0.1325
 9966SOL    HW132790   6.316   4.260   4.472 -2.9802 -0.2603  2.2293
 9966SOL    HW232791   6.184   4.291   4.406 -1.2206 -1.0096 -1.9238
 9967SOL     OW32792   5.347   0.232   6.729 -0.2600  0.4144  0.0666
 9967SOL    HW132793   5.361   0.137   6.735  0.5006  0.4530 -0.9088
 9967SOL    HW232794   5.432   0.270   6.752 -0.2122  0.8145 -0.7419
 9968SOL     OW32795   3.038   3.001   8.286 -0.3119 -0.6215 -0.1945
 9968SOL    HW132796   3.052   2.908   8.302 -1.9802 -0.4454  3.1822
 9968SOL    HW232797   3.119   3.043   8.317 -1.0942 -0.7812  2.3286
 9969SOL     OW32798   0.342   3.868   5.515 -0.5964  0.1333  1.0987
 9969SOL    HW132799   0.387   3.932   5.460 -1.2422 -1.9502 -2.1848
 9969SOL    HW232800   0.250   3.876   5.490 -0.6821 -2.0540  0.4507
 9970SOL     OW32801   9.569   4.927   5.682  0.3268  0.6767  0.3765
 9970SOL    HW132802   9.502   4.892   5.623  0.6081  0.1591  0.3572
 9970SOL    HW232803   9.567   5.021   5.667  0.5465  0.5347 -0.6321
 9971SOL     OW32804   2.705   3.000   8.163  0.3894 -0.9287 -0.2716
 9971SOL    HW132805   2.756   2.996   8.244 -1.4613 -0.1553  1.0007
 9971SOL    HW232806   2.706   2.911   8.130  0.7876 -1.3678  0.8684
 9972SOL     OW32807   8.174   2.877   3.870 -0.0408  0.3820  0.0954
 9972SOL    HW132808   8.168   2.941   3.799 -2.1147  0.0811 -0.0586
 9972SOL    HW232809   8.244   2.818   3.843  0.2187  1.1453 -0.9700
 9973SOL     OW32810   1.572   0.651   4.191 -0.8548  0.4370  0.0851
 9973SOL    HW132811   1.495   0.621   4.238 -0.8733 -1.3852 -1.0119
 9973SOL    HW232812   1.543   0.730   4.145 -1.8213  0.2573  0.3627
 9974SOL     OW32813   6.754   8.109   8.584 -0.0380 -0.2706 -0.6892
 9974SOL    HW132814   6.762   8.165   8.662  0.5639 -1.1775 -0.0882
 9974SOL    HW232815   6.830   8.132   8.530  0.8250 -1.2731  0.0705
 9975SOL     OW32816   6.425   5.012   5.269 -0.1716  0.0346 -0.2447
 9975SOL    HW132817   6.395   4.937   5.218 -0.0432  0.2999 -0.7151
 9975SOL    HW232818   6.509   5.035   5.231  0.4317 -0.4146  0.7680
 9976SOL     OW32819   7.821   6.426   9.261  0.7143  0.0308  0.1525
 9976SOL    HW132820   7.888   6.368   9.226  1.5305  0.2519  1.2806
 9976SOL    HW232821   7.740   6.377   9.255  0.6875  0.2774 -2.5492
 9977SOL     OW32822   4.613   6.900   5.536 -0.2338  0.6164 -0.0975
 9977SOL    HW132823   4.613   6.985   5.491 -0.5560  1.0534  0.6889
 9977SOL    HW232824   4.692   6.902   5.590 -0.6290  0.7441  0.4901
 9978SOL     OW32825   3.333   7.298   4.629 -0.3484 -0.6154  0.0511
 9978SOL    HW132826   3.305   7.366   4.691 -1.9898 -0.9310 -0.2842
 9978SOL    HW232827   3.408   7.336   4.584  0.4562 -0.1094  1.7434
 9979SOL     OW32828   3.080   9.607   6.496 -0.4004 -0.2310  0.7943
 9979SOL    HW132829   3.122   9.623   6.580 -0.3060 -0.6739  0.8313
 9979SOL    HW232830   2.986   9.601   6.516 -0.2698 -1.7048  1.0832
 9980SOL     OW32831   3.290   5.785   1.030  0.2200  0.0986 -0.5448
 9980SOL    HW132832   3.228   5.724   1.069  1.7152  0.0267  1.9572
 9980SOL    HW232833   3.260   5.871   1.060  1.3009  0.0528  0.7902
 9981SOL     OW32834   1.371   2.655   2.358  0.4409  0.1931 -0.2831
 9981SOL    HW132835   1.464   2.677   2.357  0.2507  1.0097 -1.1431
 9981SOL    HW232836   1.326   2.736   2.335 -0.4443 -0.3600 -0.5775
 9982SOL     OW32837   0.721   1.792   5.728 -0.2369 -0.6088 -0.5629
 9982SOL    HW132838   0.778   1.824   5.658  0.4822 -1.0699 -0.2095
 9982SOL    HW232839   0.776   1.729   5.776  0.5631  2.2594  2.6271
 9983SOL     OW32840   2.421   4.141   1.185 -0.0253  0.4770 -0.3080
 9983SOL    HW132841   2.343   4.184   1.221 -0.8954 -0.9767 -0.3412
 9983SOL    HW232842   2.468   4.109   1.262  0.8132  1.7445 -0.2641
 9984SOL     OW32843   8.162   4.168   2.497 -0.4133  0.4325 -0.1236
 9984SOL    HW132844   8.254   4.193   2.498  0.1639 -1.3441  2.3657
 9984SOL    HW232845   8.163   4.072   2.494 -2.1626  0.3702  0.1356
 9985SOL     OW32846   8.564   6.128   5.324 -0.3514 -0.6852  0.4378
 9985SOL    HW132847   8.547   6.156   5.414  1.1641  0.8057  0.3230
 9985SOL    HW232848   8.651   6.088   5.327 -0.3052 -0.6636 -0.3317
 9986SOL     OW32849   1.083   4.181   7.417 -0.1900 -0.3809  0.5035
 9986SOL    HW132850   1.172   4.182   7.452  0.3748  1.6559 -0.8065
 9986SOL    HW232851   1.034   4.242   7.472 -0.9567 -1.7775  1.4637
 9987SOL     OW32852   8.156   9.416   6.004 -0.1357  0.0433 -0.1429
 9987SOL    HW132853   8.136   9.489   5.946 -0.1834 -0.2085 -0.4483
 9987SOL    HW232854   8.140   9.338   5.951  1.1593 -0.1868 -0.2365
 9988SOL     OW32855   7.836   2.930   8.031  0.2191 -0.5537 -0.2786
 9988SOL    HW132856   7.826   2.932   8.126  0.1091  0.2413 -0.3015
 9988SOL    HW232857   7.922   2.891   8.017 -0.6400 -2.6959  0.0714
 9989SOL     OW32858   3.278   3.604   1.807 -0.0081  0.3209  0.4282
 9989SOL    HW132859   3.232   3.670   1.858 -1.3530  1.4775 -2.0658
 9989SOL    HW232860   3.360   3.646   1.782 -0.5076  0.8133 -0.4729
 9990SOL     OW32861   8.956   9.074   6.088  0.6114 -0.1099 -0.0169
 9990SOL    HW132862   9.015   9.028   6.028  3.3679 -0.7368  2.8939
 9990SOL    HW232863   8.942   9.159   6.047  1.0875 -1.0425 -2.2494
 9991SOL     OW32864   8.802   7.555   0.537  0.1154  0.1465 -0.3499
 9991SOL    HW132865   8.815   7.581   0.629 -0.8495 -0.0772 -0.1296
 9991SOL    HW232866   8.834   7.465   0.533 -0.0041  0.0949 -0.1806
 9992SOL     OW32867   3.911   0.163   4.804  0.3243 -0.0721 -0.8231
 9992SOL    HW132868   3.818   0.186   4.804  0.3854  0.2852  0.4518
 9992SOL    HW232869   3.955   0.243   4.834  0.9751 -0.4441 -0.7707
 9993SOL     OW32870   0.179   8.759   6.484  0.2931 -0.7861 -0.3947
 9993SOL    HW132871   0.182   8.725   6.395  1.0193  0.3697 -0.8298
 9993SOL    HW232872   0.212   8.688   6.538  2.2029 -0.6759 -1.3259
 9994SOL     OW32873   4.646   1.014   6.060  0.3189  0.7438 -0.3143
 9994SOL    HW132874   4.623   1.084   5.998  0.0039  0.8305 -0.1018
 9994SOL    HW232875   4.702   1.058   6.125 -2.1802  1.5267  1.4593
 9995SOL     OW32876   6.552   0.314   1.474 -0.1361 -0.0516 -0.3768
 9995SOL    HW132877   6.575   0.235   1.524  0.0504  1.4596  2.1001
 9995SOL    HW232878   6.608   0.310   1.396  1.0898 -1.5256  0.5199
 9996SOL     OW32879   1.193   4.441   9.542  0.7012  0.1535  0.2800
 9996SOL    HW132880   1.115   4.394   9.570  1.1441 -1.2913 -0.7876
 9996SOL    HW232881   1.253   4.373   9.511  1.4021  1.4022 -1.2879
 9997SOL     OW32882   4.851   0.658   0.325  0.4320 -0.3366  0.3512
 9997SOL    HW132883   4.805   0.645   0.408  0.6565  1.3791  0.7689
 9997SOL    HW232884   4.926   0.714   0.347 -0.9165  2.3368 -1.3787
 9998SOL     OW32885   4.016   0.571   8.878 -0.2714 -0.5949 -0.2672
 9998SOL    HW132886   3.926   0.550   8.853 -0.7661  0.9049  0.1992
 9998SOL    HW232887   4.063   0.578   8.795 -0.3348 -2.3003 -0.4903
 9999SOL     OW32888   7.344   0.258   7.904  0.2550 -0.3453  0.1370
 9999SOL    HW132889   7.252   0.271   7.925  0.4376  1.9437 -0.2572
 9999SOL    HW232890   7.364   0.324   7.838  2.0221 -1.2287 -0.2924
10000SOL     OW32891   8.440   8.590   4.946 -0.5244  0.3078 -0.2259
10000SOL    HW132892   8.389   8.531   4.891 -1.0638 -0.6246  1.1908
10000SOL    HW232893   8.412   8.569   5.035  1.4997  0.5741  0.5401
10001SOL     OW32894   9.511   2.359   0.892  0.4908 -0.8220  0.0682
10001SOL    HW132895   9.480   2.400   0.811  1.6008 -0.5811 -0.2590
10001SOL    HW232896   9.436   2.363   0.952 -0.3127 -0.9044 -0.9042
10002SOL     OW32897   7.796   0.086   6.341 -0.1950 -0.8221  0.5003
10002SOL    HW132898   7.721   0.032   6.367 -3.1454  2.6950  0.0674
10002SOL    HW232899   7.802   0.153   6.409  2.8440 -1.0718  0.6358
10003SOL     OW32900   3.587   4.619   5.786  0.6703  0.0372 -1.1763
10003SOL    HW132901   3.641   4.546   5.757  0.3177 -0.4804 -0.5868
10003SOL    HW232902   3.607   4.628   5.880 -0.3172 -0.2313 -0.9263
10004SOL     OW32903   3.206   9.191   3.623 -0.5000 -0.1565 -0.9006
10004SOL    HW132904   3.287   9.141   3.614 -0.4893 -0.4111  0.3867
10004SOL    HW232905   3.159   9.177   3.541 -0.8402 -2.9400 -0.3299
10005SOL     OW32906   2.663   1.126   5.359 -0.2764  0.1552 -0.3677
10005SOL    HW132907   2.584   1.114   5.306 -1.9363  0.4492  1.8815
10005SOL    HW232908   2.645   1.077   5.440  2.2975 -0.6020 -0.1780
10006SOL     OW32909   8.530   6.931   2.916 -0.5484 -0.0462  0.3959
10006SOL    HW132910   8.458   6.909   2.974 -1.8460  0.2793 -1.0144
10006SOL    HW232911   8.514   6.879   2.837  1.1638 -0.4964  0.3032
10007SOL     OW32912   1.987   3.986   2.420  0.1195 -0.0290 -0.0670
10007SOL    HW132913   2.043   3.911   2.437 -0.8527 -0.3824  1.8232
10007SOL    HW232914   1.924   3.955   2.354  1.5329  0.1004 -1.5286
10008SOL     OW32915   0.909   3.568   1.898  0.2035 -0.4758 -0.1296
10008SOL    HW132916   0.821   3.539   1.922 -0.7883 -0.1862 -2.9737
10008SOL    HW232917   0.896   3.659   1.868  1.9303  0.4079  1.6602
10009SOL     OW32918   6.224   7.917   2.687 -0.6398 -0.4672 -0.6849
10009SOL    HW132919   6.287   7.853   2.653  1.4000  1.0009  0.1395
10009SOL    HW232920   6.143   7.898   2.639 -0.1852 -3.6769 -0.4282
10010SOL     OW32921   1.092   0.748   4.519 -0.2663  0.0044 -0.2537
10010SOL    HW132922   1.094   0.726   4.426 -2.2248  0.1029 -0.3631
10010SOL    HW232923   1.171   0.708   4.555 -0.5169 -1.8102 -1.5884
10011SOL     OW32924   0.275   3.912   3.780  0.6099 -0.2573 -0.3862
10011SOL    HW132925   0.206   3.952   3.727 -0.6169  0.5252  1.6684
10011SOL    HW232926   0.339   3.982   3.794  0.4931 -0.1964 -0.1414
10012SOL     OW32927   2.755   5.953   0.560 -0.3793  0.5355 -0.0773
10012SOL    HW132928   2.734   5.976   0.469  1.1699  1.0923 -0.3151
10012SOL    HW232929   2.671   5.958   0.605 -0.9209  1.7651 -1.1590
10013SOL     OW32930   7.103   6.271   3.934 -0.5330 -0.0262 -0.0476
10013SOL    HW132931   7.177   6.310   3.980 -0.3841 -0.9097  0.4990
10013SOL    HW232932   7.136   6.184   3.907 -0.4759  0.5859 -2.1646
10014SOL     OW32933   2.393   2.286   3.654 -0.3019  0.2485  0.1553
10014SOL    HW132934   2.323   2.227   3.626  2.0794 -2.4607 -0.5544
10014SOL    HW232935   2.436   2.312   3.573  1.2119 -0.4505  0.6942
10015SOL     OW32936   3.718   9.071   7.570  0.3359  0.0204  0.2754
10015SOL    HW132937   3.800   9.038   7.535 -1.1195 -0.9697 -2.4992
10015SOL    HW232938   3.706   9.156   7.526  0.2305  0.5282  1.2646
10016SOL     OW32939   7.864   1.877   5.778  0.1098 -0.0846  0.0616
10016SOL    HW132940   7.926   1.908   5.845 -0.3050  2.0230 -0.4607
10016SOL    HW232941   7.780   1.913   5.805 -0.0608  0.8269 -1.5671
10017SOL     OW32942   1.976   5.830   2.169 -0.4068  0.5756 -0.7745
10017SOL    HW132943   2.044   5.894   2.147 -0.2469  0.6452 -0.1042
10017SOL    HW232944   2.018   5.771   2.232 -0.7817  0.2648 -0.8144
10018SOL     OW32945   3.423   3.052   2.130 -0.1207  0.3217 -0.5033
10018SOL    HW132946   3.391   3.125   2.079 -0.0486 -0.6475 -2.0110
10018SOL    HW232947   3.374   3.055   2.212 -1.4326  0.9810 -1.2873
10019SOL     OW32948   9.240   5.841   0.208  0.2039 -0.2481 -0.1632
10019SOL    HW132949   9.322   5.867   0.250 -0.4347  0.8803  0.4387
10019SOL    HW232950   9.216   5.759   0.252  0.5293 -0.0891  0.3267
10020SOL     OW32951   3.053   2.126   0.927  0.3199  0.5235  0.1649
10020SOL    HW132952   3.120   2.190   0.949 -0.0946  1.0045  0.0576
10020SOL    HW232953   3.079   2.093   0.841  0.8966  0.0537  0.5158
10021SOL     OW32954   6.196   9.221   2.996 -0.1998 -0.0663 -0.4084
10021SOL    HW132955   6.197   9.305   2.950 -0.7980 -0.5896 -1.4221
10021SOL    HW232956   6.284   9.186   2.985 -0.3955 -0.2816 -1.3776
10022SOL     OW32957   4.232   3.365   0.960  0.0687 -0.2125 -0.0758
10022SOL    HW132958   4.153   3.404   0.996 -0.2501 -1.9367  1.2160
10022SOL    HW232959   4.245   3.284   1.010  2.6499 -0.0127 -0.2498
10023SOL     OW32960   0.388   7.585   3.513  0.4418  0.1309  0.6258
10023SOL    HW132961   0.403   7.664   3.566  0.0932  0.6135  0.0150
10023SOL    HW232962   0.417   7.609   3.425  0.7355 -0.5694  0.5260
10024SOL     OW32963   6.875   8.723   6.150 -0.2540 -0.0850 -0.3328
10024SOL    HW132964   6.932   8.647   6.138  2.5502  1.6835  0.7489
10024SOL    HW232965   6.883   8.772   6.068 -0.6741 -0.0688 -0.3689
10025SOL     OW32966   1.653   4.936   5.038 -0.1245  0.1363  0.5281
10025SOL    HW132967   1.674   4.948   5.130  3.1329 -0.4977 -0.0015
10025SOL    HW232968   1.693   5.012   4.994 -1.8871  0.5973 -0.3821
10026SOL     OW32969   9.224   3.979   1.323  0.3773 -0.7068  0.0343
10026SOL    HW132970   9.239   3.886   1.339 -3.1067 -1.1176  1.9621
10026SOL    HW232971   9.250   4.022   1.404  2.1642  0.1109 -0.9169
10027SOL     OW32972   2.318   8.634   5.506 -0.2022 -0.1974 -0.0574
10027SOL    HW132973   2.276   8.652   5.590 -0.7378  1.4589 -0.6420
10027SOL    HW232974   2.404   8.600   5.528 -0.3807  0.1199  1.1687
10028SOL     OW32975   2.682   2.684   8.518  0.3162 -0.3933 -0.3289
10028SOL    HW132976   2.719   2.766   8.485  1.3876 -1.0374 -0.7595
10028SOL    HW232977   2.589   2.689   8.495  0.5441  0.3026 -1.1547
10029SOL     OW32978   7.544   7.259   6.590  0.3419 -0.0034 -0.5109
10029SOL    HW132979   7.498   7.219   6.664  1.1278 -1.6628 -0.8695
10029SOL    HW232980   7.630   7.217   6.590  0.9854  1.2473 -1.3399
10030SOL     OW32981   9.537   2.571   5.457 -0.4876  0.3504  0.3223
10030SOL    HW132982   9.493   2.504   5.404 -1.9396  0.7898  0.9273
10030SOL    HW232983   9.510   2.553   5.547  1.1963  0.1896  0.8420
10031SOL     OW32984   4.090   5.679   5.852  0.0506 -0.3714 -0.2807
10031SOL    HW132985   4.001   5.713   5.845  0.1138 -0.0537  0.3965
10031SOL    HW232986   4.098   5.649   5.943  0.8712  0.3042 -0.1102
10032SOL     OW32987   4.681   3.631   1.987  0.0505 -0.1258 -0.0984
10032SOL    HW132988   4.611   3.696   1.985  0.3121  0.2173  1.1635
10032SOL    HW232989   4.677   3.589   1.901 -1.0554  0.5630 -0.4030
10033SOL     OW32990   1.728   6.407   0.011  0.1446 -0.5221  0.0035
10033SOL    HW132991   1.651   6.400  -0.045  0.2063 -5.1944  0.1123
10033SOL    HW232992   1.703   6.362   0.092  3.0053 -2.8892 -0.2283
10034SOL     OW32993   7.794   8.774   0.229  0.0699  0.1688 -0.1401
10034SOL    HW132994   7.784   8.785   0.323 -1.7036  1.8284 -0.4624
10034SOL    HW232995   7.837   8.854   0.200  1.9041 -0.9330 -0.6100
10035SOL     OW32996   8.411   2.416   8.028  0.0586  0.3908  0.6755
10035SOL    HW132997   8.375   2.451   8.110 -2.1870 -2.8192  1.2579
10035SOL    HW232998   8.442   2.329   8.050 -1.2635 -0.8744 -1.9571
10036SOL     OW32999   1.901   5.097   7.856 -0.4162  0.2802  0.0131
10036SOL    HW133000   1.920   5.018   7.906 -0.4721  0.9337  1.1114
10036SOL    HW233001   1.870   5.065   7.771 -0.1741 -0.8615  0.3359
10037SOL     OW33002   3.027   3.503   0.243 -0.1577  0.5481  0.1412
10037SOL    HW133003   2.944   3.543   0.219 -0.1105 -0.4902 -1.9297
10037SOL    HW233004   3.016   3.478   0.335 -2.5238 -0.4997 -0.3697
10038SOL     OW33005   5.604   8.460   8.176  1.1662  0.1819  0.1590
10038SOL    HW133006   5.528   8.493   8.224  1.3146  0.7331  0.0113
10038SOL    HW233007   5.644   8.537   8.136  0.8453 -0.2920 -1.1451
10039SOL     OW33008   4.678   7.765   0.799  0.4025  0.5145 -0.4844
10039SOL    HW133009   4.728   7.829   0.749 -1.0136  1.3047 -0.9450
10039SOL    HW233010   4.592   7.763   0.756 -0.5281  0.4721  1.2940
10040SOL     OW33011   8.536   7.045   1.854  0.2304  0.7890 -0.5063
10040SOL    HW133012   8.603   6.992   1.809  0.4080  0.1859  0.4419
10040SOL    HW233013   8.578   7.071   1.936 -0.4764  0.9576 -0.1962
10041SOL     OW33014   7.446   5.112   2.706 -0.0921  0.3236 -0.4452
10041SOL    HW133015   7.457   5.130   2.799 -0.6745 -1.8795  0.1077
10041SOL    HW233016   7.352   5.126   2.690 -0.4111 -1.2681 -0.1706
10042SOL     OW33017   7.594   6.316   9.113  0.2262  0.1840 -0.9631
10042SOL    HW133018   7.526   6.285   9.054 -0.4994  0.7920 -0.4602
10042SOL    HW233019   7.650   6.371   9.058 -0.5852  0.9470 -1.0491
10043SOL     OW33020   6.092   6.568   1.763 -0.1842  0.5797  0.2249
10043SOL    HW133021   6.133   6.607   1.840  0.7222 -0.7436  0.4324
10043SOL    HW233022   6.046   6.641   1.721 -0.4358  1.3943  1.8312
10044SOL     OW33023   1.830   2.537   7.406 -0.1580 -0.2842 -0.2352
10044SOL    HW133024   1.816   2.455   7.453  0.0495 -1.9498 -2.8560
10044SOL    HW233025   1.925   2.538   7.389 -0.0182  0.9782  0.5082
10045SOL     OW33026   7.415   0.524   3.029 -0.0551 -0.1752  0.3502
10045SOL    HW133027   7.497   0.540   2.982  0.4058 -1.1737  0.7900
10045SOL    HW233028   7.410   0.595   3.093  0.3252  0.0523  0.1306
10046SOL     OW33029   0.252   4.234   0.370 -0.1913 -0.4697 -0.6733
10046SOL    HW133030   0.270   4.285   0.450 -0.5071  2.4414 -2.3183
10046SOL    HW233031   0.224   4.148   0.402  0.8658  0.1586  2.2924
10047SOL     OW33032   3.304   7.309   6.608  0.2260  0.2106  0.6769
10047SOL    HW133033   3.241   7.374   6.577 -1.0038 -0.4492  1.6894
10047SOL    HW233034   3.351   7.281   6.529 -1.9517 -0.5240 -0.4321
10048SOL     OW33035   9.148   4.201   3.258  0.1717 -0.2894 -0.8996
10048SOL    HW133036   9.069   4.231   3.214  0.0717  0.5038 -0.1943
10048SOL    HW233037   9.202   4.164   3.188 -0.6635 -0.5165 -1.4393
10049SOL     OW33038   0.398   0.419   4.174 -0.4815  0.5135  0.3083
10049SOL    HW133039   0.397   0.470   4.093 -0.5141  2.0903  1.2600
10049SOL    HW233040   0.484   0.378   4.175 -0.7755 -0.1968 -0.9030
10050SOL     OW33041   1.054   1.699   3.085  0.3821 -0.2569 -0.5087
10050SOL    HW133042   1.081   1.783   3.047 -0.7120  0.2309 -0.2520
10050SOL    HW233043   1.043   1.641   3.010  2.1432 -0.4973 -0.6232
10051SOL     OW33044   3.160   6.676   5.021 -0.6000 -0.4892 -0.6738
10051SOL    HW133045   3.110   6.747   5.062  0.5380 -0.1788  0.2179
10051SOL    HW233046   3.229   6.720   4.972  1.3385 -0.9665  1.4897
10052SOL     OW33047   6.239   4.721   4.495 -0.0444  0.2204 -0.7797
10052SOL    HW133048   6.208   4.709   4.405 -0.2223 -1.3527 -0.5430
10052SOL    HW233049   6.217   4.811   4.516  0.1161  0.6687 -2.3540
10053SOL     OW33050   6.965   7.986   8.818  0.2285  0.0505 -0.1911
10053SOL    HW133051   7.043   7.949   8.857 -1.1325 -1.7281  1.0032
10053SOL    HW233052   6.895   7.968   8.881 -1.1280  1.7928 -1.0923
10054SOL     OW33053   6.926   0.563   8.953  0.6169  0.5512  0.0154
10054SOL    HW133054   6.848   0.554   8.898  1.1019 -1.6840 -0.4029
10054SOL    HW233055   6.982   0.624   8.905 -0.8872  2.3612  0.4213
10055SOL     OW33056   6.376   8.402   9.392 -0.2287  1.0990 -0.4224
10055SOL    HW133057   6.304   8.363   9.442 -0.3285  1.6088 -0.1635
10055SOL    HW233058   6.384   8.345   9.315  0.6110 -0.2914  0.6517
10056SOL     OW33059   4.837   4.209   0.776 -0.1329 -0.0972  0.5485
10056SOL    HW133060   4.876   4.125   0.798 -1.8784 -1.7136 -1.9477
10056SOL    HW233061   4.752   4.208   0.821 -0.2025  0.2842  0.4296
10057SOL     OW33062   4.845   8.870   6.383 -0.1724 -0.0651  0.1436
10057SOL    HW133063   4.870   8.906   6.298 -1.2290  1.1173  0.3063
10057SOL    HW233064   4.768   8.920   6.408 -0.9725 -1.6476  0.9702
10058SOL     OW33065   4.418   5.780   2.638 -0.2236 -0.3430  0.3901
10058SOL    HW133066   4.425   5.805   2.546 -0.1541  1.2309  0.7940
10058SOL    HW233067   4.469   5.847   2.685 -0.0945 -1.2317  1.5567
10059SOL     OW33068   6.333   4.896   6.355 -0.0317 -0.6863 -0.4308
10059SOL    HW133069   6.385   4.914   6.433 -0.2195  3.1344 -0.9866
10059SOL    HW233070   6.300   4.807   6.368  0.0876 -0.3272  3.7677
10060SOL     OW33071   1.311   8.986   2.008 -0.8564  0.4724 -0.1617
10060SOL    HW133072   1.295   8.964   2.100 -2.0276 -0.1853 -0.5009
10060SOL    HW233073   1.233   9.036   1.982 -1.5087 -1.0870 -1.3443
10061SOL     OW33074   4.886   6.817   4.002  0.3652  0.2481 -0.0562
10061SOL    HW133075   4.905   6.833   3.910 -2.3691  0.1165 -0.7501
10061SOL    HW233076   4.833   6.893   4.029 -0.9630 -0.8725  0.6343
10062SOL     OW33077   2.432   3.127   5.920 -0.1814 -0.0906 -0.4123
10062SOL    HW133078   2.506   3.069   5.904  0.3803 -0.3915  2.6873
10062SOL    HW233079   2.470   3.204   5.962 -1.6238 -0.5721  1.9598
10063SOL     OW33080   3.309   3.360   5.976  1.0089  0.3904 -0.1263
10063SOL    HW133081   3.317   3.270   6.008 -0.9507  0.1401 -0.2597
10063SOL    HW233082   3.363   3.362   5.897 -0.4500 -1.2330 -1.2210
10064SOL     OW33083   4.416   8.182   4.381 -0.5997  0.4243 -0.4002
10064SOL    HW133084   4.372   8.099   4.400 -0.8814  0.4077 -1.0904
10064SOL    HW233085   4.490   8.157   4.325  0.3314  0.4463  0.7863
10065SOL     OW33086   4.251   0.744   2.484  0.1650 -0.0819 -0.0479
10065SOL    HW133087   4.307   0.671   2.456  2.6953  2.0847 -1.1191
10065SOL    HW233088   4.251   0.739   2.579  0.6563 -1.2413 -0.0918
10066SOL     OW33089   4.159   4.534   2.391  0.0709 -0.2903 -0.0210
10066SOL    HW133090   4.082   4.478   2.397 -0.3505  0.2217 -0.5423
10066SOL    HW233091   4.158   4.566   2.300  0.6789  0.0248  0.0778
10067SOL     OW33092   4.334   3.171   0.532  0.3018 -0.0386  0.6067
10067SOL    HW133093   4.279   3.200   0.605  0.9784  0.7513  0.8121
10067SOL    HW233094   4.368   3.251   0.494  0.2745 -0.4596 -0.3504
10068SOL     OW33095   8.430   2.892   1.214  0.0517  0.1446  0.4750
10068SOL    HW133096   8.424   2.919   1.305  2.3121  3.1498 -0.0967
10068SOL    HW233097   8.497   2.824   1.213  0.7450  0.8045  0.9757
10069SOL     OW33098   9.087   9.493   0.762  0.1921  0.1818  0.2626
10069SOL    HW133099   9.038   9.575   0.769 -0.5762 -0.3911  2.0727
10069SOL    HW233100   9.141   9.490   0.841  0.8171 -0.6954 -0.1812
10070SOL     OW33101   2.375   1.867   3.278 -0.0826 -0.3824 -0.2364
10070SOL    HW133102   2.364   1.943   3.222  0.3218 -0.4598 -0.4223
10070SOL    HW233103   2.459   1.881   3.322 -0.7967  0.1110  1.0307
10071SOL     OW33104   5.793   1.447   3.481  0.3000 -0.0929 -0.4619
10071SOL    HW133105   5.793   1.466   3.387 -1.4685 -0.7702 -0.6445
10071SOL    HW233106   5.759   1.357   3.486  1.5656 -0.5344  0.7728
10072SOL     OW33107   1.806   4.638   1.734 -0.0905 -0.6721  0.3390
10072SOL    HW133108   1.741   4.685   1.786 -0.0766 -1.5660  1.1755
10072SOL    HW233109   1.775   4.548   1.731  0.8125 -0.9953  0.2676
10073SOL     OW33110   8.204   8.290   8.943  0.7564 -0.3710 -0.1503
10073SOL    HW133111   8.266   8.278   9.015  0.7128 -0.8617 -0.1876
10073SOL    HW233112   8.258   8.318   8.869  0.7493  0.5054  0.1714
10074SOL     OW33113   8.089   1.134   0.295 -0.2137 -0.3388 -0.0826
10074SOL    HW133114   8.023   1.191   0.254 -1.3157 -0.8289  0.9702
10074SOL    HW233115   8.162   1.136   0.233 -1.1848  0.2491 -1.2759
10075SOL     OW33116   4.292   4.591   7.639 -0.3377  0.1187  0.2356
10075SOL    HW133117   4.264   4.526   7.573 -0.1148  1.4096 -1.1977
10075SOL    HW233118   4.225   4.659   7.635  0.5315  0.9918  0.1586
10076SOL     OW33119   7.066   4.567   4.090  0.1836 -0.2092  0.4695
10076SOL    HW133120   6.977   4.546   4.118 -0.0505  0.1702  0.0054
10076SOL    HW233121   7.122   4.520   4.153 -0.3337  0.4074  1.4137
10077SOL     OW33122   0.735   6.836   3.482 -0.1415  0.2774 -0.3494
10077SOL    HW133123   0.744   6.887   3.562 -1.0327 -1.2359  0.7612
10077SOL    HW233124   0.704   6.899   3.417 -0.4847  1.3078  0.7725
10078SOL     OW33125   6.441   5.662   5.855 -0.2476  0.5694  0.0020
10078SOL    HW133126   6.517   5.647   5.910 -0.2249 -3.7550 -0.8721
10078SOL    HW233127   6.370   5.615   5.899 -2.0178  2.8123 -0.2527
10079SOL     OW33128   9.551   2.280   0.345  0.3408  0.1103  0.3503
10079SOL    HW133129   9.637   2.266   0.305 -0.3521 -0.7458 -0.8909
10079SOL    HW233130   9.526   2.369   0.320  0.7214  0.2509  0.4621
10080SOL     OW33131   4.015   5.079   9.459 -0.0777 -0.0574  0.0175
10080SOL    HW133132   4.109   5.063   9.448 -0.5126 -1.7623 -1.6276
10080SOL    HW233133   3.997   5.153   9.402  0.2120  0.1580  0.1961
10081SOL     OW33134   2.416   7.069   2.651  0.1588 -0.4287  1.0578
10081SOL    HW133135   2.416   6.981   2.687 -1.3625  0.1919  2.7340
10081SOL    HW233136   2.326   7.099   2.659  0.4355  0.9783 -0.3296
10082SOL     OW33137   5.698   0.119   8.973  0.5457  0.0574  0.0792
10082SOL    HW133138   5.734   0.192   8.922 -0.5452  0.7113  0.2194
10082SOL    HW233139   5.707   0.043   8.915 -1.0319  0.8477 -1.2991
10083SOL     OW33140   2.672   2.862   7.278  0.5125 -0.3611 -0.0095
10083SOL    HW133141   2.750   2.808   7.294  0.3081 -0.7538 -0.3202
10083SOL    HW233142   2.679   2.933   7.342  0.6184 -0.9278  0.6208
10084SOL     OW33143   5.104   8.689   3.080  0.4917 -0.3165 -0.0865
10084SOL    HW133144   5.053   8.664   3.158 -0.2211  1.4103  0.0444
10084SOL    HW233145   5.195   8.682   3.108  0.2437  0.5661  1.0184
10085SOL     OW33146   6.918   4.858   6.659 -0.1379 -0.0641  0.5148
10085SOL    HW133147   7.000   4.837   6.704 -0.0504  1.1203  0.9298
10085SOL    HW233148   6.867   4.908   6.722 -0.6747  0.2771 -0.1658
10086SOL     OW33149   4.523   5.663   0.558  0.0736  0.0141 -0.2311
10086SOL    HW133150   4.588   5.730   0.536 -0.5254  0.6017 -0.2557
10086SOL    HW233151   4.518   5.608   0.480  1.3450 -0.7157  0.1767
10087SOL     OW33152   4.333   6.422   8.927 -0.2340  0.2376  0.0266
10087SOL    HW133153   4.259   6.476   8.900 -2.3974 -1.1671  2.6064
10087SOL    HW233154   4.358   6.457   9.013  0.5746 -0.7037  0.1896
10088SOL     OW33155   6.673   4.520   7.736  0.3589  0.1395  0.5605
10088SOL    HW133156   6.743   4.578   7.767 -0.1796  0.1335  1.8477
10088SOL    HW233157   6.635   4.566   7.662  0.1158  1.3349  1.3956
10089SOL     OW33158   7.302   4.158   1.146  0.1087  0.1500  0.0742
10089SOL    HW133159   7.280   4.113   1.227  0.2305 -1.0290 -0.5292
10089SOL    HW233160   7.349   4.236   1.174  1.1700 -0.8245  1.0987
10090SOL     OW33161   2.704   2.288   2.776  0.1251 -0.5044  0.5081
10090SOL    HW133162   2.749   2.332   2.704 -3.5636  0.0243 -1.7511
10090SOL    HW233163   2.628   2.343   2.794 -1.5557 -2.9719  1.5988
10091SOL     OW33164   7.889   6.182   4.594 -0.0000 -0.1494 -0.0247
10091SOL    HW133165   7.898   6.227   4.677  0.4281 -1.7008  0.8113
10091SOL    HW233166   7.963   6.214   4.541  1.6465 -1.4669  1.3607
10092SOL     OW33167   4.472   3.979   0.326 -0.3892  0.6437  0.3392
10092SOL    HW133168   4.556   4.025   0.338 -0.6347  0.9962  0.7265
10092SOL    HW233169   4.468   3.919   0.400  0.5621 -1.0046 -0.8825
10093SOL     OW33170   3.431   4.871   2.801  0.2500 -0.1863 -0.1023
10093SOL    HW133171   3.377   4.883   2.880  0.0753 -0.6822 -0.1425
10093SOL    HW233172   3.370   4.884   2.728 -0.0133 -1.5379 -0.1489
10094SOL     OW33173   6.481   7.819   8.380  0.7329  0.4856  0.3647
10094SOL    HW133174   6.440   7.862   8.455 -0.8432 -1.8717  0.9620
10094SOL    HW233175   6.452   7.728   8.385  1.5455 -0.0391 -2.4528
10095SOL     OW33176   3.856   4.500   8.466  0.3621  0.2495 -0.0053
10095SOL    HW133177   3.860   4.578   8.410 -1.6983 -0.1605 -0.8132
10095SOL    HW233178   3.861   4.535   8.555  1.9556  1.0641 -0.3816
10096SOL     OW33179   1.782   8.120   0.234  0.0135  0.1908 -0.0843
10096SOL    HW133180   1.858   8.154   0.187  0.0294 -0.7390 -0.7682
10096SOL    HW233181   1.707   8.157   0.188 -0.0077 -1.7972 -1.7889
10097SOL     OW33182   8.928   0.446   5.227 -1.1027  0.8425  0.6605
10097SOL    HW133183   8.922   0.352   5.243  0.4266  0.7882  1.0994
10097SOL    HW233184   8.933   0.453   5.132 -0.7565  0.4374  0.6442
10098SOL     OW33185   4.948   1.222   0.132 -0.1004  0.1594  0.3474
10098SOL    HW133186   4.873   1.281   0.146  0.0470  1.0672 -2.1225
10098SOL    HW233187   4.952   1.168   0.211 -1.5221  2.0862  1.8252
10099SOL     OW33188   2.834   4.280   2.797  0.2526 -0.2538  0.1603
10099SOL    HW133189   2.761   4.342   2.802  0.4620 -0.0246  0.4809
10099SOL    HW233190   2.804   4.212   2.737 -0.5624 -0.6157  0.9583
10100SOL     OW33191   2.431   8.931   1.259 -0.0234 -0.7991 -0.2392
10100SOL    HW133192   2.495   8.973   1.202  0.5106 -0.7627  0.3707
10100SOL    HW233193   2.455   8.960   1.347 -0.9259 -0.7319 -0.0054
10101SOL     OW33194   1.778   8.299   9.378 -0.4249  0.0143 -0.5750
10101SOL    HW133195   1.832   8.261   9.448  0.4516 -0.2831 -1.3966
10101SOL    HW233196   1.767   8.391   9.403  1.8130  0.4924 -1.1733
10102SOL     OW33197   2.831   0.824   3.783  0.6380  0.5109 -0.6224
10102SOL    HW133198   2.916   0.826   3.828  0.4156 -0.4021 -0.1249
10102SOL    HW233199   2.767   0.827   3.854  0.2739 -0.2698 -0.9099
10103SOL     OW33200   4.016   1.003   9.603  0.8084  0.2648  0.0881
10103SOL    HW133201   4.092   1.060   9.595  1.4124 -0.4365  0.6361
10103SOL    HW233202   4.041   0.939   9.670 -0.7961  0.8495  1.2954
10104SOL     OW33203   0.362   8.870   0.206 -0.8988 -0.3670  0.2644
10104SOL    HW133204   0.343   8.861   0.113  0.3071 -1.1952  0.0700
10104SOL    HW233205   0.315   8.797   0.246 -0.9819 -0.3274  0.2412
10105SOL     OW33206   5.146   5.322   8.618  0.2821 -0.6436 -0.0010
10105SOL    HW133207   5.083   5.253   8.636  0.1997 -0.3168  0.9827
10105SOL    HW233208   5.190   5.337   8.701  1.5125 -0.7062 -0.6191
10106SOL     OW33209   8.466   9.395   6.894  0.6184  0.1706 -0.0975
10106SOL    HW133210   8.512   9.428   6.817 -1.3209  0.0087 -1.4282
10106SOL    HW233211   8.394   9.457   6.907  2.1414  1.4510  3.0328
10107SOL     OW33212   0.168   5.094   2.007  0.0050  0.0024 -0.6839
10107SOL    HW133213   0.264   5.094   2.001  0.1815 -1.2029  1.3786
10107SOL    HW233214   0.143   5.002   2.004 -0.5197 -0.2922  4.6022
10108SOL     OW33215   4.556   1.756   4.131  0.4891 -0.3704 -0.2272
10108SOL    HW133216   4.625   1.803   4.177  1.0056 -0.2324 -1.1184
10108SOL    HW233217   4.479   1.812   4.141  0.7251 -0.0838  0.0240
10109SOL     OW33218   2.828   0.091   6.914  0.3073  0.3429 -0.1822
10109SOL    HW133219   2.764   0.019   6.919  0.2927  0.4150  1.2160
10109SOL    HW233220   2.840   0.106   6.821 -1.3004 -0.0538 -0.4906
10110SOL     OW33221   3.788   6.140   8.798  0.1833 -0.0597  0.1030
10110SOL    HW133222   3.698   6.121   8.827 -0.6243  0.6747 -1.7845
10110SOL    HW233223   3.842   6.075   8.843 -1.4269 -1.2380  0.4122
10111SOL     OW33224   7.843   5.454   6.972 -0.7336  0.6550 -0.7067
10111SOL    HW133225   7.936   5.438   6.989 -0.9111  1.0470  0.8407
10111SOL    HW233226   7.803   5.367   6.971 -0.8156  0.5893  1.9197
10112SOL     OW33227   7.440   2.578   8.674  0.9534  0.7315 -0.5769
10112SOL    HW133228   7.455   2.520   8.749 -0.3351  0.0028 -0.8450
10112SOL    HW233229   7.521   2.627   8.665  0.9527  1.2193  1.6118
10113SOL     OW33230   2.920   9.374   7.588 -0.3747 -0.4410  0.0954
10113SOL    HW133231   2.996   9.375   7.647  0.2106  1.1798 -0.6463
10113SOL    HW233232   2.894   9.282   7.585 -0.0962 -0.6579  2.4505
10114SOL     OW33233   2.588   3.718   6.823  0.5195 -0.0260 -0.4526
10114SOL    HW133234   2.508   3.683   6.863  0.4897 -1.2222 -1.4929
10114SOL    HW233235   2.598   3.668   6.743  1.0570  1.7099 -1.5200
10115SOL     OW33236   5.359   3.525   6.073 -0.1852  0.7165 -0.6831
10115SOL    HW133237   5.280   3.488   6.113  1.0574 -1.1994  0.1664
10115SOL    HW233238   5.358   3.494   5.983  0.7303 -1.3511 -0.0377
10116SOL     OW33239   6.866   4.631   2.411 -0.0067  0.0678 -0.5924
10116SOL    HW133240   6.838   4.586   2.331  1.8262 -1.8564 -0.2168
10116SOL    HW233241   6.808   4.597   2.479  1.2034 -1.6184 -0.3582
10117SOL     OW33242   5.804   1.906   8.105  0.2956 -0.1328  0.2550
10117SOL    HW133243   5.710   1.894   8.092  0.1575 -1.6867  2.2118
10117SOL    HW233244   5.823   1.862   8.188  2.9978 -1.1904 -0.7918
10118SOL     OW33245   4.165   1.617   5.213  0.4105 -0.3514 -0.0525
10118SOL    HW133246   4.131   1.528   5.223 -0.6799  0.2287  1.9983
10118SOL    HW233247   4.251   1.615   5.256 -0.6676  0.1111  2.2607
10119SOL     OW33248   8.329   3.030   4.076  0.5261  0.5255  0.1649
10119SOL    HW133249   8.276   3.033   4.156 -0.3568  1.0709 -0.4220
10119SOL    HW233250   8.271   2.990   4.011  1.7663 -1.4357  0.1610
10120SOL     OW33251   7.177   1.291   1.307 -0.5082  0.0538 -0.0386
10120SOL    HW133252   7.083   1.306   1.317 -0.2844  3.0725 -1.3970
10120SOL    HW233253   7.214   1.309   1.393 -1.1361 -1.5447  0.6145
10121SOL     OW33254   5.372   8.675   3.151 -0.9179  0.5133  0.0688
10121SOL    HW133255   5.394   8.659   3.059  0.1612 -1.0283  0.5477
10121SOL    HW233256   5.449   8.721   3.186 -1.2090  0.8569  0.2522
10122SOL     OW33257   3.960   8.396   6.580 -0.3115 -0.6137 -0.4240
10122SOL    HW133258   3.897   8.343   6.629  0.8774 -0.7842  0.9848
10122SOL    HW233259   3.922   8.484   6.580 -0.8455 -0.8387 -0.1277
10123SOL     OW33260   1.085   1.567   7.657  0.2405  0.1133  0.2552
10123SOL    HW133261   1.023   1.592   7.588  1.2259 -0.7315 -0.9748
10123SOL    HW233262   1.124   1.650   7.685 -0.3949  0.5023  0.0311
10124SOL     OW33263   6.735   7.809   4.600 -0.0646  0.4783  1.0598
10124SOL    HW133264   6.713   7.784   4.690  1.1346  0.0038  1.2380
10124SOL    HW233265   6.766   7.900   4.608 -0.4586  0.6126  1.0493
10125SOL     OW33266   6.286   5.779   6.965 -0.0362 -0.4803  0.1420
10125SOL    HW133267   6.193   5.802   6.962  0.1480  0.4487  0.9217
10125SOL    HW233268   6.302   5.733   6.882 -1.6175 -2.4382  0.8650
10126SOL     OW33269   9.055   8.066   9.089  0.2494  0.0411 -0.0075
10126SOL    HW133270   8.964   8.041   9.107  0.2615 -1.8711 -2.1682
10126SOL    HW233271   9.049   8.152   9.047 -0.5216  0.0931  0.1979
10127SOL     OW33272   0.357   4.948   7.768 -0.0558 -0.6471 -0.6309
10127SOL    HW133273   0.324   5.029   7.806  0.5790  0.1067 -1.6249
10127SOL    HW233274   0.343   4.882   7.835 -1.0326  0.1886  0.0134
10128SOL     OW33275   3.757   8.997   4.894 -0.1257 -0.2611 -0.6752
10128SOL    HW133276   3.756   9.062   4.964  1.3711  0.8876 -1.6499
10128SOL    HW233277   3.785   9.046   4.817 -0.0894 -1.8444 -1.7091
10129SOL     OW33278   1.048   2.265   0.897 -0.5708  0.0440 -0.2515
10129SOL    HW133279   1.141   2.245   0.909 -0.3230  0.5891 -1.1215
10129SOL    HW233280   1.013   2.276   0.985  0.6295  1.7432  0.0678
10130SOL     OW33281   2.333   9.221   0.703  0.2653 -0.4749 -0.4306
10130SOL    HW133282   2.330   9.150   0.767 -0.5988 -0.2797 -0.2430
10130SOL    HW233283   2.426   9.241   0.694  0.3926 -0.4717  0.7961
10131SOL     OW33284   2.629   9.250   5.937 -0.3161  0.8829  0.4840
10131SOL    HW133285   2.659   9.313   5.872 -1.2823  2.3695  1.4392
10131SOL    HW233286   2.540   9.276   5.957 -0.3906 -0.1806  1.6461
10132SOL     OW33287   5.973   5.247   1.693  0.2348 -0.4215 -0.0009
10132SOL    HW133288   5.966   5.338   1.665 -1.5881 -0.8644 -1.1580
10132SOL    HW233289   6.061   5.240   1.732  0.0057  2.0620  1.1342
10133SOL     OW33290   4.253   5.400   6.125  0.2547  0.1055 -0.0689
10133SOL    HW133291   4.301   5.476   6.093  1.3334 -0.7225 -0.4536
10133SOL    HW233292   4.286   5.385   6.214 -1.6863  1.5100  0.9547
10134SOL     OW33293   6.020   4.685   9.407 -0.0671 -0.0854 -0.1185
10134SOL    HW133294   5.995   4.774   9.384  0.1599  0.0238  0.0574
10134SOL    HW233295   5.958   4.658   9.474 -0.0551 -0.0123 -0.0778
10135SOL     OW33296   4.632   6.455   7.014 -0.4167 -0.7516  0.1293
10135SOL    HW133297   4.686   6.421   6.943  0.3717  1.9666 -0.6737
10135SOL    HW233298   4.687   6.520   7.058 -1.4535 -1.2206  2.2707
10136SOL     OW33299   0.406   0.788   5.171 -0.4445 -0.1017  0.8265
10136SOL    HW133300   0.494   0.818   5.152  0.2032 -1.2505  1.8423
10136SOL    HW233301   0.354   0.868   5.181 -0.0814  0.5942 -2.0174
10137SOL     OW33302   3.260   9.407   7.252 -0.3695  0.1145 -0.2708
10137SOL    HW133303   3.202   9.439   7.183 -2.3669 -1.7217  0.4252
10137SOL    HW233304   3.256   9.474   7.320  0.3749  1.1960 -1.2634
10138SOL     OW33305   6.304   5.385   7.302  0.1755  0.0648  0.4643
10138SOL    HW133306   6.215   5.415   7.323  0.3401  0.3394  0.7783
10138SOL    HW233307   6.350   5.465   7.278 -0.6020 -0.4337 -3.2343
10139SOL     OW33308   7.040   6.347   1.648  0.2726  0.4911 -0.2766
10139SOL    HW133309   7.087   6.415   1.600 -0.2662  1.0523 -0.0291
10139SOL    HW233310   6.975   6.314   1.586 -0.6397  1.4410  0.1404
10140SOL     OW33311   6.853   2.561   2.885  0.6705 -0.1639 -0.1161
10140SOL    HW133312   6.947   2.576   2.880  0.9027 -1.0353  1.2659
10140SOL    HW233313   6.826   2.602   2.967 -0.2251  0.3404 -0.6423
10141SOL     OW33314   3.186   3.712   7.215  0.4134  0.1963  0.1022
10141SOL    HW133315   3.258   3.723   7.152  1.9719 -1.9143  1.4004
10141SOL    HW233316   3.209   3.771   7.287  1.0197 -0.6791  0.6379
10142SOL     OW33317   7.236   0.281   7.412 -0.6677  0.5206 -0.2312
10142SOL    HW133318   7.234   0.330   7.330 -0.2566  1.3959  0.2672
10142SOL    HW233319   7.161   0.314   7.461 -1.1169 -0.2489 -0.3832
10143SOL     OW33320   7.334   2.560   0.273  0.0425  0.3920 -0.0798
10143SOL    HW133321   7.347   2.655   0.265 -0.7115  0.4926 -0.1826
10143SOL    HW233322   7.381   2.523   0.198  0.3027  0.6807 -0.0646
10144SOL     OW33323   6.937   7.881   1.259  0.1594 -0.3499  0.7233
10144SOL    HW133324   6.906   7.792   1.242  1.7350 -0.6224 -1.0066
10144SOL    HW233325   6.856   7.933   1.264 -0.7746 -1.7966  1.4283
10145SOL     OW33326   7.488   0.382   8.810  0.6707 -0.0610 -0.2908
10145SOL    HW133327   7.448   0.299   8.786 -0.6205  0.9180 -1.7116
10145SOL    HW233328   7.551   0.400   8.740  1.9635 -0.4883  0.7364
10146SOL     OW33329   1.151   8.688   9.066 -0.3331  0.7844  0.3501
10146SOL    HW133330   1.153   8.730   8.980 -3.1848  0.2864 -0.0557
10146SOL    HW233331   1.202   8.608   9.054  0.5634  1.4400 -0.4155
10147SOL     OW33332   6.129   0.324   7.549  0.3045 -0.2346 -0.0322
10147SOL    HW133333   6.129   0.408   7.504 -0.8195 -0.6554 -0.8671
10147SOL    HW233334   6.137   0.346   7.642 -0.9039  0.8528 -0.1604
10148SOL     OW33335   9.339   2.141   9.483  0.6348  0.0052  0.4116
10148SOL    HW133336   9.265   2.111   9.430  0.3439  1.3257  0.0556
10148SOL    HW233337   9.374   2.216   9.435 -0.9107  2.6113  3.0487
10149SOL     OW33338   5.642   5.508   1.101 -0.2951 -0.3464 -0.0073
10149SOL    HW133339   5.633   5.473   1.189  0.0920  0.2652  0.2722
10149SOL    HW233340   5.552   5.532   1.076 -0.4755 -0.9647  0.0276
10150SOL     OW33341   7.903   8.526   8.769 -0.1271 -0.1003  0.0779
10150SOL    HW133342   7.890   8.452   8.709  2.8672 -0.1158 -0.6753
10150SOL    HW233343   7.968   8.581   8.726  0.2815  1.1833  2.2129
10151SOL     OW33344   4.448   0.642   3.636 -0.1754 -0.2663 -0.2229
10151SOL    HW133345   4.384   0.658   3.705 -0.2602  1.3845 -0.6427
10151SOL    HW233346   4.504   0.573   3.671  0.5042  1.3097  2.0183
10152SOL     OW33347   4.398   2.774   2.744  0.1117 -0.8528 -0.2455
10152SOL    HW133348   4.461   2.843   2.764 -1.4369  0.0411  1.9441
10152SOL    HW233349   4.433   2.696   2.788 -0.8048 -0.0799  1.9819
10153SOL     OW33350   7.457   6.253   5.152  0.4435  0.3386 -0.2359
10153SOL    HW133351   7.395   6.325   5.164  0.5467  0.6176 -1.2986
10153SOL    HW233352   7.450   6.202   5.233 -0.8497  0.6125 -0.1488
10154SOL     OW33353   9.501   5.261   0.878 -0.0793 -0.5783 -0.2415
10154SOL    HW133354   9.536   5.263   0.967  2.6633 -0.0788 -1.2427
10154SOL    HW233355   9.440   5.187   0.879  0.2530 -0.9039  1.9111
10155SOL     OW33356   5.582   8.249   4.629  0.1538 -0.7212  1.2161
10155SOL    HW133357   5.649   8.185   4.651  1.6183  0.1448 -0.4512
10155SOL    HW233358   5.630   8.322   4.589 -1.8575 -0.6504 -1.3614
10156SOL     OW33359   4.560   4.252   6.817 -0.7460 -0.2822  0.2145
10156SOL    HW133360   4.598   4.311   6.752  0.5279  0.3624  1.4900
10156SOL    HW233361   4.469   4.280   6.824 -1.0468 -0.6720 -1.5908
10157SOL     OW33362   5.173   1.408   8.664 -0.2073  0.0014 -0.6724
10157SOL    HW133363   5.112   1.365   8.604 -0.3581  0.0319 -0.5408
10157SOL    HW233364   5.121   1.476   8.707 -0.0115  0.2064 -0.7561
10158SOL     OW33365   0.781   7.407   9.547  0.3467  0.1789 -0.2909
10158SOL    HW133366   0.783   7.455   9.630 -0.1627 -0.6072  0.1946
10158SOL    HW233367   0.862   7.431   9.503  0.6353  0.5958  0.4516
10159SOL     OW33368   1.224   4.366   8.722  0.2107 -0.2774 -0.3408
10159SOL    HW133369   1.287   4.304   8.687 -1.4620 -1.0929 -2.0693
10159SOL    HW233370   1.202   4.423   8.648 -0.2503  0.7124  0.5242
10160SOL     OW33371   9.480   7.010   1.753  0.0471 -0.4691  0.1952
10160SOL    HW133372   9.393   7.051   1.754 -0.6595 -1.9035  0.7508
10160SOL    HW233373   9.533   7.065   1.811 -0.2595  0.8682 -0.7626
10161SOL     OW33374   0.648   0.190   7.894 -0.3595  0.1393  1.0217
10161SOL    HW133375   0.632   0.234   7.978 -1.5233  0.4052  0.6763
10161SOL    HW233376   0.691   0.255   7.840 -0.6409  0.3434  1.0406
10162SOL     OW33377   3.767   3.149   1.833  0.0553  0.1431 -0.0909
10162SOL    HW133378   3.745   3.064   1.794 -1.8880  0.4285  0.2877
10162SOL    HW233379   3.805   3.127   1.917  1.2320 -0.3782 -0.7313
10163SOL     OW33380   7.402   4.761   9.245 -0.2057  0.6406 -0.6699
10163SOL    HW133381   7.387   4.692   9.311 -3.7744  1.7248 -0.1637
10163SOL    HW233382   7.316   4.779   9.209  0.9575  3.3206 -2.4138
10164SOL     OW33383   3.239   7.233   1.600  0.4043  0.1118  0.1365
10164SOL    HW133384   3.181   7.226   1.524  0.9064  0.4311 -0.2819
10164SOL    HW233385   3.273   7.323   1.596 -0.4099  0.5019  1.3590
10165SOL     OW33386   6.597   8.763   6.117  0.3163  0.2798  0.0893
10165SOL    HW133387   6.691   8.756   6.132  0.4748 -0.0720 -0.9866
10165SOL    HW233388   6.588   8.826   6.046 -0.0658 -1.5954 -1.6028
10166SOL     OW33389   7.022   8.997   8.562 -0.4002  0.1769  0.3343
10166SOL    HW133390   6.976   9.009   8.479  0.3844  3.1815  0.2118
10166SOL    HW233391   6.958   9.021   8.629 -0.4689 -0.3808  0.4658
10167SOL     OW33392   9.199   2.132   0.122 -0.7348  0.3396 -0.4706
10167SOL    HW133393   9.158   2.053   0.085 -1.1585  0.0865  0.5221
10167SOL    HW233394   9.268   2.154   0.059 -1.9346  0.3887 -1.8381
10168SOL     OW33395   4.864   5.377   7.648  0.7907  0.2872  0.5772
10168SOL    HW133396   4.840   5.373   7.741  0.7643  2.6737  0.7210
10168SOL    HW233397   4.959   5.387   7.649  0.6815  1.4016  0.3977
10169SOL     OW33398   4.936   5.146   8.668 -0.2609 -0.2425  0.2732
10169SOL    HW133399   4.897   5.194   8.741 -0.8129  1.0859 -0.8388
10169SOL    HW233400   4.863   5.130   8.608  0.0878 -1.7479  0.2132
10170SOL     OW33401   1.736   6.658   4.893  0.0972 -0.0852 -0.2241
10170SOL    HW133402   1.672   6.621   4.832  0.1690 -1.0242  0.2525
10170SOL    HW233403   1.710   6.750   4.902  0.0768  0.0580 -1.6446
10171SOL     OW33404   1.851   5.169   0.896  0.3658  0.4469  0.1669
10171SOL    HW133405   1.826   5.107   0.828  1.0614 -0.0211  0.3217
10171SOL    HW233406   1.810   5.251   0.871  0.0209  0.0994 -0.4242
10172SOL     OW33407   0.154   4.875   4.651 -0.1323  0.6827  0.1619
10172SOL    HW133408   0.180   4.851   4.562  0.7940  0.3770  0.5068
10172SOL    HW233409   0.064   4.844   4.658  1.1000 -3.2782  0.7480
10173SOL     OW33410   2.289   9.279   6.211  0.1375 -0.3034  0.5263
10173SOL    HW133411   2.291   9.241   6.299 -0.9711  1.1706  1.2301
10173SOL    HW233412   2.349   9.353   6.215 -0.0689 -0.1084  0.0884
10174SOL     OW33413   2.238   4.883   1.294  0.9371  0.1555  0.3779
10174SOL    HW133414   2.230   4.790   1.317  0.1593  0.5987  2.0676
10174SOL    HW233415   2.213   4.930   1.374  0.0628  1.8284 -0.8046
10175SOL     OW33416   5.351   9.582   9.533 -0.3659 -0.2097  0.4466
10175SOL    HW133417   5.360   9.675   9.557 -1.0310 -0.1330  0.4327
10175SOL    HW233418   5.273   9.553   9.580 -0.2433 -0.7282  0.3373
10176SOL     OW33419   2.062   5.161   5.619 -0.2051 -0.1012 -0.3895
10176SOL    HW133420   2.104   5.136   5.702 -0.1065 -0.0992 -0.4387
10176SOL    HW233421   2.003   5.232   5.643 -0.6761 -0.5480 -0.2045
10177SOL     OW33422   2.726   5.034   3.197  0.2955  0.1547 -0.3545
10177SOL    HW133423   2.811   4.991   3.188 -0.1267 -0.5962 -0.9194
10177SOL    HW233424   2.700   5.017   3.288  0.5291 -0.0412 -0.3241
10178SOL     OW33425   3.450   9.379   5.510 -0.1187  0.0960  0.0320
10178SOL    HW133426   3.539   9.368   5.543 -0.0856  0.3728  0.0370
10178SOL    HW233427   3.413   9.450   5.562  0.2281  1.1435 -1.0938
10179SOL     OW33428   7.683   0.430   8.062  0.5886  0.3011  0.0418
10179SOL    HW133429   7.588   0.441   8.064  0.5797  0.4071 -0.5985
10179SOL    HW233430   7.698   0.338   8.084  0.3213  0.2332 -0.0565
10180SOL     OW33431   6.292   8.788   8.414 -0.0743 -0.2220  0.2872
10180SOL    HW133432   6.349   8.724   8.456  0.5969  0.5322  0.5386
10180SOL    HW233433   6.337   8.872   8.425 -1.9364  0.6545  1.8961
10181SOL     OW33434   5.009   5.347   4.134  0.3761  0.9635  0.4124
10181SOL    HW133435   4.947   5.382   4.198 -1.3722  0.3102 -0.8484
10181SOL    HW233436   5.079   5.309   4.187 -1.0003  0.4308  1.9377
10182SOL     OW33437   3.284   0.706   5.733  0.1654 -0.1184 -0.3136
10182SOL    HW133438   3.299   0.685   5.825 -0.2099  0.4706 -0.1100
10182SOL    HW233439   3.372   0.706   5.694  0.2595 -1.1256 -0.1354
10183SOL     OW33440   7.862   2.650   5.812 -1.0491  0.3921  0.4038
10183SOL    HW133441   7.941   2.704   5.808 -1.8695  1.7304  1.3926
10183SOL    HW233442   7.797   2.700   5.761 -1.1177 -1.0118 -0.9693
10184SOL     OW33443   4.900   5.091   0.347 -0.1641 -0.7521  0.0149
10184SOL    HW133444   4.895   5.174   0.301 -3.4583 -1.8366 -1.9274
10184SOL    HW233445   4.892   5.115   0.440 -1.9046  1.1020 -0.5414
10185SOL     OW33446   0.897   4.446   7.202 -0.5151  0.1857  0.4394
10185SOL    HW133447   0.830   4.513   7.191 -1.3594 -0.6152  0.5880
10185SOL    HW233448   0.950   4.476   7.276 -0.7531  0.7838  0.3648
10186SOL     OW33449   0.902   4.626   0.381  0.5847 -0.2124 -0.4230
10186SOL    HW133450   0.965   4.629   0.453 -0.9449  0.4989  0.9415
10186SOL    HW233451   0.883   4.533   0.369  0.3221 -0.3029  0.5997
10187SOL     OW33452   4.743   7.922   9.112 -0.3452  0.0016 -0.1494
10187SOL    HW133453   4.819   7.887   9.158  0.9491  2.0378 -0.6200
10187SOL    HW233454   4.709   7.990   9.170 -0.8502  0.1765 -0.6458
10188SOL     OW33455   5.524   8.356   9.299  0.2600  0.3360  0.1349
10188SOL    HW133456   5.511   8.277   9.351  0.7635  0.1880  0.0391
10188SOL    HW233457   5.449   8.412   9.321 -0.8351 -0.6942 -0.7805
10189SOL     OW33458   7.811   0.235   8.973  0.9335 -0.1285 -0.5101
10189SOL    HW133459   7.838   0.302   8.910  1.1782  0.7049  0.4539
10189SOL    HW233460   7.723   0.261   9.000 -0.2288 -1.8797 -2.3404
10190SOL     OW33461   4.162   0.892   6.191 -0.2456 -0.3338 -0.1318
10190SOL    HW133462   4.172   0.805   6.151  0.0519 -0.3184 -0.0972
10190SOL    HW233463   4.252   0.923   6.204 -0.2892 -0.8023  1.5705
10191SOL     OW33464   3.350   6.734   4.298 -0.4438 -0.4199  0.6925
10191SOL    HW133465   3.401   6.679   4.238  0.9202 -0.2586  1.6452
10191SOL    HW233466   3.341   6.817   4.251  0.6972 -0.2603  0.7175
10192SOL     OW33467   5.319   3.868   0.629  0.0988  0.4677 -0.8544
10192SOL    HW133468   5.370   3.868   0.548  0.2484  0.1049 -0.7642
10192SOL    HW233469   5.262   3.944   0.622  0.5553  0.7965 -1.0203
10193SOL     OW33470   3.870   2.625   2.281 -0.0984  0.0589 -0.1776
10193SOL    HW133471   3.796   2.579   2.321 -0.1939 -0.5399 -1.0324
10193SOL    HW233472   3.947   2.593   2.329 -0.3718  0.6733  0.7066
10194SOL     OW33473   4.318   0.593   7.871 -0.1452  1.0552  0.4099
10194SOL    HW133474   4.360   0.679   7.877  3.1011 -0.4676  1.2454
10194SOL    HW233475   4.373   0.535   7.923 -2.5660 -1.4692  0.3810
10195SOL     OW33476   8.794   7.665   4.926 -0.0291 -0.3267  0.0113
10195SOL    HW133477   8.729   7.730   4.953  1.2478  0.3622  1.5700
10195SOL    HW233478   8.834   7.635   5.008  2.5751  0.3066 -0.9448
10196SOL     OW33479   7.997   1.775   2.548 -0.1535  0.4495  0.5350
10196SOL    HW133480   8.072   1.734   2.506 -2.6786 -2.1756 -1.8424
10196SOL    HW233481   8.011   1.760   2.642  0.7949 -2.9329 -0.0126
10197SOL     OW33482   3.409   3.967   8.131  0.1571 -0.0495 -0.1363
10197SOL    HW133483   3.361   3.979   8.048  0.0159 -1.2497 -0.2420
10197SOL    HW233484   3.342   3.977   8.198  0.6454  3.2309  0.0275
10198SOL     OW33485   2.002   0.635   5.010  0.2724 -0.4328 -0.1023
10198SOL    HW133486   1.985   0.581   4.932  1.0385 -0.9458  0.0701
10198SOL    HW233487   1.916   0.652   5.047  0.0352 -1.8697  0.0500
10199SOL     OW33488   9.536   3.361   3.584 -0.0360  0.5440 -0.2809
10199SOL    HW133489   9.590   3.352   3.662 -0.2057  1.7166 -0.0062
10199SOL    HW233490   9.583   3.425   3.530 -0.1321  0.0518 -0.9546
10200SOL     OW33491   3.940   2.827   1.533  0.4891 -0.1814  0.4620
10200SOL    HW133492   3.910   2.821   1.442 -0.6599  0.7913  0.7561
10200SOL    HW233493   4.016   2.885   1.528 -0.0814  0.5616  0.2227
10201SOL     OW33494   8.230   0.987   8.640  0.0730 -0.1508  0.1225
10201SOL    HW133495   8.180   0.910   8.613 -0.3485  0.3468 -0.5063
10201SOL    HW233496   8.293   0.952   8.704 -0.4457 -0.9326  0.2253
10202SOL     OW33497   6.439   1.849   3.866  0.5645  0.3999  0.7776
10202SOL    HW133498   6.512   1.849   3.804 -0.5659  0.4387 -0.5924
10202SOL    HW233499   6.468   1.793   3.938  1.8805  0.3095  0.1990
10203SOL     OW33500   2.227   3.098   1.415 -0.2789  0.5795  0.4649
10203SOL    HW133501   2.211   3.023   1.473  1.3535 -0.2838 -0.1472
10203SOL    HW233502   2.142   3.115   1.374 -0.9229 -0.2460  1.4083
10204SOL     OW33503   5.321   8.725   3.534  0.2475  0.1671 -0.6072
10204SOL    HW133504   5.378   8.800   3.547 -1.7458  1.5350  1.0295
10204SOL    HW233505   5.358   8.656   3.590  1.8840 -0.0116 -1.8408
10205SOL     OW33506   0.518   3.726   9.006  0.1790  0.3877 -0.1503
10205SOL    HW133507   0.498   3.786   9.078 -1.4635 -0.5445  0.2248
10205SOL    HW233508   0.554   3.648   9.049  1.7019  0.8342 -0.5788
10206SOL     OW33509   8.138   3.775   9.223 -0.2994 -0.5032 -0.4438
10206SOL    HW133510   8.110   3.813   9.139 -0.7859 -0.3439 -0.2135
10206SOL    HW233511   8.137   3.849   9.284  0.6515 -0.4890 -0.4314
10207SOL     OW33512   1.803   6.344   7.089  0.3519 -0.0231  0.0273
10207SOL    HW133513   1.756   6.367   7.169  0.9665 -2.5254  1.2314
10207SOL    HW233514   1.765   6.260   7.062  1.1311  0.0715 -1.4864
10208SOL     OW33515   3.969   6.684   4.106  0.1521 -0.5175  0.1268
10208SOL    HW133516   3.908   6.663   4.177 -0.5850 -1.8682 -0.8822
10208SOL    HW233517   3.914   6.697   4.029  0.9079  1.3259 -0.1706
10209SOL     OW33518   9.281   4.400   4.786 -0.4695 -0.0164 -0.9201
10209SOL    HW133519   9.216   4.339   4.821 -0.5075  0.4107 -0.2455
10209SOL    HW233520   9.230   4.474   4.753 -0.3174  0.4758 -0.0779
10210SOL     OW33521   6.597   5.158   1.833 -0.4283 -0.1079  0.2050
10210SOL    HW133522   6.571   5.250   1.839  0.2133  0.0384  0.8815
10210SOL    HW233523   6.517   5.110   1.856 -0.9673  0.2567 -0.8678
10211SOL     OW33524   4.201   3.728   4.965  0.1562 -0.4479  0.1156
10211SOL    HW133525   4.106   3.715   4.975  0.3134 -2.0509 -0.3621
10211SOL    HW233526   4.241   3.657   5.015  1.1999  1.5570  2.3341
10212SOL     OW33527   2.235   0.576   5.534  0.0862 -0.1449  0.0422
10212SOL    HW133528   2.175   0.512   5.572 -0.5933  1.2319  1.4108
10212SOL    HW233529   2.230   0.651   5.593  0.9035  1.1476 -1.4598
10213SOL     OW33530   6.096   7.595   4.159 -0.0682  0.4080  0.1268
10213SOL    HW133531   6.005   7.567   4.150  0.0553  0.1459 -0.2944
10213SOL    HW233532   6.102   7.627   4.249 -0.7716  1.1443 -0.0772
10214SOL     OW33533   3.396   8.272   0.464 -0.3555  1.0721 -0.7254
10214SOL    HW133534   3.463   8.294   0.528  0.0290 -1.0242 -0.3096
10214SOL    HW233535   3.446   8.242   0.387 -0.6691 -1.9257  0.0981
10215SOL     OW33536   2.218   1.016   3.083 -0.6774  0.4862 -0.4821
10215SOL    HW133537   2.205   1.025   3.178 -0.8032  0.4421 -0.4951
10215SOL    HW233538   2.133   0.990   3.050 -0.6808  0.6932 -0.6341
10216SOL     OW33539   4.887   2.606   7.539 -0.8627 -0.1001  0.1757
10216SOL    HW133540   4.815   2.547   7.516 -0.4005 -0.6778  0.1785
10216SOL    HW233541   4.930   2.625   7.456 -0.1859 -0.8754  0.3276
10217SOL     OW33542   4.790   0.009   8.736  0.0759  0.3191 -0.0373
10217SOL    HW133543   4.733  -0.038   8.797 -0.3005 -1.2097 -1.4633
10217SOL    HW233544   4.877  -0.026   8.753 -0.0069 -0.0022 -0.2511
10218SOL     OW33545   3.656   3.515   1.388  0.1046  0.4305  0.2741
10218SOL    HW133546   3.706   3.463   1.325 -0.3009 -0.5475  0.7288
10218SOL    HW233547   3.575   3.536   1.342  0.6303  1.4413 -0.2241
10219SOL     OW33548   2.166   2.263   7.009 -0.2746 -0.1606 -0.0711
10219SOL    HW133549   2.253   2.252   6.971  1.0869  2.0189  2.1262
10219SOL    HW233550   2.121   2.322   6.948  0.1689 -0.4325 -0.6709
10220SOL     OW33551   0.031   6.217   4.108  0.1895 -0.1361 -0.0578
10220SOL    HW133552  -0.023   6.150   4.149  0.2945 -0.1083  0.1282
10220SOL    HW233553  -0.022   6.297   4.112 -0.9202 -0.6788 -2.3883
10221SOL     OW33554   1.417   8.593   5.721 -0.3410  0.4209  0.5031
10221SOL    HW133555   1.412   8.689   5.724 -0.6884  0.4799 -1.1150
10221SOL    HW233556   1.331   8.566   5.688  0.6796 -0.2419 -1.8693
10222SOL     OW33557   4.528   8.572   9.421  0.3340  0.7376 -0.2542
10222SOL    HW133558   4.572   8.657   9.426 -0.2209  0.9653  1.1553
10222SOL    HW233559   4.597   8.508   9.435  0.8288  0.9069 -1.7293
10223SOL     OW33560   1.909   0.313   5.154  0.5597 -0.1860  0.5579
10223SOL    HW133561   1.994   0.354   5.136  0.1571  0.0223 -0.9767
10223SOL    HW233562   1.909   0.233   5.102 -1.0984  1.0002 -1.4010
10224SOL     OW33563   5.595   2.674   5.042  1.0249  0.2498 -0.8850
10224SOL    HW133564   5.500   2.683   5.048  0.9542 -0.6648 -0.3854
10224SOL    HW233565   5.612   2.585   5.073  2.0310  0.3518 -1.1196
10225SOL     OW33566   1.667   8.037   5.495  0.3346 -0.1121  0.2968
10225SOL    HW133567   1.666   8.131   5.511 -1.9720 -0.2462  1.2418
10225SOL    HW233568   1.748   8.023   5.446 -0.2102  2.6594 -1.6956
10226SOL     OW33569   8.334   6.430   0.931 -0.0819  0.0231 -0.5452
10226SOL    HW133570   8.294   6.495   0.989  1.5413 -0.0571  0.7153
10226SOL    HW233571   8.426   6.456   0.926  1.1718 -3.3253  1.7609
10227SOL     OW33572   4.280   1.322   6.403  0.0017  0.1745 -0.5194
10227SOL    HW133573   4.217   1.378   6.357 -0.3869 -0.1373 -0.3799
10227SOL    HW233574   4.343   1.297   6.336  0.4996  1.2199 -0.4612
10228SOL     OW33575   8.728   8.117   7.229  0.0108  0.0299 -0.0774
10228SOL    HW133576   8.817   8.151   7.241  0.1049 -0.6335  1.4184
10228SOL    HW233577   8.740   8.028   7.194 -0.0697  0.0661 -0.1966
10229SOL     OW33578   3.390   4.743   6.783 -0.2848 -0.2688  0.4230
10229SOL    HW133579   3.394   4.837   6.801 -1.9381 -0.1715  0.4273
10229SOL    HW233580   3.449   4.704   6.848  0.5615  0.7561  0.3135
10230SOL     OW33581   8.450   4.807   4.672  1.1637  0.1920 -0.4194
10230SOL    HW133582   8.437   4.776   4.762 -1.0508 -1.9706 -1.3734
10230SOL    HW233583   8.504   4.739   4.631 -1.9584 -1.5557 -1.9634
10231SOL     OW33584   5.927   1.492   1.699 -0.1239 -0.0856 -0.0426
10231SOL    HW133585   5.866   1.526   1.763  0.3834  0.6040  0.0910
10231SOL    HW233586   6.002   1.462   1.750 -0.0880 -0.3558 -0.2484
10232SOL     OW33587   7.927   4.486   5.162  0.5208  0.4325  0.3655
10232SOL    HW133588   7.976   4.404   5.148 -0.9898 -0.2558 -1.4734
10232SOL    HW233589   7.959   4.544   5.093 -0.3704  0.3884 -0.0971
10233SOL     OW33590   1.681   9.618   4.015 -0.2365  0.1654  0.1019
10233SOL    HW133591   1.697   9.674   3.939  0.2256 -2.0177 -1.5230
10233SOL    HW233592   1.769   9.590   4.043 -0.4392  0.4867  1.0754
10234SOL     OW33593   4.117   3.840   6.614 -0.1192  0.4725 -0.3086
10234SOL    HW133594   4.119   3.922   6.565  1.1746  0.5243 -0.1987
10234SOL    HW233595   4.062   3.859   6.690 -0.5400  0.9656 -0.7259
10235SOL     OW33596   4.123   0.429   2.606 -0.1178 -0.4520 -0.2048
10235SOL    HW133597   4.039   0.468   2.581  0.8209  1.7528 -0.1941
10235SOL    HW233598   4.144   0.470   2.690  2.1386  1.1481 -1.4048
10236SOL     OW33599   2.032   6.477   3.455 -0.4468 -0.2570  0.3179
10236SOL    HW133600   1.989   6.510   3.377  0.7296  0.5697  0.0037
10236SOL    HW233601   1.960   6.444   3.510 -1.3583  0.0113 -0.6885
10237SOL     OW33602   5.761   0.074   4.812  0.6147  0.3728  0.8358
10237SOL    HW133603   5.721   0.094   4.728  0.2944  1.5891  1.2574
10237SOL    HW233604   5.703   0.009   4.851 -0.4132  1.3560  0.9961
10238SOL     OW33605   5.288   1.173   8.009  0.6877  0.0226 -0.2022
10238SOL    HW133606   5.308   1.199   7.920 -0.5715 -1.4423 -0.9631
10238SOL    HW233607   5.250   1.085   8.001 -0.7972  0.4328  1.6111
10239SOL     OW33608   0.651   4.220   5.275  0.0469 -0.5497  0.2048
10239SOL    HW133609   0.710   4.227   5.350  2.6326 -0.5090 -1.6921
10239SOL    HW233610   0.622   4.310   5.259  0.8362 -0.2933  0.1719
10240SOL     OW33611   4.984   8.115   9.630  0.2091 -0.0253  0.6769
10240SOL    HW133612   4.903   8.146   9.672 -0.8208 -0.4017 -0.9587
10240SOL    HW233613   5.000   8.177   9.559  0.6775 -0.6743  0.2107
10241SOL     OW33614   8.868   8.790   5.180  0.5894  0.0261  0.1885
10241SOL    HW133615   8.935   8.752   5.237  1.0427 -1.0815 -1.0453
10241SOL    HW233616   8.843   8.719   5.121 -1.4794  0.4952  0.4170
10242SOL     OW33617   4.208   6.111   4.717 -0.2177  0.5395 -0.1427
10242SOL    HW133618   4.259   6.063   4.782 -0.9440  0.1042  0.1220
10242SOL    HW233619   4.183   6.045   4.653 -0.5368  0.7264 -0.2118
10243SOL     OW33620   0.813   1.346   3.373  0.1451  0.1264  0.6141
10243SOL    HW133621   0.792   1.397   3.295  0.3775 -0.6527  0.0194
10243SOL    HW233622   0.728   1.313   3.403 -0.0117  0.8934  1.0350
10244SOL     OW33623   3.789   0.812   4.355  0.3672 -0.0179 -0.4379
10244SOL    HW133624   3.878   0.819   4.319  1.6787 -2.8123  1.8316
10244SOL    HW233625   3.746   0.894   4.329  2.8656  0.5264 -3.4427
10245SOL     OW33626   0.872   5.571   2.598 -0.2416 -0.1183 -0.0669
10245SOL    HW133627   0.845   5.661   2.618 -0.9552 -0.0065 -1.4466
10245SOL    HW233628   0.914   5.577   2.512 -0.7726 -1.1883 -0.4064
10246SOL     OW33629   5.104   9.287   5.652  0.1668 -0.3931  0.0063
10246SOL    HW133630   5.184   9.262   5.697  0.4901  0.2686 -0.1868
10246SOL    HW233631   5.078   9.369   5.694 -0.3223 -0.5122 -0.0502
10247SOL     OW33632   5.885   5.277   6.014  0.1491  0.3075 -0.3046
10247SOL    HW133633   5.872   5.328   5.934  0.3152  1.2259  0.2423
10247SOL    HW233634   5.804   5.227   6.023 -0.2871  0.9599 -0.5119
10248SOL     OW33635   2.208   9.133   3.598 -1.0661  0.1740 -0.2456
10248SOL    HW133636   2.171   9.075   3.532 -3.1585  1.7469 -0.5625
10248SOL    HW233637   2.241   9.208   3.548 -1.3871  0.7436  0.3756
10249SOL     OW33638   4.386   7.042   4.787 -0.4327 -0.5220  0.6026
10249SOL    HW133639   4.354   7.025   4.698  0.2139  1.5071 -0.0894
10249SOL    HW233640   4.341   7.122   4.814  0.1718 -0.5296  1.6834
10250SOL     OW33641   2.133   8.890   4.957 -0.4105  0.2143 -0.3446
10250SOL    HW133642   2.103   8.924   5.041  0.7656  0.4934 -0.0275
10250SOL    HW233643   2.121   8.962   4.896  0.8539  0.7729  0.0563
10251SOL     OW33644   4.070   4.913   4.894  0.2170  0.4241 -0.0006
10251SOL    HW133645   4.135   4.860   4.939  0.5548  1.8723  1.3358
10251SOL    HW233646   3.991   4.860   4.894  0.3904  0.0960  1.7797
10252SOL     OW33647   5.890   7.644   7.565 -0.1794  0.1327  0.6707
10252SOL    HW133648   5.880   7.670   7.657 -2.9283  0.0871  0.4720
10252SOL    HW233649   5.885   7.726   7.516  0.0979  0.0413  0.4858
10253SOL     OW33650   6.309   8.935   0.875  0.2176 -0.3422 -0.5973
10253SOL    HW133651   6.396   8.946   0.914  0.1042 -0.8904 -0.1778
10253SOL    HW233652   6.326   8.921   0.782  0.4762  1.2431 -0.8173
10254SOL     OW33653   7.583   0.113   4.337 -0.0457 -0.0252 -0.2856
10254SOL    HW133654   7.516   0.090   4.272 -1.7336  1.0331  0.9689
10254SOL    HW233655   7.624   0.030   4.360 -2.1336 -1.0183  0.1314
10255SOL     OW33656   8.145   8.431   8.501  0.1458  0.1634  0.3463
10255SOL    HW133657   8.234   8.460   8.520  0.2718  0.6324 -0.8335
10255SOL    HW233658   8.089   8.500   8.537  0.2073 -0.3968  1.5743
10256SOL     OW33659   5.634   7.209   2.731 -0.1498  0.4090  0.3363
10256SOL    HW133660   5.603   7.178   2.816  0.4619  1.6899  1.0576
10256SOL    HW233661   5.729   7.210   2.740 -0.1187  1.5524  0.0217
10257SOL     OW33662   8.263   1.773   9.537 -0.1075  0.1127 -0.0031
10257SOL    HW133663   8.230   1.741   9.453  0.1487  2.4987 -1.0986
10257SOL    HW233664   8.358   1.773   9.527  0.0582 -1.6564  1.1527
10258SOL     OW33665   8.738   0.075   6.822 -0.8731  0.0971 -0.1613
10258SOL    HW133666   8.723   0.062   6.916  0.0101  1.3548  0.1880
10258SOL    HW233667   8.833   0.083   6.815 -0.7974 -1.4365 -1.3918
10259SOL     OW33668   9.258   2.117   8.866  0.6604 -0.4825 -0.0537
10259SOL    HW133669   9.277   2.026   8.841  1.3723 -0.2935 -0.2372
10259SOL    HW233670   9.274   2.120   8.960  0.7139 -0.5301 -0.0609
10260SOL     OW33671   1.625   4.744   4.849  0.5446  0.1171  0.6475
10260SOL    HW133672   1.625   4.808   4.919  1.3860 -1.5319  2.2214
10260SOL    HW233673   1.645   4.661   4.892  2.2325 -0.7926 -1.6774
10261SOL     OW33674   4.530   3.597   5.868 -0.5602  0.0080 -0.3262
10261SOL    HW133675   4.443   3.630   5.889 -1.3427 -2.1649  0.0720
10261SOL    HW233676   4.566   3.662   5.807 -1.6437  1.9657  1.0198
10262SOL     OW33677   5.995   8.478   2.412  0.1087  0.3024  0.2314
10262SOL    HW133678   5.976   8.552   2.353  0.5204 -1.2392 -1.9414
10262SOL    HW233679   6.087   8.489   2.436  0.3777  0.1141 -0.6871
10263SOL     OW33680   2.125   3.517   6.103 -0.0671 -0.8230  0.1078
10263SOL    HW133681   2.042   3.562   6.088  0.8962  1.1016  0.2650
10263SOL    HW233682   2.146   3.475   6.019 -0.4029  0.0652 -0.4263
10264SOL     OW33683   3.181   8.581   0.783  0.5620  0.2636  0.0161
10264SOL    HW133684   3.215   8.540   0.862  2.0440  0.4319 -0.5023
10264SOL    HW233685   3.112   8.522   0.753  1.8462 -1.2553 -0.0689
10265SOL     OW33686   8.609   0.441   6.015 -0.4348  0.4324 -0.2906
10265SOL    HW133687   8.686   0.384   6.013 -0.6966 -0.0135  1.1266
10265SOL    HW233688   8.600   0.466   6.107 -1.4383  1.2389 -0.5909
10266SOL     OW33689   1.802   8.778   3.443 -0.2074  0.0278  0.5452
10266SOL    HW133690   1.807   8.852   3.381  0.7330 -1.7397 -1.6403
10266SOL    HW233691   1.726   8.728   3.415  0.0549 -0.6499  1.0153
10267SOL     OW33692   9.061   1.728   8.585 -0.5380  0.3269  0.2127
10267SOL    HW133693   9.151   1.759   8.597  0.6416 -1.0656 -3.5693
10267SOL    HW233694   9.055   1.651   8.642  1.0948 -0.1545 -0.1973
10268SOL     OW33695   7.739   4.148   6.221  0.3230  0.7061  0.2682
10268SOL    HW133696   7.800   4.140   6.147  0.0693 -1.9055  0.2351
10268SOL    HW233697   7.653   4.136   6.182  0.0461  1.0304  0.7731
10269SOL     OW33698   5.867   7.453   0.977 -0.0125  0.0381 -0.0064
10269SOL    HW133699   5.905   7.412   0.899 -1.0414  0.8290 -0.9611
10269SOL    HW233700   5.812   7.524   0.942  0.1054  0.9012  1.4893
10270SOL     OW33701   6.585   1.028   7.457  0.4062  0.1512  0.1097
10270SOL    HW133702   6.510   0.975   7.428 -0.1381  0.9948 -0.0524
10270SOL    HW233703   6.620   0.981   7.533 -1.5103  0.7603  1.4309
10271SOL     OW33704   8.233   4.336   8.114 -0.4717  0.2497 -0.3513
10271SOL    HW133705   8.144   4.369   8.103 -0.7077 -0.0748  0.5238
10271SOL    HW233706   8.222   4.243   8.133  0.1667 -0.3064 -2.3934
10272SOL     OW33707   9.527   1.502   5.917 -0.5089 -0.3179 -0.3801
10272SOL    HW133708   9.564   1.435   5.976  1.5734  1.7118  0.7984
10272SOL    HW233709   9.603   1.532   5.866 -0.8748  2.5606  0.6192
10273SOL     OW33710   7.676   0.621   8.270 -0.3161 -0.1519 -0.0672
10273SOL    HW133711   7.713   0.708   8.256 -0.6194 -0.2341 -1.5192
10273SOL    HW233712   7.712   0.568   8.199 -1.8941 -0.6604 -0.5177
10274SOL     OW33713   7.109   2.127   4.469 -0.2749  0.0987  0.3586
10274SOL    HW133714   7.137   2.071   4.541  0.4018  0.0613  0.0794
10274SOL    HW233715   7.070   2.067   4.405  0.6232 -0.0924 -0.0245
10275SOL     OW33716   5.351   0.448   5.855  0.4580 -0.1235 -0.0885
10275SOL    HW133717   5.329   0.518   5.916 -3.0286 -2.3231  1.4838
10275SOL    HW233718   5.367   0.493   5.772 -0.0558  2.6135  1.1807
10276SOL     OW33719   6.696   8.750   7.211  0.2804  0.0662 -0.5768
10276SOL    HW133720   6.790   8.760   7.220  0.1478  0.4745  0.5155
10276SOL    HW233721   6.684   8.671   7.159  1.2268  0.4103 -1.3400
10277SOL     OW33722   8.702   6.076   3.864 -0.0875 -0.6276 -0.0256
10277SOL    HW133723   8.713   6.003   3.925  0.5652  0.4251  1.1828
10277SOL    HW233724   8.789   6.092   3.830 -0.1705 -0.2502 -0.0686
10278SOL     OW33725   2.956   1.411   1.776 -0.0620 -0.1194 -0.3293
10278SOL    HW133726   2.951   1.485   1.837 -2.0478  0.2352 -0.8748
10278SOL    HW233727   2.988   1.449   1.695  1.5008 -0.3922  0.1175
10279SOL     OW33728   5.729   2.457   0.032  0.1019  0.3734  0.5528
10279SOL    HW133729   5.812   2.503   0.017  0.8340 -1.2085 -0.4869
10279SOL    HW233730   5.701   2.486   0.119  2.1773  0.3018  1.3091
10280SOL     OW33731   7.554   5.978   0.328 -0.3389 -0.2931 -0.2700
10280SOL    HW133732   7.472   5.989   0.280 -0.3905  0.7472  0.0268
10280SOL    HW233733   7.601   6.060   0.314  0.3153 -0.5795  0.2039
10281SOL     OW33734   8.401   7.040   0.822  0.1751  0.1873 -0.0773
10281SOL    HW133735   8.470   7.102   0.847  1.6359 -0.9983 -1.0016
10281SOL    HW233736   8.339   7.093   0.771  0.0311  1.4139  1.3079
10282SOL     OW33737   7.437   0.428   5.284  0.0367 -0.2081 -0.1912
10282SOL    HW133738   7.344   0.436   5.262  0.2079 -0.2883 -0.9662
10282SOL    HW233739   7.475   0.513   5.263  0.0947 -0.0929  0.3647
10283SOL     OW33740   6.477   5.844   8.574  0.1841  0.2544  0.3615
10283SOL    HW133741   6.412   5.888   8.628 -0.8128 -0.0560 -0.5642
10283SOL    HW233742   6.558   5.893   8.589 -0.4065  1.0386  1.0303
10284SOL     OW33743   3.464   2.517   2.489  0.5767 -0.0066 -0.7038
10284SOL    HW133744   3.428   2.444   2.439  0.8496 -1.3158  0.9244
10284SOL    HW233745   3.481   2.584   2.424  0.6834 -1.5329 -2.3283
10285SOL     OW33746   4.169   7.535   5.718  0.1149 -0.3008  0.3893
10285SOL    HW133747   4.221   7.595   5.772  1.2238 -0.3928 -0.5284
10285SOL    HW233748   4.129   7.474   5.781 -1.1382  1.4212  1.3596
10286SOL     OW33749   2.287   4.457   5.981  0.1154  0.5547  0.3862
10286SOL    HW133750   2.230   4.460   5.904  0.4452  0.8998  0.1487
10286SOL    HW233751   2.242   4.511   6.046  1.4221  3.1102 -0.6939
10287SOL     OW33752   5.276   6.767   5.123  0.0199 -0.4502 -0.1767
10287SOL    HW133753   5.303   6.833   5.187  1.6247  1.1463 -2.3675
10287SOL    HW233754   5.203   6.807   5.076 -0.3935 -1.1212 -0.1145
10288SOL     OW33755   2.346   5.290   2.792  0.3501 -0.0842 -0.8192
10288SOL    HW133756   2.378   5.329   2.873  0.0482 -0.9381 -0.2733
10288SOL    HW233757   2.351   5.195   2.807 -1.0005 -0.2524 -1.2665
10289SOL     OW33758   8.624   0.799   6.404 -0.3260  0.1971  0.0246
10289SOL    HW133759   8.694   0.834   6.459  0.5363 -0.6846 -0.5038
10289SOL    HW233760   8.545   0.807   6.458 -0.0817  2.4192  0.1474
10290SOL     OW33761   5.904   9.153   3.206 -0.0230 -0.5594 -0.6092
10290SOL    HW133762   5.829   9.202   3.171 -0.0562 -0.4869 -0.4406
10290SOL    HW233763   5.968   9.220   3.229 -0.1797 -0.5742 -0.1185
10291SOL     OW33764   2.814   5.461   8.341 -0.8234  0.3334  0.5990
10291SOL    HW133765   2.787   5.529   8.403 -0.8612  1.3401 -0.4897
10291SOL    HW233766   2.837   5.509   8.261  1.7486 -0.6620  0.6377
10292SOL     OW33767   0.991   4.152   3.456 -0.2965  0.1541 -0.8133
10292SOL    HW133768   1.035   4.233   3.482 -0.3351  0.0597 -0.4586
10292SOL    HW233769   1.060   4.087   3.450 -0.4276 -0.0716  0.0541
10293SOL     OW33770   5.223   3.040   5.254 -0.6370 -0.3721 -0.4851
10293SOL    HW133771   5.182   3.126   5.249 -1.3893 -0.7416 -0.7923
10293SOL    HW233772   5.215   3.014   5.346  0.4223  0.2720 -0.1910
10294SOL     OW33773   5.987   2.676   1.969  0.4725 -0.3179 -0.0334
10294SOL    HW133774   5.892   2.668   1.971  0.5078 -1.3104 -0.8726
10294SOL    HW233775   6.004   2.747   1.908  0.2653 -0.0432  0.2283
10295SOL     OW33776   4.113   2.633   6.242 -0.7085  0.0043 -0.2109
10295SOL    HW133777   4.167   2.584   6.180  0.1090  0.8271 -0.1661
10295SOL    HW233778   4.036   2.659   6.191 -0.9513 -0.9456 -0.3471
10296SOL     OW33779   8.800   8.418   9.366 -0.4125 -0.5096  0.5304
10296SOL    HW133780   8.719   8.462   9.389 -0.4030  0.9071 -1.7607
10296SOL    HW233781   8.772   8.336   9.325 -0.7866  0.1933 -0.7013
10297SOL     OW33782   6.292   8.820   1.924 -0.0495  0.1335 -0.1283
10297SOL    HW133783   6.222   8.790   1.866 -0.6949  0.2446  0.5747
10297SOL    HW233784   6.266   8.787   2.011  1.9317 -1.8264 -0.1864
10298SOL     OW33785   9.217   7.181   3.117 -0.0815  0.2076  0.2297
10298SOL    HW133786   9.242   7.154   3.029  1.2060  0.3666  0.5291
10298SOL    HW233787   9.286   7.145   3.174 -1.0752 -0.1891  1.2183
10299SOL     OW33788   7.089   5.572   7.582  0.3288 -0.3041  0.0951
10299SOL    HW133789   7.014   5.631   7.589  0.7053  0.1637  0.2534
10299SOL    HW233790   7.147   5.599   7.653 -0.3390 -2.1282  1.4185
10300SOL     OW33791   8.592   5.409   2.052  0.9320  0.3780  0.2863
10300SOL    HW133792   8.593   5.489   2.105 -0.2166  1.2712 -0.9942
10300SOL    HW233793   8.669   5.417   1.995  2.0978 -0.5265  1.6221
10301SOL     OW33794   1.408   2.460   1.267  0.0511 -0.5670 -0.3668
10301SOL    HW133795   1.435   2.506   1.188  0.5594  1.4193  0.8984
10301SOL    HW233796   1.314   2.445   1.256 -0.4026  1.9180 -0.3434
10302SOL     OW33797   9.607   6.696   1.448 -0.3533  0.4561  0.1790
10302SOL    HW133798   9.598   6.713   1.541  0.9471 -1.8980  0.8206
10302SOL    HW233799   9.696   6.662   1.438 -0.3334  0.9839 -1.9971
10303SOL     OW33800   0.118   1.802   3.790 -0.2625  0.5317  0.3325
10303SOL    HW133801   0.035   1.760   3.815 -0.3392  0.8175  0.5576
10303SOL    HW233802   0.094   1.893   3.772 -0.1121  0.4573 -0.2553
10304SOL     OW33803   4.939   2.099   0.562  0.1328  0.2206 -0.0886
10304SOL    HW133804   4.944   2.084   0.468  0.1553  1.2832 -0.2720
10304SOL    HW233805   4.963   2.191   0.573 -2.3742  0.8584  0.6864
10305SOL     OW33806   5.235   9.061   6.955  0.1360 -0.3718 -0.0527
10305SOL    HW133807   5.273   9.123   7.017 -0.3952  0.4844 -0.5530
10305SOL    HW233808   5.308   9.033   6.900  0.6294 -1.2197  1.0077
10306SOL     OW33809   6.016   1.292   3.065 -0.0876 -0.2910 -0.3913
10306SOL    HW133810   6.056   1.209   3.041 -0.4311 -1.1974  1.8704
10306SOL    HW233811   6.046   1.308   3.155 -2.2972  0.5577  0.2615
10307SOL     OW33812   0.875   4.578   5.344  0.7293 -0.0587 -0.0652
10307SOL    HW133813   0.812   4.547   5.409  2.5855  0.3409  2.0553
10307SOL    HW233814   0.862   4.673   5.341  0.6603 -0.0743 -0.2496
10308SOL     OW33815   7.241   4.258   2.806 -0.5163  0.4525 -0.0240
10308SOL    HW133816   7.275   4.332   2.755 -0.0037  1.5316  1.8097
10308SOL    HW233817   7.160   4.291   2.844 -0.8148 -0.2808 -0.0193
10309SOL     OW33818   6.454   4.444   4.277 -0.6532 -0.3829 -0.7514
10309SOL    HW133819   6.359   4.436   4.286 -0.7550  0.6050 -0.8176
10309SOL    HW233820   6.485   4.457   4.366 -0.6262 -0.2471 -0.7812
10310SOL     OW33821   2.761   3.843   8.847 -0.1870  0.2151 -0.8015
10310SOL    HW133822   2.678   3.795   8.842 -0.5536  0.6813  0.5184
10310SOL    HW233823   2.743   3.927   8.805 -0.3836  0.2999 -0.5543
10311SOL     OW33824   6.649   3.229   8.611  0.6630 -0.1521  0.0693
10311SOL    HW133825   6.639   3.283   8.533  0.1543 -0.4990 -0.1069
10311SOL    HW233826   6.733   3.257   8.649  0.9029  0.0285 -0.5847
10312SOL     OW33827   5.604   4.567   2.090 -0.2080  0.0976 -0.2987
10312SOL    HW133828   5.633   4.477   2.107  1.7398  1.1517  2.7520
10312SOL    HW233829   5.584   4.603   2.177  0.6001  3.0682 -1.2193
10313SOL     OW33830   1.068   1.777   4.699  0.4861 -0.2225 -0.2849
10313SOL    HW133831   1.076   1.740   4.611  0.9897 -0.9427  0.0533
10313SOL    HW233832   1.114   1.715   4.755  0.2677  0.2907  0.4740
10314SOL     OW33833   5.036   1.758   2.392  0.4305 -0.2051  0.2688
10314SOL    HW133834   4.982   1.762   2.313 -0.6995 -1.5713  0.9060
10314SOL    HW233835   5.002   1.682   2.440  2.4494 -0.6625  1.0883
10315SOL     OW33836   5.682   2.840   3.229 -0.7107  0.4562 -0.0554
10315SOL    HW133837   5.650   2.928   3.252 -2.0345  0.1830 -0.7762
10315SOL    HW233838   5.605   2.794   3.197  0.2652 -0.4880 -1.1340
10316SOL     OW33839   3.360   1.064   8.692 -0.1832  0.1121 -0.0357
10316SOL    HW133840   3.301   1.097   8.759  1.7001 -2.1571  3.0060
10316SOL    HW233841   3.344   0.970   8.689  1.6943 -0.2376 -0.7139
10317SOL     OW33842   6.923   8.534   7.628  0.3865  0.2986  0.2488
10317SOL    HW133843   6.942   8.558   7.537 -0.4877 -1.1533 -0.3546
10317SOL    HW233844   6.996   8.569   7.678  0.7577  1.3546 -0.9768
10318SOL     OW33845   2.076   4.141   7.255  0.2978 -0.4443  0.1262
10318SOL    HW133846   2.033   4.058   7.274 -1.2853 -0.1573 -1.8178
10318SOL    HW233847   2.080   4.186   7.339  2.1808 -2.8443  1.4398
10319SOL     OW33848   6.522   8.092   9.204 -0.0578 -0.0634  0.2629
10319SOL    HW133849   6.440   8.140   9.204 -0.5129 -0.8037 -0.5544
10319SOL    HW233850   6.570   8.125   9.128  0.9114  1.1675  1.3683
10320SOL     OW33851   7.579   6.157   0.856  0.4238 -0.0219  1.1712
10320SOL    HW133852   7.592   6.109   0.774  1.5624 -0.9875  1.8781
10320SOL    HW233853   7.544   6.092   0.916 -0.3623  0.6690  1.4774
10321SOL     OW33854   4.500   1.315   3.451 -0.3466 -0.2401  0.5436
10321SOL    HW133855   4.448   1.382   3.494 -0.5072 -0.7096  1.0901
10321SOL    HW233856   4.586   1.355   3.440 -0.7689  0.4940 -0.2477
10322SOL     OW33857   9.078   3.285   4.888  0.3166  0.4308  0.4485
10322SOL    HW133858   9.164   3.313   4.859 -0.0308  1.5647  0.4482
10322SOL    HW233859   9.031   3.265   4.807  1.2759 -2.5098  0.5171
10323SOL     OW33860   4.157   6.266   8.335 -0.3695 -0.2145  0.5433
10323SOL    HW133861   4.205   6.223   8.263 -0.0204 -0.2528  0.7939
10323SOL    HW233862   4.127   6.348   8.298 -1.2124 -0.7587 -0.0052
10324SOL     OW33863   9.517   8.570   2.447 -0.4157  0.0181  0.1566
10324SOL    HW133864   9.430   8.597   2.418  0.0213  1.5287  0.1511
10324SOL    HW233865   9.567   8.651   2.450  0.9560 -0.8072  0.3165
10325SOL     OW33866   4.718   4.085   5.048  0.0760  0.8420  0.8151
10325SOL    HW133867   4.730   4.163   5.102  0.5759  1.4583 -0.1449
10325SOL    HW233868   4.647   4.037   5.091  0.3520  1.3786  1.9124
10326SOL     OW33869   8.105   7.332   5.147 -0.2528 -0.7501  0.1518
10326SOL    HW133870   8.199   7.318   5.138 -0.2941 -0.0472 -1.9454
10326SOL    HW233871   8.096   7.379   5.230  1.4722  0.8383 -0.4765
10327SOL     OW33872   7.974   9.618   8.197 -0.0948 -0.0642  0.4445
10327SOL    HW133873   8.015   9.538   8.230 -0.4787 -0.8111 -0.8429
10327SOL    HW233874   7.893   9.589   8.155 -0.8379  1.1402  0.9741
10328SOL     OW33875   8.080   6.196   3.535 -0.1019 -0.0574 -0.0125
10328SOL    HW133876   8.155   6.160   3.488 -0.7683  0.5067 -1.5695
10328SOL    HW233877   8.114   6.275   3.578  0.3987 -0.2951  0.0274
10329SOL     OW33878   3.511   9.346   5.065  0.8067  0.0092  0.3097
10329SOL    HW133879   3.507   9.307   4.977 -0.5228  0.6484  0.0683
10329SOL    HW233880   3.591   9.399   5.064 -1.0438  3.0944 -1.8999
10330SOL     OW33881   3.678   0.531   3.020 -0.0132  0.2514  0.1650
10330SOL    HW133882   3.717   0.490   2.943  0.5982  0.7096  0.2267
10330SOL    HW233883   3.703   0.475   3.093  0.1742  0.3150  0.1490
10331SOL     OW33884   9.182   7.415   7.821 -0.3417  0.0922 -0.4051
10331SOL    HW133885   9.219   7.327   7.830 -1.0310 -0.3353 -1.5328
10331SOL    HW233886   9.087   7.402   7.829 -0.3610  1.1582  2.4220
10332SOL     OW33887   5.466   2.949   8.249  0.2458  0.0022  0.1891
10332SOL    HW133888   5.556   2.979   8.262  0.3290 -0.9961  2.3720
10332SOL    HW233889   5.474   2.854   8.236 -0.4464  0.0109 -0.3617
10333SOL     OW33890   8.521   8.612   1.269  0.5407 -0.4179  0.1669
10333SOL    HW133891   8.505   8.692   1.219  0.1035 -1.1319 -0.8665
10333SOL    HW233892   8.440   8.561   1.259  0.8314 -1.0178  0.7739
10334SOL     OW33893   7.855   2.584   7.489  0.4720 -0.2726 -0.2539
10334SOL    HW133894   7.848   2.613   7.398 -0.3104 -1.8221 -0.7237
10334SOL    HW233895   7.949   2.579   7.506  0.6215  0.4184 -0.8484
10335SOL     OW33896   2.279   4.925   8.834  0.1588  0.2765  0.1587
10335SOL    HW133897   2.266   5.003   8.887  1.2159  1.8752 -1.7830
10335SOL    HW233898   2.361   4.941   8.788  0.3612 -1.9718 -0.3641
10336SOL     OW33899   2.873   7.328   9.462  0.5042  0.7317 -0.4760
10336SOL    HW133900   2.961   7.292   9.466  0.1803 -0.0510 -0.1786
10336SOL    HW233901   2.843   7.310   9.373  1.0131  1.9099 -0.8982
10337SOL     OW33902   5.216   7.400   3.030 -0.1292  0.0254  0.3308
10337SOL    HW133903   5.198   7.358   2.946  0.3206  1.2466 -0.4052
10337SOL    HW233904   5.310   7.420   3.026 -0.6873  2.8526 -0.2104
10338SOL     OW33905   8.406   1.458   6.018 -0.0814 -0.1938 -0.0398
10338SOL    HW133906   8.440   1.533   5.969 -1.0711 -0.3800 -1.0544
10338SOL    HW233907   8.337   1.422   5.963 -0.8077 -0.8125  1.2080
10339SOL     OW33908   8.101   0.766   1.709 -0.2412 -0.6064  0.2987
10339SOL    HW133909   8.091   0.763   1.614  0.2999 -1.0692  0.2469
10339SOL    HW233910   8.015   0.743   1.743 -0.2322 -1.2548 -0.0886
10340SOL     OW33911   4.094   1.980   2.309 -0.0508 -0.4414  0.6773
10340SOL    HW133912   4.084   1.982   2.214  1.4734  0.1860  0.5118
10340SOL    HW233913   4.116   1.888   2.328 -0.3650 -0.5710  0.4341
10341SOL     OW33914   9.578   7.937   4.014  0.3896 -0.0966  0.0698
10341SOL    HW133915   9.613   7.869   4.072 -0.0979  0.6236  1.2573
10341SOL    HW233916   9.485   7.919   4.009  0.5310 -0.5931 -1.1327
10342SOL     OW33917   8.313   5.236   2.488 -0.4915  0.2645  0.2267
10342SOL    HW133918   8.273   5.151   2.472  2.1519 -1.2997  1.2696
10342SOL    HW233919   8.404   5.225   2.461 -0.0303  2.7126  0.5690
10343SOL     OW33920   8.817   6.706   2.014  0.3059  0.2626 -0.0227
10343SOL    HW133921   8.844   6.784   2.063 -0.6419  0.4066  0.2921
10343SOL    HW233922   8.783   6.646   2.080  2.3729 -1.0613 -0.0668
10344SOL     OW33923   6.905   6.193   1.468  0.2956 -0.0317 -0.4380
10344SOL    HW133924   6.811   6.180   1.459  0.1869 -0.5483  1.1506
10344SOL    HW233925   6.939   6.182   1.379 -1.5488  4.5034 -1.9730
10345SOL     OW33926   7.594   5.115   0.130 -0.2769  0.1924 -0.7556
10345SOL    HW133927   7.595   5.196   0.080 -1.3682 -0.4950 -1.9589
10345SOL    HW233928   7.549   5.138   0.212  0.8547  1.1518 -0.3874
10346SOL     OW33929   8.093   8.313   7.536 -0.3726  0.0327 -0.3636
10346SOL    HW133930   8.125   8.346   7.620  0.5678 -0.5514 -0.4750
10346SOL    HW233931   8.073   8.391   7.485  1.0599  0.4310 -0.3472
10347SOL     OW33932   6.437   4.088   4.860  0.1762 -0.1748  0.0127
10347SOL    HW133933   6.431   4.048   4.947 -0.1676  0.2661  0.1965
10347SOL    HW233934   6.469   4.017   4.804 -0.6733 -0.7991  0.2822
10348SOL     OW33935   8.521   9.316   8.285 -0.3193 -0.0931 -0.6462
10348SOL    HW133936   8.609   9.307   8.247  0.6946 -0.6745  1.6487
10348SOL    HW233937   8.488   9.226   8.290 -0.3265 -0.0518  0.0770
10349SOL     OW33938   1.060   5.544   2.297  0.2933 -0.2442 -0.4490
10349SOL    HW133939   1.097   5.477   2.355 -0.1896 -0.6116 -0.5611
10349SOL    HW233940   1.130   5.562   2.234  0.5271 -0.4320 -0.2480
10350SOL     OW33941   0.140   3.071   4.846 -0.3176 -0.2423 -0.1878
10350SOL    HW133942   0.117   3.144   4.903 -1.4427 -1.8084  1.5075
10350SOL    HW233943   0.056   3.036   4.817  0.1133 -1.7584  0.2933
10351SOL     OW33944   4.624   9.274   4.284 -0.0631  0.0652  0.2557
10351SOL    HW133945   4.562   9.214   4.242  1.2591 -0.5490 -0.8857
10351SOL    HW233946   4.645   9.233   4.367  0.4001 -0.8011 -0.2713
10352SOL     OW33947   0.413   5.634   2.721  0.1204  0.1219 -0.1783
10352SOL    HW133948   0.433   5.559   2.778  0.0448  0.6549  0.5651
10352SOL    HW233949   0.339   5.605   2.668  0.6736 -0.6533 -0.5450
10353SOL     OW33950   7.142   0.511   4.704 -0.3693 -0.2356 -0.3483
10353SOL    HW133951   7.115   0.592   4.748 -0.1803 -0.5952  0.4283
10353SOL    HW233952   7.205   0.540   4.638  0.3869  0.1640  0.5308
10354SOL     OW33953   2.203   6.782   4.431  0.2676  0.2554  0.4097
10354SOL    HW133954   2.202   6.746   4.343 -1.1704 -0.4016  0.6550
10354SOL    HW233955   2.205   6.706   4.489 -0.4806  0.6157  0.9371
10355SOL     OW33956   5.202   0.399   5.026 -0.6755  0.2724 -0.2367
10355SOL    HW133957   5.154   0.393   5.108 -0.9351 -1.2229 -0.4757
10355SOL    HW233958   5.210   0.309   4.995  0.6911  0.6599 -1.1300
10356SOL     OW33959   2.306   9.204   6.501  0.6700 -0.4198 -0.2980
10356SOL    HW133960   2.239   9.171   6.562  1.9760  0.0163  1.4687
10356SOL    HW233961   2.371   9.135   6.497  2.1383  0.7820  1.3635
10357SOL     OW33962   3.237   5.086   3.039  1.3995  0.2256  0.1809
10357SOL    HW133963   3.217   4.996   3.012  2.6449  0.0630 -0.2855
10357SOL    HW233964   3.177   5.140   2.988  0.9417 -0.3125  0.1349
10358SOL     OW33965   9.279   8.286   0.450 -0.1397  0.2048 -0.3128
10358SOL    HW133966   9.293   8.336   0.369 -2.1667  0.8000 -0.3639
10358SOL    HW233967   9.323   8.203   0.435  0.2245  0.6210 -1.7127
10359SOL     OW33968   7.186   0.909   8.158  0.3191 -0.5237  0.2580
10359SOL    HW133969   7.113   0.953   8.200  1.1834 -0.2023  1.4719
10359SOL    HW233970   7.253   0.977   8.147  0.4863 -0.8282 -0.7544
10360SOL     OW33971   0.243   8.944   0.968 -0.0039 -0.0278 -0.2964
10360SOL    HW133972   0.304   8.932   0.895 -0.0089 -0.9719 -0.1576
10360SOL    HW233973   0.268   8.877   1.031  0.0615  0.8386  0.6266
10361SOL     OW33974   0.582   6.289   0.740 -0.1876  0.4827 -0.2762
10361SOL    HW133975   0.626   6.273   0.823  0.6891  0.3887 -0.7387
10361SOL    HW233976   0.606   6.213   0.686 -0.1181  0.9088 -0.8538
10362SOL     OW33977   4.721   0.181   5.679  0.0973  0.5924 -0.2527
10362SOL    HW133978   4.690   0.124   5.609  1.4229  1.8887 -1.9966
10362SOL    HW233979   4.649   0.243   5.692 -0.2367  0.2262 -0.3345
10363SOL     OW33980   3.003   5.155   2.205 -0.4534  0.0431 -0.2077
10363SOL    HW133981   3.076   5.216   2.215 -1.2897  0.9743  0.4021
10363SOL    HW233982   2.960   5.182   2.123  1.7561 -2.5950 -2.4490
10364SOL     OW33983   5.412   7.373   1.812  0.2471 -0.5507 -0.0189
10364SOL    HW133984   5.494   7.360   1.766 -0.7969  1.6488 -2.7753
10364SOL    HW233985   5.347   7.324   1.760 -0.6966  0.5279  0.0990
10365SOL     OW33986   9.069   0.952   4.368 -0.4066  0.2401  0.8329
10365SOL    HW133987   9.071   0.916   4.279 -0.7274  1.2089  0.4235
10365SOL    HW233988   9.159   0.975   4.387 -0.4620  0.7936  0.4352
10366SOL     OW33989   1.655   5.075   7.671 -0.1157 -0.4820  0.5367
10366SOL    HW133990   1.651   5.143   7.738  1.4914  0.3426 -0.1401
10366SOL    HW233991   1.571   5.081   7.625 -0.3958  0.3570  1.1481
10367SOL     OW33992   0.195   5.768   2.875  0.0794 -0.0301  0.3311
10367SOL    HW133993   0.236   5.723   2.801 -1.1265  2.4818 -2.0764
10367SOL    HW233994   0.111   5.724   2.886  0.8847 -1.3971  1.3165
10368SOL     OW33995   4.156   5.413   4.258  0.6114  0.5307 -0.5302
10368SOL    HW133996   4.068   5.383   4.281  1.1801 -1.9311 -1.2523
10368SOL    HW233997   4.189   5.454   4.337  0.0054 -1.5122  0.8672
10369SOL     OW33998   6.356   1.805   4.800 -0.2495  0.0634 -0.1540
10369SOL    HW133999   6.360   1.769   4.711 -1.9006 -1.1230  0.2190
10369SOL    HW234000   6.310   1.739   4.851 -1.5551  1.8131  1.0345
10370SOL     OW34001   0.787   8.409   1.516  0.3007  0.7073 -0.1172
10370SOL    HW134002   0.790   8.316   1.495  1.0577  0.4708  0.9524
10370SOL    HW234003   0.878   8.432   1.533  0.0857  1.5892 -0.1307
10371SOL     OW34004   3.372   6.787   4.890 -0.2471 -0.1578  0.0331
10371SOL    HW134005   3.406   6.765   4.804  2.1784  2.3490  0.2150
10371SOL    HW234006   3.422   6.733   4.951  0.1607  0.1921  0.0150
10372SOL     OW34007   1.557   6.055   2.061 -0.2742 -0.1732  0.0240
10372SOL    HW134008   1.522   6.111   1.992  0.5335  0.8661  0.4463
10372SOL    HW234009   1.639   6.021   2.025 -0.2902 -0.3367  0.1386
10373SOL     OW34010   6.681   7.759   1.047 -0.1331 -0.1759  0.7593
10373SOL    HW134011   6.654   7.690   0.985  1.5909  1.2669 -1.8148
10373SOL    HW234012   6.700   7.834   0.991  0.3871  1.6515  3.2481
10374SOL     OW34013   1.994   2.400   4.475  0.2572 -0.3140 -0.3991
10374SOL    HW134014   1.965   2.353   4.397  0.9955 -0.6311 -0.4843
10374SOL    HW234015   2.003   2.332   4.542 -1.9162  0.1411  0.4511
10375SOL     OW34016   5.481   4.368   7.770  0.0301  0.0797  0.1366
10375SOL    HW134017   5.462   4.334   7.682 -0.9365 -0.0776  0.3953
10375SOL    HW234018   5.398   4.359   7.817  0.4079  0.6365  0.9162
10376SOL     OW34019   3.773   0.036   7.400  0.4450 -0.2573  0.2667
10376SOL    HW134020   3.808   0.123   7.418  0.0671  0.1299 -0.7812
10376SOL    HW234021   3.781  -0.011   7.483  1.6641  0.4225  0.5651
10377SOL     OW34022   3.745   3.421   3.370 -0.1857  0.0389 -0.2643
10377SOL    HW134023   3.706   3.496   3.414  1.5202  0.5036  0.5442
10377SOL    HW234024   3.746   3.445   3.278 -0.7607  0.4735 -0.1680
10378SOL     OW34025   9.125   7.059   9.639 -0.2781 -0.4145 -0.3345
10378SOL    HW134026   9.167   7.008   9.709 -0.7076  0.7442  0.8205
10378SOL    HW234027   9.106   6.996   9.571 -0.8794 -1.8182  1.0739
10379SOL     OW34028   2.854   1.545   5.401 -0.1231 -0.0345  0.0048
10379SOL    HW134029   2.944   1.534   5.372  0.0851  0.1736  0.5656
10379SOL    HW234030   2.834   1.637   5.387  0.9327  0.7962  3.0941
10380SOL     OW34031   2.740   2.447   7.653 -0.5526  0.3962  0.4082
10380SOL    HW134032   2.767   2.415   7.567  1.1387 -1.7425  1.6176
10380SOL    HW234033   2.728   2.367   7.705 -2.2514  1.5940  1.9818
10381SOL     OW34034   4.435   6.703   6.830  0.0352 -0.1059 -0.1873
10381SOL    HW134035   4.438   6.796   6.853 -0.2471  0.0777 -0.8691
10381SOL    HW234036   4.385   6.663   6.901 -0.1657  0.3247 -0.0801
10382SOL     OW34037   1.186   0.355   4.854  0.7073 -0.0549  0.0451
10382SOL    HW134038   1.183   0.449   4.835  0.7926 -0.1854 -0.6582
10382SOL    HW234039   1.196   0.350   4.949  2.1663  0.6726 -0.0382
10383SOL     OW34040   9.158   2.424   1.988 -0.2536  0.4125  0.1264
10383SOL    HW134041   9.105   2.495   2.023  0.2305  0.9245 -0.1642
10383SOL    HW234042   9.247   2.443   2.018 -0.3141 -0.8104  1.2025
10384SOL     OW34043   4.821   4.282   4.655 -0.0708  0.3139 -0.2935
10384SOL    HW134044   4.816   4.335   4.735  2.0172  0.2693 -0.0792
10384SOL    HW234045   4.755   4.214   4.668  0.3467  0.1875  1.4883
10385SOL     OW34046   4.612   3.223   7.409 -0.2196  0.8193 -0.1031
10385SOL    HW134047   4.524   3.261   7.410 -0.1560  0.9827  1.0670
10385SOL    HW234048   4.597   3.128   7.410 -0.4199  0.8342  1.6965
10386SOL     OW34049   8.881   7.089   5.512  0.7597  0.2260 -0.1493
10386SOL    HW134050   8.902   7.121   5.424 -1.7996 -1.2238 -1.4097
10386SOL    HW234051   8.801   7.037   5.500 -0.1743  0.6513  3.1843
10387SOL     OW34052   8.861   5.883   7.287  0.4955  0.0088 -0.2279
10387SOL    HW134053   8.818   5.932   7.357 -1.7880  1.5751 -2.5426
10387SOL    HW234054   8.845   5.791   7.308 -0.8113  0.4626  0.8927
10388SOL     OW34055   2.587   1.705   7.978  0.3134  0.4446 -0.2737
10388SOL    HW134056   2.621   1.661   8.056 -2.5744 -1.7083 -0.0477
10388SOL    HW234057   2.635   1.666   7.906  0.9378  0.2416  0.2437
10389SOL     OW34058   6.217   4.311   3.911 -0.0013  0.0643  0.1619
10389SOL    HW134059   6.275   4.386   3.914 -1.3978  1.1518  1.3655
10389SOL    HW234060   6.267   4.243   3.865  0.8062  2.1173 -2.2033
10390SOL     OW34061   5.647   7.078   6.463  0.2612  0.1264 -0.0110
10390SOL    HW134062   5.625   7.117   6.379  0.5884 -0.4787 -0.3876
10390SOL    HW234063   5.657   7.152   6.522  2.4546  0.7808 -1.0736
10391SOL     OW34064   8.762   6.751   1.105 -0.3383  0.1679 -0.3672
10391SOL    HW134065   8.854   6.727   1.094 -0.1939  0.5764 -0.1121
10391SOL    HW234066   8.758   6.843   1.077 -0.3604  0.6040  0.9559
10392SOL     OW34067   3.148   9.251   8.373 -0.1022 -0.0886  0.1262
10392SOL    HW134068   3.089   9.238   8.299  0.2795 -0.7286 -0.0753
10392SOL    HW234069   3.174   9.163   8.399  2.6635  0.1653 -1.3715
10393SOL     OW34070   5.706   2.903   5.111  0.3149  0.1861  0.4655
10393SOL    HW134071   5.688   2.813   5.084  1.2276 -0.0061  0.4515
10393SOL    HW234072   5.662   2.957   5.046  1.1831 -0.2657 -0.5320
10394SOL     OW34073   8.757   3.947   1.688  0.1334  0.0199 -0.1566
10394SOL    HW134074   8.823   3.999   1.643  0.0494  0.1644 -0.1139
10394SOL    HW234075   8.674   3.979   1.653  0.0981 -0.3795 -0.4437
10395SOL     OW34076   0.614   4.427   5.978  0.1094  0.5130  0.0124
10395SOL    HW134077   0.625   4.351   6.036  3.5043  0.5734 -0.3379
10395SOL    HW234078   0.638   4.394   5.891 -1.6308  1.2401 -0.7733
10396SOL     OW34079   1.417   4.963   1.143  0.6974 -0.1422 -0.3349
10396SOL    HW134080   1.439   4.872   1.162 -0.2829 -0.8307 -2.2136
10396SOL    HW234081   1.496   5.012   1.164  1.2690 -1.4292  0.6204
10397SOL     OW34082   9.095   7.324   2.003 -0.9582 -0.4364  0.0416
10397SOL    HW134083   9.139   7.401   2.039  0.3782 -1.0760 -0.1426
10397SOL    HW234084   9.053   7.283   2.078 -1.1632  0.1447  0.2461
10398SOL     OW34085   4.648   2.637   8.846  0.0229  0.8578 -0.3229
10398SOL    HW134086   4.717   2.647   8.912 -2.6190 -0.0843  2.8357
10398SOL    HW234087   4.596   2.717   8.853 -2.1873 -0.6031  1.2740
10399SOL     OW34088   0.146   1.788   1.533 -0.6667 -0.1506  0.0596
10399SOL    HW134089   0.143   1.754   1.443  1.0234  0.6505 -0.3288
10399SOL    HW234090   0.068   1.750   1.575 -2.1404  0.3368 -2.0468
10400SOL     OW34091   1.539   1.816   8.432  0.5803  0.0400  0.0438
10400SOL    HW134092   1.479   1.827   8.358 -1.0160 -1.6312  1.0024
10400SOL    HW234093   1.615   1.772   8.396  0.6439  0.9147 -0.9313
10401SOL     OW34094   9.171   5.299   2.108 -0.7463 -0.6883  0.0244
10401SOL    HW134095   9.132   5.367   2.053  0.4197  0.7800  0.9477
10401SOL    HW234096   9.260   5.328   2.124 -0.0632 -2.6663  0.1257
10402SOL     OW34097   8.156   5.890   7.439  0.6518  0.1416  0.5750
10402SOL    HW134098   8.209   5.828   7.490  2.4137  0.7736 -0.3964
10402SOL    HW234099   8.212   5.967   7.430  0.1030  0.3530 -1.6201
10403SOL     OW34100   9.617   0.063   4.863 -0.1586  0.1517  0.5130
10403SOL    HW134101   9.671   0.142   4.867 -0.6728  0.7381 -2.1913
10403SOL    HW234102   9.570   0.070   4.780  1.3198 -3.9757 -0.9611
10404SOL     OW34103   5.137   8.775   4.544 -0.1843  0.0551  0.2550
10404SOL    HW134104   5.197   8.726   4.600 -1.7326 -1.4803  0.6678
10404SOL    HW234105   5.073   8.813   4.605  0.1760  1.4539 -0.1934
10405SOL     OW34106   7.550   3.056   1.443  0.0148 -0.0863  0.8296
10405SOL    HW134107   7.512   3.058   1.531  0.0590 -0.1409  0.8507
10405SOL    HW234108   7.560   3.148   1.419  1.1908 -0.0448  1.4065
10406SOL     OW34109   9.349   9.042   3.811  0.2353 -0.1421 -0.6771
10406SOL    HW134110   9.356   9.087   3.727 -2.1989  2.1199  0.1853
10406SOL    HW234111   9.290   8.969   3.795 -1.5749  1.2491 -0.6878
10407SOL     OW34112   8.722   9.301   6.184 -0.0275  0.2335  0.4458
10407SOL    HW134113   8.779   9.355   6.239 -0.0016  0.0998  0.5527
10407SOL    HW234114   8.758   9.310   6.096 -0.4429  0.9438  0.3429
10408SOL     OW34115   5.926   8.005   2.340 -0.1331  0.5456 -0.0726
10408SOL    HW134116   5.974   7.956   2.274 -0.2196 -0.6066  0.6931
10408SOL    HW234117   5.946   7.962   2.422 -2.9560 -0.4412  0.2231
10409SOL     OW34118   5.951   2.135   4.395  0.2701  0.4780 -0.1592
10409SOL    HW134119   5.886   2.175   4.337  0.0719 -0.2150 -0.4223
10409SOL    HW234120   5.972   2.051   4.354 -1.4574 -1.0217  1.8478
10410SOL     OW34121   1.392   0.788   8.406  0.2083 -0.1446  0.4817
10410SOL    HW134122   1.321   0.725   8.391 -0.9827  1.2902 -0.0470
10410SOL    HW234123   1.409   0.782   8.500 -0.0562 -1.0531  0.4847
10411SOL     OW34124   8.011   8.956   2.619 -0.0200  0.2345  0.1716
10411SOL    HW134125   7.927   8.925   2.651  0.1562  0.3384  0.7554
10411SOL    HW234126   8.064   8.878   2.610  0.7390  0.3828  2.5653
10412SOL     OW34127   3.758   3.511   2.722 -0.0641 -0.5986  0.4778
10412SOL    HW134128   3.696   3.451   2.681  1.6486 -1.3652 -1.1035
10412SOL    HW234129   3.776   3.471   2.808  0.0474 -1.6666 -0.0246
10413SOL     OW34130   5.494   4.917   1.253  0.4865 -0.6284 -0.3082
10413SOL    HW134131   5.417   4.899   1.307 -0.3698 -0.3721 -1.3999
10413SOL    HW234132   5.563   4.941   1.316  0.7533 -4.2182  1.0097
10414SOL     OW34133   6.509   7.941   2.439 -0.1313  0.1933  0.2176
10414SOL    HW134134   6.524   7.882   2.513  0.4824  0.1262  0.0464
10414SOL    HW234135   6.589   7.935   2.388 -0.1697  0.9878  0.0608
10415SOL     OW34136   5.558   2.372   4.746 -0.0290  0.3410  0.7164
10415SOL    HW134137   5.569   2.367   4.651  0.3257  0.9702  0.7190
10415SOL    HW234138   5.648   2.376   4.780 -0.0791  3.7305  0.8524
10416SOL     OW34139   5.056   2.495   5.560  0.0442  0.0497 -0.1523
10416SOL    HW134140   5.150   2.507   5.568 -0.2086  1.5922  1.2903
10416SOL    HW234141   5.028   2.468   5.648 -1.0585  1.5687  0.0070
10417SOL     OW34142   0.006   0.135   3.751 -0.3495 -0.8598  0.7425
10417SOL    HW134143   0.100   0.153   3.757 -0.4701  0.6656 -1.0348
10417SOL    HW234144  -0.035   0.222   3.751 -1.4816 -1.3218 -1.7801
10418SOL     OW34145   8.664   3.100   6.344  0.1727 -0.0246 -0.5021
10418SOL    HW134146   8.625   3.169   6.292  0.7474 -0.5314 -1.6444
10418SOL    HW234147   8.637   3.019   6.302 -0.6030 -0.5314  0.8964
10419SOL     OW34148   8.046   4.689   6.274 -0.0040  0.3333  0.0345
10419SOL    HW134149   8.017   4.738   6.351 -0.1334  1.0393 -0.4537
10419SOL    HW234150   8.025   4.598   6.295 -0.2121  0.5338  0.7539
10420SOL     OW34151   5.207   0.692   6.873  0.2922 -0.8793 -0.6659
10420SOL    HW134152   5.250   0.695   6.787 -0.8440 -0.7020 -1.2440
10420SOL    HW234153   5.201   0.783   6.900 -1.5215 -0.7120 -1.5275
10421SOL     OW34154   6.840   1.562   9.131 -0.6370  0.0664  0.2321
10421SOL    HW134155   6.894   1.491   9.097  0.3333 -0.4566  2.6401
10421SOL    HW234156   6.811   1.609   9.053  3.1510  0.2950 -1.2576
10422SOL     OW34157   6.263   8.663   8.815 -0.2493 -0.2631  1.1250
10422SOL    HW134158   6.248   8.582   8.864 -1.6645 -1.5750 -1.3246
10422SOL    HW234159   6.355   8.660   8.791 -0.3744 -1.3279  0.7566
10423SOL     OW34160   2.685   3.982   5.691 -0.4684  0.4157  0.3497
10423SOL    HW134161   2.670   4.060   5.637 -0.3762  0.2343  0.0585
10423SOL    HW234162   2.778   3.962   5.680  0.1795  1.8919  2.6396
10424SOL     OW34163   4.390   4.653   1.492 -0.6647 -0.4067  0.0437
10424SOL    HW134164   4.426   4.593   1.427  0.4730  1.2645 -0.9312
10424SOL    HW234165   4.457   4.657   1.560  0.0000  0.9386 -0.6605
10425SOL     OW34166   7.994   5.678   0.061  0.5543  0.3964 -0.2004
10425SOL    HW134167   7.964   5.759   0.103 -1.6633  0.2575 -1.3585
10425SOL    HW234168   7.943   5.609   0.103  1.4947 -0.2738 -0.1227
10426SOL     OW34169   2.356   2.764   5.090  0.5788 -0.1033  0.3410
10426SOL    HW134170   2.313   2.759   5.004  0.1235 -0.9315  0.6189
10426SOL    HW234171   2.285   2.757   5.153  0.8661  0.9265  0.8066
10427SOL     OW34172   2.518   0.758   7.754 -0.1690 -0.2683 -0.1494
10427SOL    HW134173   2.458   0.771   7.827  0.4850  0.2664  0.3056
10427SOL    HW234174   2.585   0.825   7.765  1.2024 -1.6160  0.0848
10428SOL     OW34175   7.264   7.839   2.107  0.3489 -0.3067 -0.5095
10428SOL    HW134176   7.332   7.832   2.174  1.7828 -0.0335 -1.8774
10428SOL    HW234177   7.253   7.933   2.093  1.3250 -0.3556 -1.8351
10429SOL     OW34178   7.182   1.612   8.946 -0.2850  0.2999  0.0991
10429SOL    HW134179   7.233   1.630   9.025 -1.4859  1.4585  0.6564
10429SOL    HW234180   7.123   1.687   8.939 -1.5371 -0.7364 -0.8063
10430SOL     OW34181   6.692   8.186   0.943  0.1509 -0.1042 -0.2617
10430SOL    HW134182   6.613   8.230   0.973  0.3573 -0.8026  1.4197
10430SOL    HW234183   6.728   8.245   0.876  0.4873  2.4118  1.9581
10431SOL     OW34184   8.892   2.055   0.866  0.3380  0.4767 -0.2312
10431SOL    HW134185   8.881   1.980   0.807 -0.6861  0.0478  0.4868
10431SOL    HW234186   8.982   2.083   0.851  0.1375  0.3210 -1.9332
10432SOL     OW34187   2.650   2.979   8.752 -0.1330 -0.1204 -0.6210
10432SOL    HW134188   2.592   2.903   8.759  1.8864 -1.5879  2.0428
10432SOL    HW234189   2.738   2.942   8.750  0.9508  2.1142  1.0051
10433SOL     OW34190   2.220   3.244   3.555 -0.3520  0.6278 -0.2999
10433SOL    HW134191   2.278   3.293   3.497 -0.6032  1.5184  0.1601
10433SOL    HW234192   2.149   3.214   3.499  1.0827 -1.4776 -1.1034
10434SOL     OW34193   0.132   9.443   1.268  0.0919 -0.3084  0.3941
10434SOL    HW134194   0.120   9.406   1.181  3.0282 -0.7017  0.0340
10434SOL    HW234195   0.110   9.372   1.328  0.3923 -0.8537 -0.1347
10435SOL     OW34196   2.793   7.643   4.375 -0.4883 -0.4022 -0.9301
10435SOL    HW134197   2.833   7.558   4.388  1.4703  0.6865  0.7781
10435SOL    HW234198   2.821   7.671   4.288  1.3774 -0.2767 -0.3258
10436SOL     OW34199   5.041   1.610   8.774  0.0943 -0.1291  0.2681
10436SOL    HW134200   5.005   1.560   8.846 -2.0256  0.5193 -0.2555
10436SOL    HW234201   5.040   1.701   8.805  1.4800 -0.1154  0.2965
10437SOL     OW34202   7.206   9.403   9.058 -0.0587 -0.3866 -0.4089
10437SOL    HW134203   7.249   9.431   9.138  0.1190 -1.2125 -0.2042
10437SOL    HW234204   7.157   9.479   9.028  0.6532  0.2248 -0.0413
10438SOL     OW34205   8.044   9.185   2.457 -0.0989  0.1767 -0.1480
10438SOL    HW134206   8.054   9.114   2.521 -0.9050 -0.9902 -1.2772
10438SOL    HW234207   8.116   9.172   2.396  1.4961  2.1013  1.1827
10439SOL     OW34208   1.112   7.859   0.625 -0.2668  0.4655 -0.8128
10439SOL    HW134209   1.096   7.909   0.545  0.0007  1.8279 -0.0562
10439SOL    HW234210   1.067   7.909   0.693 -0.9092 -0.9418 -0.1696
10440SOL     OW34211   7.615   5.679   5.815 -0.5973  0.2203  0.1649
10440SOL    HW134212   7.681   5.662   5.882  1.3048  0.1047 -1.6389
10440SOL    HW234213   7.535   5.639   5.849  0.2883  0.1951  2.3469
10441SOL     OW34214   8.253   1.111   7.137 -0.1202  0.5418  0.3278
10441SOL    HW134215   8.197   1.156   7.074 -1.3580  0.4601  1.3458
10441SOL    HW234216   8.290   1.038   7.087 -2.8066 -0.8490  0.2183
10442SOL     OW34217   3.217   2.723   5.714  0.4016 -0.2164 -0.9510
10442SOL    HW134218   3.271   2.709   5.636  1.0686  0.3244 -0.6008
10442SOL    HW234219   3.276   2.766   5.777 -0.2856 -0.1154 -0.3569
10443SOL     OW34220   9.545   7.120   3.894 -0.0097  0.3104  0.3305
10443SOL    HW134221   9.500   7.050   3.942  1.8419  0.2989  2.2410
10443SOL    HW234222   9.537   7.096   3.802 -0.2930 -1.8821  0.8774
10444SOL     OW34223   1.906   3.838   8.792 -0.2558 -0.0891  0.0178
10444SOL    HW134224   1.931   3.758   8.838  1.1956 -0.6082 -1.5778
10444SOL    HW234225   1.985   3.865   8.746 -1.0801  1.5610 -0.5143
10445SOL     OW34226   1.548   5.865   7.959 -0.1712  0.1427 -0.2463
10445SOL    HW134227   1.595   5.792   7.999  1.0740  0.9526 -0.2027
10445SOL    HW234228   1.456   5.841   7.968  0.1962 -1.1742  0.2390
10446SOL     OW34229   8.655   4.633   5.060  0.0779 -0.9044  0.5795
10446SOL    HW134230   8.657   4.616   5.154  0.7095 -1.4218  0.4813
10446SOL    HW234231   8.707   4.562   5.022  0.0430 -0.5522 -0.1381
10447SOL     OW34232   4.791   0.739   7.397  0.2836 -0.7398 -0.3566
10447SOL    HW134233   4.716   0.769   7.448 -0.3228 -1.2272 -0.9491
10447SOL    HW234234   4.834   0.819   7.367  0.3608 -0.4552  0.4953
10448SOL     OW34235   5.818   8.946   4.474 -0.1273 -0.0104  0.0323
10448SOL    HW134236   5.907   8.946   4.509  0.4576 -1.1944 -1.3336
10448SOL    HW234237   5.788   9.036   4.485  1.2291  0.4112  0.5321
10449SOL     OW34238   3.693   7.476   4.738  0.1742 -0.3342  0.1281
10449SOL    HW134239   3.685   7.556   4.790 -1.2226 -0.9144  0.8670
10449SOL    HW234240   3.606   7.464   4.699  0.4656 -1.3142 -0.2462
10450SOL     OW34241   5.273   4.300   1.184 -0.7784 -0.0378  0.6579
10450SOL    HW134242   5.255   4.317   1.092 -0.7293 -0.9195  0.4729
10450SOL    HW234243   5.191   4.265   1.218 -0.3996 -1.0339  0.5953
10451SOL     OW34244   5.630   3.690   5.787 -0.0719  0.1963 -0.2256
10451SOL    HW134245   5.639   3.708   5.881  2.8563  1.7105 -0.6950
10451SOL    HW234246   5.543   3.725   5.766 -1.3115 -1.2153  2.0704
10452SOL     OW34247   6.522   8.156   3.614  0.2802  0.1949  0.6874
10452SOL    HW134248   6.428   8.168   3.596  0.7264  1.1407 -1.3387
10452SOL    HW234249   6.526   8.079   3.670 -1.6212 -0.7764 -0.4082
10453SOL     OW34250   7.846   4.981   5.271 -0.2078 -0.4695  0.3499
10453SOL    HW134251   7.849   5.065   5.318 -0.1101 -0.4247  0.2630
10453SOL    HW234252   7.882   4.918   5.333  1.7884 -0.0928 -0.3563
10454SOL     OW34253   7.975   7.740   1.178 -0.2290 -0.0478  0.0243
10454SOL    HW134254   8.033   7.797   1.228  0.4614 -0.4427 -0.3067
10454SOL    HW234255   7.955   7.791   1.099  0.6446 -0.3751 -0.4210
10455SOL     OW34256   3.626   6.719   5.705  0.4155 -0.7663 -0.0841
10455SOL    HW134257   3.712   6.746   5.674  1.0457 -1.5398  0.9338
10455SOL    HW234258   3.610   6.635   5.662  0.4080 -0.8708  0.1193
10456SOL     OW34259   2.946   3.315   8.373 -0.4182  0.1707  0.2552
10456SOL    HW134260   2.906   3.270   8.447  3.1978 -2.8380  0.6697
10456SOL    HW234261   2.951   3.407   8.400 -1.9132 -0.3192  2.4004
10457SOL     OW34262   8.486   1.164   0.728  0.3114 -0.0155 -0.7810
10457SOL    HW134263   8.539   1.208   0.794  2.9345 -3.1089 -0.5686
10457SOL    HW234264   8.395   1.176   0.757  1.2896 -0.3617  2.8698
10458SOL     OW34265   0.901   1.849   6.558  0.1470 -0.3452 -0.5245
10458SOL    HW134266   0.808   1.872   6.564 -0.7401 -2.7217 -2.7772
10458SOL    HW234267   0.934   1.900   6.484  0.6911  0.4906  0.2675
10459SOL     OW34268   7.085   1.993   3.235 -0.0060 -0.0931 -0.1499
10459SOL    HW134269   7.038   1.929   3.182  0.2427 -0.5172  0.1329
10459SOL    HW234270   7.078   1.959   3.325 -0.2760  0.5203  0.0683
10460SOL     OW34271   8.329   8.960   5.322 -0.8888 -0.2152 -0.0773
10460SOL    HW134272   8.358   9.050   5.308 -1.6547 -0.2085 -1.8969
10460SOL    HW234273   8.235   8.967   5.340 -1.5429 -0.7516 -2.8270
10461SOL     OW34274   8.914   8.260   6.726 -0.3129 -0.2824 -0.4906
10461SOL    HW134275   8.873   8.252   6.812 -1.4672 -1.0417 -1.0854
10461SOL    HW234276   8.960   8.344   6.729 -0.2201 -0.3589  0.9038
10462SOL     OW34277   8.695   7.747   0.750 -0.3499 -0.0296  0.0163
10462SOL    HW134278   8.644   7.827   0.746 -1.2669 -0.5895  0.2328
10462SOL    HW234279   8.634   7.677   0.727 -0.4884 -1.0448  2.9904
10463SOL     OW34280   3.305   3.925   2.547  0.4821 -0.1210  0.5027
10463SOL    HW134281   3.264   3.979   2.615 -0.6581 -0.2803 -0.0282
10463SOL    HW234282   3.320   3.987   2.475 -0.6995 -0.4373 -0.0541
10464SOL     OW34283   1.072   7.007   5.379  0.5367  0.2886  0.2297
10464SOL    HW134284   0.988   7.046   5.401 -1.7241 -4.0608  0.4090
10464SOL    HW234285   1.115   6.992   5.463  0.9918  1.3551  0.2102
10465SOL     OW34286   1.357   9.585   5.826 -0.0694  0.7324  0.1957
10465SOL    HW134287   1.419   9.512   5.825 -0.7383  0.1604 -0.1793
10465SOL    HW234288   1.413   9.663   5.828  0.6557  0.2199  0.3545
10466SOL     OW34289   0.132   5.070   1.311  0.3873 -0.4451  0.7476
10466SOL    HW134290   0.082   4.999   1.352  0.3863 -0.6705  0.3581
10466SOL    HW234291   0.135   5.138   1.378  2.0757 -1.5556  1.8828
10467SOL     OW34292   1.490   2.870   2.157 -0.2345  0.3400 -0.2895
10467SOL    HW134293   1.457   2.953   2.121  0.4188  0.1865 -1.2777
10467SOL    HW234294   1.540   2.897   2.234 -1.9689  0.6398  0.7650
10468SOL     OW34295   2.684   6.130   2.139 -0.3172  0.2439 -0.3656
10468SOL    HW134296   2.743   6.203   2.156 -0.9323  0.4955  0.8118
10468SOL    HW234297   2.738   6.052   2.152  0.2573  0.4679 -1.3044
10469SOL     OW34298   8.932   1.474   4.598  0.1403  0.0951 -0.4744
10469SOL    HW134299   8.954   1.380   4.595 -0.2158 -0.0616  1.0698
10469SOL    HW234300   8.986   1.513   4.529  1.3569 -1.0524 -0.2251
10470SOL     OW34301   8.187   5.295   0.747 -0.1963 -0.7284 -0.3995
10470SOL    HW134302   8.146   5.357   0.687  0.7404 -0.0164 -0.3153
10470SOL    HW234303   8.266   5.339   0.778  0.1444 -1.7020  0.1720
10471SOL     OW34304   7.166   3.252   4.475  0.5880  0.4865  0.1858
10471SOL    HW134305   7.210   3.314   4.533  1.1051  3.2563 -2.8740
10471SOL    HW234306   7.082   3.292   4.454  0.7409  0.0008 -1.5409
10472SOL     OW34307   5.206   4.900   4.627 -0.2195 -0.4822 -0.3941
10472SOL    HW134308   5.255   4.966   4.578  0.3123  0.3535  1.1834
10472SOL    HW234309   5.173   4.947   4.704  0.1338 -2.0275  0.7594
10473SOL     OW34310   9.635   2.744   3.925 -0.1572  0.1667  0.6193
10473SOL    HW134311   9.635   2.832   3.887  0.1053 -0.8594 -1.8980
10473SOL    HW234312   9.551   2.706   3.901 -0.5464 -0.1073  2.2522
10474SOL     OW34313   8.141   7.059   1.900 -0.0416 -0.2881  0.1314
10474SOL    HW134314   8.170   6.973   1.870  2.0095  0.0507  0.9788
10474SOL    HW234315   8.222   7.110   1.908 -1.2044  1.7473 -0.3844
10475SOL     OW34316   3.341   0.980   6.164 -0.2740  0.0904 -0.5854
10475SOL    HW134317   3.392   1.018   6.093  1.7795  0.0008  0.7568
10475SOL    HW234318   3.276   0.925   6.121  2.6328 -2.1994 -2.4372
10476SOL     OW34319   3.261   4.419   8.915 -0.0605  0.4044 -0.1342
10476SOL    HW134320   3.216   4.459   8.990 -0.1493 -0.4101  0.2535
10476SOL    HW234321   3.280   4.493   8.857  0.5933  1.1535  0.9910
10477SOL     OW34322   8.415   1.793   3.618 -0.1566  0.1725 -0.6099
10477SOL    HW134323   8.473   1.861   3.585 -1.2974  0.1724 -2.7805
10477SOL    HW234324   8.327   1.826   3.603 -0.7356 -1.3682 -0.8491
10478SOL     OW34325   8.422   9.462   2.943  0.3957  0.2390  0.8731
10478SOL    HW134326   8.443   9.505   3.026  0.5545  0.3558  0.7736
10478SOL    HW234327   8.337   9.421   2.958 -0.0357  1.0621  0.7967
10479SOL     OW34328   8.452   1.974   0.570  0.4170  0.3884  0.1951
10479SOL    HW134329   8.421   1.898   0.522  1.8936 -0.9515  1.2766
10479SOL    HW234330   8.424   1.959   0.660  2.2962  0.1445  0.7887
10480SOL     OW34331   4.270   4.207   7.546  0.3021  0.2424  0.1786
10480SOL    HW134332   4.191   4.254   7.519  0.0358 -0.3174 -0.0362
10480SOL    HW234333   4.238   4.123   7.578  0.9080 -0.5785 -1.2774
10481SOL     OW34334   9.115   8.665   2.976 -0.5730 -0.3908  0.3356
10481SOL    HW134335   9.201   8.699   3.001 -1.2302  0.0266  2.1843
10481SOL    HW234336   9.133   8.601   2.908  1.0540  0.7932 -0.4069
10482SOL     OW34337   7.433   6.509   5.829  0.8871 -0.6966 -0.3999
10482SOL    HW134338   7.351   6.488   5.784  1.4426 -2.3074 -0.7254
10482SOL    HW234339   7.407   6.570   5.899 -0.3250  0.0824 -1.4746
10483SOL     OW34340   6.629   2.046   5.364  0.1465  0.0533  0.7329
10483SOL    HW134341   6.719   2.017   5.372  0.2059  0.3027  0.9385
10483SOL    HW234342   6.626   2.092   5.279  0.4509  0.9274  1.1853
10484SOL     OW34343   2.688   1.178   4.788 -0.0813 -0.0307  0.1631
10484SOL    HW134344   2.723   1.121   4.856  0.7439 -0.0811 -0.2902
10484SOL    HW234345   2.601   1.203   4.820  0.9163  1.3067  2.0414
10485SOL     OW34346   8.743   7.365   8.396 -0.2966  0.0449  0.2359
10485SOL    HW134347   8.658   7.405   8.376 -0.4267  0.7835  2.1400
10485SOL    HW234348   8.783   7.352   8.310 -1.6885  1.0934 -0.6256
10486SOL     OW34349   6.707   3.312   2.648  0.4004 -0.4950 -0.3523
10486SOL    HW134350   6.622   3.319   2.604  1.4352  1.5753 -2.2391
10486SOL    HW234351   6.694   3.355   2.733 -0.0265  1.6450 -1.4237
10487SOL     OW34352   6.738   5.764   3.698 -0.1295  0.3058  0.1704
10487SOL    HW134353   6.749   5.845   3.647 -1.1490  0.6355  0.4492
10487SOL    HW234354   6.646   5.740   3.684  0.0906 -0.6589  0.3212
10488SOL     OW34355   2.241   3.246   7.234 -0.0543  0.2593  0.0456
10488SOL    HW134356   2.270   3.155   7.231  1.0379  0.6162 -1.7012
10488SOL    HW234357   2.161   3.247   7.180 -0.6766  0.1553  0.9483
10489SOL     OW34358   2.584   4.221   3.605  0.4894  0.4521 -0.4160
10489SOL    HW134359   2.515   4.197   3.668  0.9732  0.0727 -0.0236
10489SOL    HW234360   2.610   4.309   3.632 -0.3242  0.8848 -1.0012
10490SOL     OW34361   1.249   1.770   7.653 -0.0521  0.1166  0.2772
10490SOL    HW134362   1.342   1.770   7.674  1.0284 -0.7310 -3.6833
10490SOL    HW234363   1.237   1.844   7.595 -1.3776 -0.9396 -0.8800
10491SOL     OW34364   4.198   0.570   0.849  0.4065 -0.9243  0.3827
10491SOL    HW134365   4.128   0.590   0.911 -0.3899  0.5771 -0.9396
10491SOL    HW234366   4.277   0.601   0.892 -0.1145 -0.0264  0.7148
10492SOL     OW34367   5.626   4.354   0.075  0.2883 -0.1423 -0.0148
10492SOL    HW134368   5.533   4.338   0.056 -0.0958  0.1276  1.4876
10492SOL    HW234369   5.642   4.443   0.044  0.0861 -0.2326 -0.3888
10493SOL     OW34370   5.511   3.726   3.624  0.2291  0.2219 -0.0581
10493SOL    HW134371   5.584   3.703   3.565  0.9762 -0.8951  1.2426
10493SOL    HW234372   5.538   3.692   3.709 -0.9891  1.4913  0.8658
10494SOL     OW34373   6.372   5.868   3.664 -0.8348 -0.1779  1.3791
10494SOL    HW134374   6.337   5.945   3.619  3.2059  1.3412  0.3793
10494SOL    HW234375   6.396   5.900   3.751  0.6517 -0.2850  1.0380
10495SOL     OW34376   4.463   8.424   8.807 -0.0048  0.4051  0.1006
10495SOL    HW134377   4.527   8.394   8.742  0.7971  1.3458  0.4327
10495SOL    HW234378   4.473   8.363   8.880 -0.1514 -0.0122 -0.2233
10496SOL     OW34379   8.430   2.070   8.453  0.0521 -0.4249 -0.0128
10496SOL    HW134380   8.363   2.077   8.385 -0.1346  0.2543  0.2401
10496SOL    HW234381   8.457   1.978   8.451 -2.0404 -1.1202  0.9819
10497SOL     OW34382   6.026   4.522   8.781  0.7268 -0.0518  0.0338
10497SOL    HW134383   5.970   4.483   8.713 -0.3089  0.7814  0.3862
10497SOL    HW234384   6.053   4.448   8.835  0.6943 -0.5814 -0.6577
10498SOL     OW34385   1.014   0.902   3.246  0.1878 -0.3354 -1.0116
10498SOL    HW134386   1.065   0.866   3.318 -0.0843 -1.2666 -1.2643
10498SOL    HW234387   0.929   0.924   3.286  0.3922  0.1427 -0.8331
10499SOL     OW34388   1.416   8.358   2.784  0.6103  0.2232 -0.0638
10499SOL    HW134389   1.329   8.320   2.796  0.9033 -1.1102 -1.7946
10499SOL    HW234390   1.406   8.449   2.812 -1.4461  0.2035 -0.5702
10500SOL     OW34391   9.333   6.077   0.595 -0.4746 -0.4708  0.0588
10500SOL    HW134392   9.356   6.126   0.674 -0.2567  0.1625 -0.3872
10500SOL    HW234393   9.406   6.093   0.535 -0.6618 -0.9061 -0.2887
10501SOL     OW34394   5.975   7.361   3.495  0.0649 -0.3293 -0.3504
10501SOL    HW134395   6.018   7.371   3.410  0.4705  1.0119 -0.0181
10501SOL    HW234396   5.897   7.308   3.476 -1.0285  1.6716 -2.0001
10502SOL     OW34397   8.938   3.943   1.087 -0.3469  0.2157 -0.1372
10502SOL    HW134398   8.860   3.943   1.032  0.2241  0.8650 -0.9603
10502SOL    HW234399   8.979   4.028   1.073  2.3414 -1.2826 -2.4107
10503SOL     OW34400   7.903   5.432   9.262 -0.2394 -0.0257  0.6303
10503SOL    HW134401   7.926   5.369   9.193 -0.2491 -0.5574  1.1045
10503SOL    HW234402   7.985   5.480   9.279  0.1922 -0.9692  1.3422
10504SOL     OW34403   6.071   3.504   7.184 -0.2569 -0.0397  0.0539
10504SOL    HW134404   6.100   3.464   7.266  0.2952  0.3545  0.0599
10504SOL    HW234405   6.004   3.567   7.211  0.5354  0.7178  0.3145
10505SOL     OW34406   2.817   1.214   1.626  0.5689  0.4330  0.3405
10505SOL    HW134407   2.835   1.226   1.533 -0.0161 -0.1040  0.1568
10505SOL    HW234408   2.868   1.283   1.669 -1.2047  2.4400 -0.5602
10506SOL     OW34409   0.263   9.049   4.658 -0.4072  0.0679  0.4418
10506SOL    HW134410   0.358   9.037   4.662 -0.3555  0.1037 -0.5799
10506SOL    HW234411   0.230   8.997   4.731  0.0724 -3.8274 -1.8216
10507SOL     OW34412   5.008   1.026   0.359 -0.1200 -0.3003  0.1608
10507SOL    HW134413   4.916   0.998   0.364 -0.0470 -0.4229  1.0496
10507SOL    HW234414   5.058   0.948   0.384  0.2011 -0.1068  0.1260
10508SOL     OW34415   3.101   0.021   5.338  0.3522  0.1664 -0.1174
10508SOL    HW134416   3.195   0.003   5.326  0.1612 -0.6566 -0.4208
10508SOL    HW234417   3.078  -0.026   5.418  1.1225  3.8278  2.5175
10509SOL     OW34418   6.753   2.330   2.757 -0.7827 -0.2043  0.2044
10509SOL    HW134419   6.760   2.410   2.809  1.5700  0.3674 -0.8442
10509SOL    HW234420   6.833   2.281   2.777 -1.3866 -1.5006 -0.4345
10510SOL     OW34421   9.410   8.920   7.084  0.4634 -0.2528 -0.5724
10510SOL    HW134422   9.376   8.892   7.169 -1.8749  2.1481 -0.5795
10510SOL    HW234423   9.495   8.958   7.105 -0.6789  1.6545  1.0670
10511SOL     OW34424   5.572   6.886   6.685 -0.1464  0.5627  0.1041
10511SOL    HW134425   5.484   6.849   6.689 -0.0844  0.1495 -1.6207
10511SOL    HW234426   5.576   6.929   6.600  2.0699 -1.5333 -0.9876
10512SOL     OW34427   8.233   7.290   2.344 -0.3776 -0.3523  0.7036
10512SOL    HW134428   8.268   7.376   2.366 -0.7763  0.1736 -0.6272
10512SOL    HW234429   8.271   7.270   2.258 -2.2152 -0.3619 -0.1607
10513SOL     OW34430   7.945   3.389   8.269  0.1829  0.1481 -0.3368
10513SOL    HW134431   8.001   3.311   8.267  0.0185  0.0279 -0.2934
10513SOL    HW234432   7.995   3.452   8.321  0.4729  0.1949 -0.6664
10514SOL     OW34433   8.977   6.296   1.503 -0.1770 -0.2421  1.3452
10514SOL    HW134434   8.977   6.390   1.522 -1.9807 -0.0628  0.6365
10514SOL    HW234435   8.894   6.280   1.458  0.4983 -2.0269  0.6279
10515SOL     OW34436   7.126   6.298   8.265 -0.0966 -0.3433 -0.0621
10515SOL    HW134437   7.086   6.294   8.352 -1.0556  0.0205 -0.4745
10515SOL    HW234438   7.203   6.241   8.271  0.5981  0.6979  1.4036
10516SOL     OW34439   4.380   5.516   5.260 -0.4899 -0.9104  0.0754
10516SOL    HW134440   4.475   5.506   5.269 -0.6619 -1.1557  2.0876
10516SOL    HW234441   4.359   5.471   5.179  1.2237  0.0027 -0.9360
10517SOL     OW34442   6.026   3.611   6.554  0.7244  0.1415 -0.2777
10517SOL    HW134443   5.994   3.522   6.538  0.1405  0.3908 -0.5120
10517SOL    HW234444   5.948   3.661   6.577  0.7004  1.0759 -2.2263
10518SOL     OW34445   3.634   8.996   8.336 -0.2978  0.9421  0.4878
10518SOL    HW134446   3.708   8.941   8.307 -1.8220 -0.1452 -1.6734
10518SOL    HW234447   3.633   8.987   8.431  0.7320 -1.2519  0.3641
10519SOL     OW34448   3.121   5.752   2.113  0.2942  0.0380  0.2967
10519SOL    HW134449   3.078   5.673   2.083  0.3478  0.4514 -0.9139
10519SOL    HW234450   3.205   5.753   2.067  0.0577  1.0838 -0.1383
10520SOL     OW34451   8.363   8.893   0.809  0.3504  0.2727  0.1330
10520SOL    HW134452   8.269   8.910   0.822  0.6896  3.2512 -0.6172
10520SOL    HW234453   8.389   8.955   0.740  2.4204 -2.1413 -1.4157
10521SOL     OW34454   0.841   7.502   1.683 -0.1857  0.2535  0.4294
10521SOL    HW134455   0.880   7.548   1.758 -1.5996  1.1563  0.6478
10521SOL    HW234456   0.758   7.547   1.668 -0.0838 -0.1198 -1.5043
10522SOL     OW34457   7.039   6.593   2.152 -0.5224 -0.1682  0.1761
10522SOL    HW134458   7.084   6.586   2.068 -0.2797  1.2134  0.1580
10522SOL    HW234459   6.983   6.516   2.156  0.2148 -0.7823 -0.7938
10523SOL     OW34460   9.164   6.214   0.199 -0.3938 -0.0215  0.2978
10523SOL    HW134461   9.243   6.162   0.192 -1.8267 -2.4929  1.1227
10523SOL    HW234462   9.106   6.179   0.131 -0.8270  1.6894 -0.2577
10524SOL     OW34463   5.011   3.542   7.292  0.1919  0.0849 -0.3641
10524SOL    HW134464   4.938   3.558   7.232  0.1695 -0.3696 -0.4587
10524SOL    HW234465   5.066   3.479   7.246  0.8518  0.7138 -0.4637
10525SOL     OW34466   7.395   2.879   1.298 -0.1113 -0.3630  0.3035
10525SOL    HW134467   7.445   2.828   1.235  1.8756 -0.5570  1.9428
10525SOL    HW234468   7.460   2.931   1.345 -1.2810 -1.1716  3.0435
10526SOL     OW34469   7.152   6.682   4.315  0.4753  0.6463  0.1629
10526SOL    HW134470   7.227   6.623   4.326 -0.9861 -1.1857  0.7581
10526SOL    HW234471   7.112   6.655   4.232  1.2226  2.5627 -0.8870
10527SOL     OW34472   8.045   7.465   4.915  0.2664  0.4959 -0.4535
10527SOL    HW134473   8.096   7.415   4.979  1.1871  1.0950 -0.7105
10527SOL    HW234474   7.961   7.480   4.959 -1.4652 -4.1853 -1.5654
10528SOL     OW34475   7.220   8.995   7.445  0.0718 -0.3152  0.4708
10528SOL    HW134476   7.216   9.018   7.352 -0.5681 -0.6270  0.4167
10528SOL    HW234477   7.213   9.079   7.491 -0.9121 -0.2689  0.2521
10529SOL     OW34478   5.891   7.225   4.922  0.1746 -0.0021 -0.3140
10529SOL    HW134479   5.873   7.156   4.858  0.6208 -0.6417  0.2488
10529SOL    HW234480   5.812   7.230   4.975 -0.1062  0.3702 -0.7517
10530SOL     OW34481   4.317   3.875   6.312  0.3694 -0.1628 -0.5933
10530SOL    HW134482   4.235   3.922   6.295  0.5246  0.4703  0.3080
10530SOL    HW234483   4.386   3.940   6.297  0.5813 -0.0132  0.8292
10531SOL     OW34484   0.504   8.144   5.376 -0.2323 -0.3906 -0.3099
10531SOL    HW134485   0.547   8.072   5.423 -1.4531 -2.3956 -2.0742
10531SOL    HW234486   0.423   8.159   5.426  0.5035  0.5417  0.6550
10532SOL     OW34487   2.156   1.088   3.588 -0.5424  0.1657  0.2958
10532SOL    HW134488   2.243   1.085   3.629  0.2457 -1.2294 -1.3138
10532SOL    HW234489   2.126   1.178   3.602  0.3774  0.2013  2.3877
10533SOL     OW34490   1.007   0.552   5.424 -0.0374 -0.1904  0.1466
10533SOL    HW134491   1.051   0.469   5.438 -0.5705 -0.2784  1.4535
10533SOL    HW234492   0.948   0.561   5.499 -0.4041  1.0934 -0.2664
10534SOL     OW34493   6.150   8.965   0.533 -0.8058  0.1220 -0.3252
10534SOL    HW134494   6.159   8.925   0.447 -0.6600 -2.6811  0.8664
10534SOL    HW234495   6.238   8.958   0.572 -1.2258 -0.1243  0.6127
10535SOL     OW34496   1.137   4.639   0.530 -0.1917  0.0640 -0.0253
10535SOL    HW134497   1.152   4.711   0.468  0.0700 -1.1314 -1.4073
10535SOL    HW234498   1.221   4.593   0.534  0.0452  0.5882  1.8942
10536SOL     OW34499   0.610   4.775   5.645 -0.0348 -0.4805 -0.1472
10536SOL    HW134500   0.613   4.848   5.583  1.0842  0.1930  0.6566
10536SOL    HW234501   0.532   4.792   5.698  0.7750  0.7359  0.7032
10537SOL     OW34502   1.480   0.619   0.560 -0.5784  0.0201  0.4936
10537SOL    HW134503   1.465   0.704   0.601 -0.7786 -0.3282  1.1555
10537SOL    HW234504   1.548   0.635   0.495 -0.8125  0.7410  0.4235
10538SOL     OW34505   1.708   7.743   2.638  0.0010 -0.3093  0.4022
10538SOL    HW134506   1.662   7.727   2.720  1.8492  0.1812  1.5975
10538SOL    HW234507   1.737   7.656   2.609 -1.0436 -0.5352  0.0096
10539SOL     OW34508   0.739   1.492   3.997 -0.5192 -0.1685  0.1047
10539SOL    HW134509   0.653   1.528   3.977  0.1838  1.8525  0.5066
10539SOL    HW234510   0.792   1.512   3.919  0.2141  0.8447  0.8402
10540SOL     OW34511   0.912   4.132   8.144 -0.4186  0.0013 -1.0034
10540SOL    HW134512   0.980   4.120   8.078 -0.5992 -0.0729 -1.1745
10540SOL    HW234513   0.836   4.163   8.096 -0.3575  0.5762 -0.7425
10541SOL     OW34514   9.028   6.953   0.850 -0.6793  0.1396  0.2292
10541SOL    HW134515   9.117   6.947   0.883 -1.5726  0.5609  2.9103
10541SOL    HW234516   9.009   6.866   0.815  1.1452  0.3862 -1.6120
10542SOL     OW34517   2.557   8.611   5.638 -0.2878  0.4914  0.3403
10542SOL    HW134518   2.577   8.539   5.698 -0.6192 -0.8250 -1.0887
10542SOL    HW234519   2.640   8.660   5.633  0.9410 -1.5850 -1.0414
10543SOL     OW34520   5.627   2.585   9.365 -0.1330 -0.0110 -0.4195
10543SOL    HW134521   5.632   2.499   9.408  0.0229  0.7105  1.0779
10543SOL    HW234522   5.703   2.633   9.399 -1.0830  1.2529 -0.0044
10544SOL     OW34523   4.541   6.068   2.147 -0.3035 -0.5739 -0.5584
10544SOL    HW134524   4.568   5.980   2.121 -2.9032 -1.0269 -2.0913
10544SOL    HW234525   4.603   6.093   2.216 -0.4416 -4.2540  1.1211
10545SOL     OW34526   9.171   3.108   4.446 -0.3448  0.2259  0.4060
10545SOL    HW134527   9.255   3.152   4.457 -1.2748  2.1739  0.1745
10545SOL    HW234528   9.143   3.132   4.357 -0.5931 -1.4311  0.0061
10546SOL     OW34529   9.415   1.035   1.385 -0.4231  0.5906 -0.4347
10546SOL    HW134530   9.437   0.953   1.341 -0.0612  1.5429 -2.1016
10546SOL    HW234531   9.405   1.099   1.314 -1.0708  1.9136  0.7938
10547SOL     OW34532   5.765   6.594   0.881  0.2778  0.0718  0.0166
10547SOL    HW134533   5.848   6.570   0.922  0.4411 -0.6264 -0.6956
10547SOL    HW234534   5.706   6.522   0.903 -0.5422  1.1829  1.6239
10548SOL     OW34535   4.274   7.975   1.048 -0.2203 -0.1850 -0.1262
10548SOL    HW134536   4.323   7.894   1.062  0.8524  0.5524  0.5039
10548SOL    HW234537   4.314   8.015   0.971 -0.7690 -0.2577 -0.4545
10549SOL     OW34538   6.821   9.082   2.032 -0.2521 -0.5319 -0.2034
10549SOL    HW134539   6.785   9.052   2.116 -0.3953  0.1269 -0.0156
10549SOL    HW234540   6.801   9.012   1.970  0.8394 -1.5398  0.5416
10550SOL     OW34541   0.938   7.997   8.358 -0.6821  0.2136 -0.5236
10550SOL    HW134542   0.965   8.087   8.340  1.1320 -0.3114 -0.6469
10550SOL    HW234543   0.975   7.977   8.444  0.0709 -0.8172 -1.0605
10551SOL     OW34544   3.943   4.819   2.948 -0.0355  0.1551  0.2216
10551SOL    HW134545   3.849   4.803   2.947 -0.1224  0.4198 -1.9426
10551SOL    HW234546   3.952   4.914   2.941  0.3448  0.0741 -0.6281
10552SOL     OW34547   3.052   4.869   3.992  0.8660 -0.1737 -0.0660
10552SOL    HW134548   3.037   4.886   4.085  1.1421 -1.8346  0.3100
10552SOL    HW234549   3.139   4.828   3.989 -0.1223 -2.3735 -0.7428
10553SOL     OW34550   8.500   1.381   8.047  0.6435 -0.1193  0.7567
10553SOL    HW134551   8.415   1.394   8.004  0.2770 -1.4799  1.0344
10553SOL    HW234552   8.502   1.448   8.116  0.5032  0.9584 -0.2476
10554SOL     OW34553   6.779   0.581   5.918  0.1190 -0.5343 -0.0353
10554SOL    HW134554   6.708   0.543   5.971  0.4363 -1.1859 -0.0711
10554SOL    HW234555   6.783   0.672   5.947 -0.6238 -0.5275  0.0868
10555SOL     OW34556   2.484   9.282   9.266  0.0011  0.2080  0.3353
10555SOL    HW134557   2.413   9.286   9.329  0.8302  0.2479  1.2854
10555SOL    HW234558   2.450   9.328   9.188 -1.7655 -1.5919 -0.0233
10556SOL     OW34559   5.355   6.110   6.005  0.8937 -0.3919 -0.0575
10556SOL    HW134560   5.289   6.098   6.074 -0.4905 -1.4798 -1.5064
10556SOL    HW234561   5.414   6.036   6.016  0.4138 -0.8178 -0.3084
10557SOL     OW34562   6.220   6.751   0.197  0.3028  0.1762  0.2940
10557SOL    HW134563   6.240   6.798   0.116 -0.2694  0.5855  0.3827
10557SOL    HW234564   6.302   6.709   0.221  1.1203  1.9263  0.7494
10558SOL     OW34565   7.160   9.560   5.898  0.5176  0.2312  0.1011
10558SOL    HW134566   7.087   9.621   5.887 -0.2611 -0.2722  1.9859
10558SOL    HW234567   7.231   9.613   5.934  0.5944  0.4371 -0.3467
10559SOL     OW34568   4.466   3.941   7.551 -0.4801  0.1994  0.1270
10559SOL    HW134569   4.510   3.999   7.489 -0.8387  0.5167  0.1663
10559SOL    HW234570   4.387   3.989   7.577 -0.8623 -0.3791  0.0351
10560SOL     OW34571   5.329   3.694   8.931 -0.3683  0.0691  0.3816
10560SOL    HW134572   5.394   3.637   8.889 -0.1175  0.6166  0.0076
10560SOL    HW234573   5.345   3.683   9.024 -2.7542 -3.3464  0.5887
10561SOL     OW34574   7.191   4.781   9.508 -0.1287 -0.4954 -0.2880
10561SOL    HW134575   7.265   4.824   9.551 -0.2403  1.3710 -1.8515
10561SOL    HW234576   7.223   4.759   9.421 -0.3958 -2.8115  0.1167
10562SOL     OW34577   5.501   6.423   5.284 -0.3098 -0.2676 -0.0155
10562SOL    HW134578   5.543   6.508   5.277 -0.5231  0.0865  2.2948
10562SOL    HW234579   5.570   6.360   5.263  0.1327  0.4197 -0.6592
10563SOL     OW34580   4.566   0.035   2.250  0.3427 -0.6981  0.3918
10563SOL    HW134581   4.508   0.023   2.325 -0.7093  0.8403 -0.1338
10563SOL    HW234582   4.652   0.054   2.289  0.0782 -1.0715  1.1844
10564SOL     OW34583   1.426   5.684   2.807  0.4928 -0.6350 -0.3391
10564SOL    HW134584   1.517   5.712   2.816  0.4508 -0.9713  1.4776
10564SOL    HW234585   1.375   5.764   2.816  0.5765 -0.5294 -0.7740
10565SOL     OW34586   7.332   7.374   6.887 -0.0929 -0.1988 -0.1007
10565SOL    HW134587   7.387   7.434   6.837  1.3214  0.2528  1.8923
10565SOL    HW234588   7.341   7.402   6.978 -0.7398 -2.3791  0.7060
10566SOL     OW34589   4.240   0.215   6.924  0.1531 -0.2485  0.4920
10566SOL    HW134590   4.152   0.200   6.959  0.0234 -0.0668  0.2475
10566SOL    HW234591   4.253   0.310   6.931 -0.5908  0.0498 -1.5886
10567SOL     OW34592   5.717   9.559   8.784 -0.0137 -0.2733 -0.0529
10567SOL    HW134593   5.803   9.563   8.742 -0.5857 -1.5103 -1.4317
10567SOL    HW234594   5.682   9.474   8.759 -1.4218 -0.0324  0.9641
10568SOL     OW34595   3.071   9.436   0.282  0.1914  0.8225  0.2800
10568SOL    HW134596   3.090   9.469   0.194 -1.5702  1.1992  0.0035
10568SOL    HW234597   2.992   9.483   0.309  1.5255  1.8245  2.7219
10569SOL     OW34598   4.166   0.042   2.135 -0.4734  0.1324  0.2874
10569SOL    HW134599   4.198  -0.028   2.078  0.6287  0.3352  0.6482
10569SOL    HW234600   4.123  -0.005   2.207 -0.6368 -0.1496  0.0106
10570SOL     OW34601   1.651   0.107   9.074  0.2914 -0.7085 -0.4787
10570SOL    HW134602   1.649   0.200   9.097  0.7582 -0.3949 -1.6431
10570SOL    HW234603   1.559   0.081   9.074  0.1798 -0.3601  0.2480
10571SOL     OW34604   4.083   7.434   4.076  0.1231 -0.0738 -0.4228
10571SOL    HW134605   4.160   7.483   4.104  1.7579 -2.6045 -0.1433
10571SOL    HW234606   4.037   7.414   4.158 -0.4432  0.8063 -0.5198
10572SOL     OW34607   9.504   1.670   6.138  0.7514  0.1166 -0.2975
10572SOL    HW134608   9.519   1.628   6.053  1.6128 -0.9286  0.3588
10572SOL    HW234609   9.537   1.608   6.202  2.1615  1.8053  0.7128
10573SOL     OW34610   6.768   2.403   7.473  0.2849  0.4787  0.2286
10573SOL    HW134611   6.755   2.495   7.497  1.3001  1.1539 -1.6064
10573SOL    HW234612   6.863   2.393   7.465  0.1983 -0.7910  0.5509
10574SOL     OW34613   7.525   6.604   8.076  0.1782  0.1787  0.0564
10574SOL    HW134614   7.575   6.553   8.012 -0.4355  0.9020 -1.0129
10574SOL    HW234615   7.592   6.654   8.123  0.5526  0.4046 -0.7026
10575SOL     OW34616   4.933   6.971   3.741 -0.0087  0.3399  0.3433
10575SOL    HW134617   4.989   6.926   3.678 -0.2617 -0.1639  0.4695
10575SOL    HW234618   4.975   7.055   3.756  1.7526 -0.7435  1.8905
10576SOL     OW34619   7.743   7.457   6.807 -0.0946 -0.3218  0.7233
10576SOL    HW134620   7.741   7.362   6.803  0.0866 -0.2978 -1.1597
10576SOL    HW234621   7.654   7.484   6.782  0.3559 -0.0163 -0.6728
10577SOL     OW34622   3.393   8.412   3.398 -0.1890  0.2310 -0.3990
10577SOL    HW134623   3.432   8.327   3.376 -1.4966 -0.7636  0.9273
10577SOL    HW234624   3.380   8.409   3.493 -0.1092  2.0017 -0.2939
10578SOL     OW34625   5.520   2.649   0.843 -0.0732 -0.0574  0.2984
10578SOL    HW134626   5.525   2.624   0.935 -1.4735  0.0906  0.4295
10578SOL    HW234627   5.571   2.730   0.838  2.9325 -1.8233  0.2204
10579SOL     OW34628   1.967   7.061   7.072  0.3933  0.4877 -0.0542
10579SOL    HW134629   1.924   6.995   7.128  2.3723  0.0828  1.0881
10579SOL    HW234630   1.942   7.037   6.983 -2.0867  0.5751  0.5542
10580SOL     OW34631   7.911   7.719   0.401 -0.1073 -0.1176 -0.3404
10580SOL    HW134632   7.843   7.786   0.403 -0.9140 -0.7777 -2.7002
10580SOL    HW234633   7.896   7.667   0.479 -3.0124 -0.8688 -1.2865
10581SOL     OW34634   8.665   5.182   2.162  0.2842  0.3017 -0.3473
10581SOL    HW134635   8.641   5.261   2.113 -1.0542  0.1157 -0.0495
10581SOL    HW234636   8.755   5.164   2.136  0.1374  1.1005 -1.5186
10582SOL     OW34637   2.038   0.589   1.471 -0.2849  0.4293 -0.0815
10582SOL    HW134638   2.094   0.531   1.420  0.6161 -0.5177  1.8467
10582SOL    HW234639   1.949   0.558   1.453 -0.0802  0.6615 -1.6472
10583SOL     OW34640   3.613   5.124   7.979 -0.0670 -0.0049  0.1933
10583SOL    HW134641   3.534   5.070   7.970  0.7036 -1.1798  0.3537
10583SOL    HW234642   3.582   5.214   7.965 -1.3705 -0.4780 -0.0833
10584SOL     OW34643   8.003   8.531   7.412 -0.7215  0.1421 -0.3845
10584SOL    HW134644   7.952   8.499   7.338 -1.7323 -0.9002  0.7161
10584SOL    HW234645   7.976   8.622   7.422 -1.5525 -0.0855 -0.5117
10585SOL     OW34646   3.153   1.969   9.057  0.3515  0.0451 -0.1361
10585SOL    HW134647   3.138   1.912   9.133  0.8233 -0.7870 -0.6563
10585SOL    HW234648   3.093   2.042   9.070 -1.7051 -1.5003 -0.4342
10586SOL     OW34649   3.467   9.297   3.038 -0.5451  0.4168 -0.2136
10586SOL    HW134650   3.413   9.338   2.971 -1.8540  0.1617  0.6524
10586SOL    HW234651   3.405   9.269   3.106  0.7017  0.4658  1.0011
10587SOL     OW34652   4.895   4.711   7.397  0.4741  0.2629 -0.0620
10587SOL    HW134653   4.959   4.695   7.328 -0.2805  1.8002 -1.1815
10587SOL    HW234654   4.823   4.651   7.378  1.7418 -1.9509  1.5804
10588SOL     OW34655   2.884   0.555   8.895 -0.3596  0.2521 -0.5322
10588SOL    HW134656   2.883   0.641   8.853  1.3760 -0.1910 -1.6116
10588SOL    HW234657   2.906   0.573   8.986 -1.5464  1.0390 -0.3797
10589SOL     OW34658   9.510   3.526   4.170 -0.0082  0.3647  0.2455
10589SOL    HW134659   9.531   3.542   4.262  1.7704 -0.0820 -0.0529
10589SOL    HW234660   9.465   3.441   4.170 -1.1497  0.9374  0.8014
10590SOL     OW34661   3.519   6.422   1.065  0.2579 -0.2648 -0.0352
10590SOL    HW134662   3.458   6.486   1.100  0.4356 -0.7800  1.3017
10590SOL    HW234663   3.567   6.468   0.997  0.6305  1.1408  1.1370
10591SOL     OW34664   4.409   4.669   6.040 -0.3716  0.0302 -0.4489
10591SOL    HW134665   4.423   4.578   6.012  0.8502  0.0488  0.0358
10591SOL    HW234666   4.369   4.661   6.127  1.7951 -0.1204  0.6181
10592SOL     OW34667   2.440   9.454   7.513  0.1164 -0.6101  0.1352
10592SOL    HW134668   2.458   9.525   7.451  1.2647 -1.4884 -0.5911
10592SOL    HW234669   2.393   9.388   7.462 -2.6057  0.3224  1.2519
10593SOL     OW34670   3.283   6.948   4.168  0.1468  0.2077 -0.0776
10593SOL    HW134671   3.241   6.942   4.082 -0.5571  0.0091  0.2753
10593SOL    HW234672   3.338   7.025   4.162 -1.2210  1.2106 -0.1495
10594SOL     OW34673   3.390   1.990   8.906 -0.6449 -0.1335  0.2488
10594SOL    HW134674   3.330   2.025   8.840 -1.2150 -0.2593  0.6901
10594SOL    HW234675   3.335   1.976   8.983  0.1359  0.6782  0.9790
10595SOL     OW34676   9.048   6.035   9.381 -0.1494  0.7277 -0.3526
10595SOL    HW134677   9.095   6.014   9.301  0.0897  0.4354 -0.1389
10595SOL    HW234678   8.956   6.039   9.355 -0.3162 -1.4377 -0.2503
10596SOL     OW34679   3.732   2.164   7.300  0.2539  0.1092  0.1683
10596SOL    HW134680   3.726   2.069   7.295 -0.5152  0.1420  0.4368
10596SOL    HW234681   3.822   2.180   7.330  0.8309 -0.4726 -1.1743
10597SOL     OW34682   4.058   5.640   0.650 -0.1747 -0.5067  0.1218
10597SOL    HW134683   4.095   5.553   0.667 -0.2436 -0.3098  1.4018
10597SOL    HW234684   3.991   5.651   0.718 -1.6159 -0.2737 -1.2928
10598SOL     OW34685   8.607   4.374   6.472 -0.6309 -0.5491  0.1419
10598SOL    HW134686   8.691   4.356   6.514  0.0755  0.5956 -0.7068
10598SOL    HW234687   8.593   4.468   6.487 -0.6196 -0.2308 -1.6836
10599SOL     OW34688   2.548   9.474   2.106 -0.0734  0.3337  0.2839
10599SOL    HW134689   2.512   9.430   2.184 -3.6062  1.5333 -0.4800
10599SOL    HW234690   2.500   9.435   2.033  2.7909 -0.3934 -1.3757
10600SOL     OW34691   5.684   7.694   0.937  0.9854 -0.5933 -0.1353
10600SOL    HW134692   5.660   7.629   0.871 -0.3439 -1.6943  1.3309
10600SOL    HW234693   5.698   7.775   0.888 -1.0188 -1.0962 -1.6715
10601SOL     OW34694   1.319   3.557   8.097 -0.5818 -0.4296 -0.3894
10601SOL    HW134695   1.383   3.568   8.027 -0.5588 -0.5294 -0.3841
10601SOL    HW234696   1.338   3.470   8.133 -0.6257 -0.3989 -0.2933
10602SOL     OW34697   1.431   6.236   1.865 -0.2673 -0.6236  0.4309
10602SOL    HW134698   1.437   6.213   1.772  0.2342 -0.1522  0.3443
10602SOL    HW234699   1.342   6.212   1.890 -0.6920  0.0616 -0.3873
10603SOL     OW34700   9.180   3.523   6.777  0.2988  0.3908  0.2445
10603SOL    HW134701   9.121   3.487   6.843 -1.1070  0.2109 -1.0575
10603SOL    HW234702   9.219   3.600   6.819 -1.9634  1.3684  0.6693
10604SOL     OW34703   2.547   6.398   2.787  0.2625 -0.1344  0.1809
10604SOL    HW134704   2.530   6.387   2.881  1.0697  0.9671  0.4700
10604SOL    HW234705   2.587   6.484   2.780 -0.5914  0.1661 -1.3006
10605SOL     OW34706   5.399   3.380   0.260  0.0327  0.3295 -0.7002
10605SOL    HW134707   5.455   3.391   0.337 -1.1771  1.2031  0.0897
10605SOL    HW234708   5.310   3.385   0.294 -0.5325  0.8506 -2.1753
10606SOL     OW34709   7.675   7.174   1.024  0.2342 -0.0344  0.2168
10606SOL    HW134710   7.584   7.157   1.048  0.3126 -1.7431 -0.5378
10606SOL    HW234711   7.676   7.171   0.928  1.1444 -0.5235  0.2255
10607SOL     OW34712   7.719   8.878   3.333  0.5928  0.7455 -0.1619
10607SOL    HW134713   7.756   8.795   3.365 -0.1119  0.8259  0.9091
10607SOL    HW234714   7.630   8.880   3.368  0.5914  1.9578 -0.1983
10608SOL     OW34715   3.666   2.650   8.892  0.3088 -0.0684 -0.4929
10608SOL    HW134716   3.578   2.614   8.876  0.1285 -1.2696  2.4864
10608SOL    HW234717   3.726   2.583   8.857  0.0276 -0.2080 -0.7145
10609SOL     OW34718   8.171   2.391   2.528  0.0385  0.0595  0.7778
10609SOL    HW134719   8.115   2.326   2.571  0.5934 -1.2437 -0.3823
10609SOL    HW234720   8.110   2.450   2.484 -0.4686 -0.6097  0.5586
10610SOL     OW34721   4.635   3.789   5.717 -0.8693 -0.3422  0.3524
10610SOL    HW134722   4.617   3.883   5.716  0.1438 -0.1303 -0.0962
10610SOL    HW234723   4.706   3.778   5.653 -0.6695 -1.3458  0.7262
10611SOL     OW34724   2.093   5.659   3.584  0.4861  0.4949 -0.0873
10611SOL    HW134725   2.166   5.717   3.561  0.5270  0.7310  0.6128
10611SOL    HW234726   2.026   5.717   3.620 -0.2494  0.3385 -1.1728
10612SOL     OW34727   2.230   6.388   1.322 -0.5872  0.6654 -0.4330
10612SOL    HW134728   2.194   6.408   1.235  1.1183 -1.3084 -1.6797
10612SOL    HW234729   2.285   6.312   1.308  1.3644  1.5052  2.0360
10613SOL     OW34730   3.043   0.668   9.625  0.4273  0.6304  0.3941
10613SOL    HW134731   3.039   0.721   9.545  2.1441  1.3766  0.7452
10613SOL    HW234732   3.034   0.578   9.595  3.8342  0.6281 -1.1111
10614SOL     OW34733   2.591   0.142   3.979  0.7337  0.1932 -0.6309
10614SOL    HW134734   2.544   0.075   3.929 -1.0900  0.7220  0.2673
10614SOL    HW234735   2.644   0.188   3.914 -1.0804  0.4672 -2.0034
10615SOL     OW34736   7.393   3.933   6.935  0.0075  0.5545  0.6883
10615SOL    HW134737   7.422   3.842   6.922  0.1400  0.5304  1.1377
10615SOL    HW234738   7.300   3.926   6.953  0.1749  0.4372  1.5265
10616SOL     OW34739   0.241   6.835   5.410  0.0901  0.0058  0.3646
10616SOL    HW134740   0.304   6.889   5.457 -0.8532  1.0313  0.4945
10616SOL    HW234741   0.164   6.891   5.399 -0.8166 -1.2065  0.2390
10617SOL     OW34742   6.110   1.275   6.545 -0.6045 -0.0129  0.1836
10617SOL    HW134743   6.050   1.349   6.539 -0.3318  0.4100  2.1818
10617SOL    HW234744   6.057   1.204   6.580 -0.1270  0.1708  1.3144
10618SOL     OW34745   7.397   7.835   7.964 -0.0672 -0.2325  0.1766
10618SOL    HW134746   7.361   7.765   7.908  1.6942 -1.1293  0.1131
10618SOL    HW234747   7.380   7.915   7.915 -0.4158 -0.8032 -0.6652
10619SOL     OW34748   3.011   1.066   0.705 -0.1078  0.6549 -0.0524
10619SOL    HW134749   3.105   1.075   0.694 -0.1596  0.4582 -0.7056
10619SOL    HW234750   2.980   1.034   0.620 -0.6984  0.2559  0.3082
10620SOL     OW34751   2.071   7.592   3.578 -0.2223  0.0635 -0.0827
10620SOL    HW134752   2.141   7.581   3.643  0.4220 -0.2949 -0.8149
10620SOL    HW234753   2.052   7.686   3.578  3.5686  1.1349 -3.1067
10621SOL     OW34754   4.670   2.425   7.217 -0.4526 -0.2623 -0.4912
10621SOL    HW134755   4.627   2.509   7.200  2.4463  1.2079 -1.1638
10621SOL    HW234756   4.711   2.436   7.302 -0.4703 -1.2243 -0.3461
10622SOL     OW34757   6.858   3.835   0.617  0.4518  0.3284 -0.0841
10622SOL    HW134758   6.931   3.776   0.597  0.8369  0.9987 -0.6893
10622SOL    HW234759   6.799   3.782   0.671  1.2227 -0.3222  0.1388
10623SOL     OW34760   4.600   1.807   0.575  0.7101  0.0654  0.0339
10623SOL    HW134761   4.579   1.747   0.503  0.4104 -1.9625  1.6894
10623SOL    HW234762   4.695   1.805   0.581  0.7102 -0.1413 -0.0178
10624SOL     OW34763   1.137   2.283   1.464  0.1562  0.3681 -0.0477
10624SOL    HW134764   1.219   2.234   1.457 -0.2588 -0.3523 -0.0646
10624SOL    HW234765   1.094   2.269   1.380 -0.3350  0.0727  0.2463
10625SOL     OW34766   8.747   6.732   6.148 -0.0197 -0.0083 -0.0290
10625SOL    HW134767   8.801   6.659   6.118 -0.4395  0.6812 -2.6870
10625SOL    HW234768   8.729   6.712   6.240  2.8671 -1.3824  0.3429
10626SOL     OW34769   0.166   1.990   2.867  0.4092 -1.0953  0.1172
10626SOL    HW134770   0.072   1.977   2.866 -0.0704  1.6761  1.3954
10626SOL    HW234771   0.195   1.962   2.780 -2.0198  0.4512 -1.3016
10627SOL     OW34772   3.937   2.278   9.289  0.6297 -0.4639  0.2842
10627SOL    HW134773   3.930   2.277   9.384  0.6001  0.1627  0.2938
10627SOL    HW234774   3.929   2.371   9.265  3.1012 -0.2839 -0.1253
10628SOL     OW34775   6.073   0.407   2.672 -0.0740 -0.8078  0.7831
10628SOL    HW134776   6.044   0.317   2.688 -0.4064 -0.4498  2.4424
10628SOL    HW234777   5.998   0.450   2.631  0.2629 -1.3906 -0.4903
10629SOL     OW34778   9.191   8.333   8.337  0.3343 -0.2260 -0.3409
10629SOL    HW134779   9.117   8.275   8.354  1.7114 -2.5043 -1.5954
10629SOL    HW234780   9.195   8.340   8.241  0.1261  2.1467 -0.2284
10630SOL     OW34781   9.365   3.573   4.652 -0.3263  0.0125  0.0345
10630SOL    HW134782   9.288   3.630   4.645 -0.6484 -0.3897  0.2477
10630SOL    HW234783   9.438   3.628   4.622 -0.5120  0.7884  0.9617
10631SOL     OW34784   6.586   7.701   1.305 -0.0002 -0.0902  0.3146
10631SOL    HW134785   6.605   7.720   1.213  0.3759  0.8320  0.5667
10631SOL    HW234786   6.519   7.766   1.329 -0.4121 -0.6051  0.5748
10632SOL     OW34787   0.255   0.141   5.740  0.1735  0.1584 -0.1533
10632SOL    HW134788   0.230   0.074   5.677  1.5127 -1.9886  1.4877
10632SOL    HW234789   0.172   0.177   5.771 -0.5385  0.3626 -2.1138
10633SOL     OW34790   4.178   6.699   0.054 -0.5134  0.2975 -0.1578
10633SOL    HW134791   4.168   6.715  -0.040  1.6279  1.2187 -0.2975
10633SOL    HW234792   4.094   6.665   0.082 -0.8664 -1.1212 -2.6442
10634SOL     OW34793   8.810   5.620   3.244  0.1926 -0.1407  0.0656
10634SOL    HW134794   8.902   5.598   3.255  0.4629  0.4373 -0.9257
10634SOL    HW234795   8.804   5.656   3.156 -0.3579  2.9638  1.2640
10635SOL     OW34796   6.338   3.873   7.057 -0.1820 -0.5498  0.2160
10635SOL    HW134797   6.334   3.955   7.106  0.7810 -0.2821 -0.1317
10635SOL    HW234798   6.347   3.900   6.966  0.9769 -1.0239  0.1712
10636SOL     OW34799   6.665   5.190   3.361 -0.2313  0.3492 -0.3681
10636SOL    HW134800   6.669   5.143   3.445 -1.6884 -0.7725 -0.8730
10636SOL    HW234801   6.572   5.208   3.349  0.1854  2.4758 -0.7144
10637SOL     OW34802   8.268   7.470   8.341  0.0478  0.0176 -0.2491
10637SOL    HW134803   8.335   7.516   8.392  0.9373  1.0392 -2.2624
10637SOL    HW234804   8.186   7.513   8.365  0.4523  0.5004  0.2913
10638SOL     OW34805   2.010   3.015   9.078  0.2569 -0.2344 -0.7902
10638SOL    HW134806   1.922   3.045   9.102  0.6258  0.6788 -0.5495
10638SOL    HW234807   2.058   3.012   9.161  0.2091 -1.6303 -0.7839
10639SOL     OW34808   8.435   5.511   0.501 -0.6645 -0.6288 -0.0036
10639SOL    HW134809   8.465   5.422   0.482  1.2098 -0.4497  1.8170
10639SOL    HW234810   8.493   5.568   0.451 -0.8012 -0.4011  0.0936
10640SOL     OW34811   0.738   2.662   4.364 -0.4929  0.2824 -0.2646
10640SOL    HW134812   0.761   2.707   4.283 -1.6488  1.4811  0.0200
10640SOL    HW234813   0.762   2.723   4.433  0.4437 -0.7118  0.3217
10641SOL     OW34814   5.835   7.519   4.085 -0.3041  0.4311 -0.2040
10641SOL    HW134815   5.798   7.486   4.003 -1.8918  0.2955  0.5328
10641SOL    HW234816   5.827   7.446   4.146  1.8642  0.1563 -0.1507
10642SOL     OW34817   3.196   7.879   5.365 -0.3355  0.2714  0.2330
10642SOL    HW134818   3.128   7.913   5.423 -0.1639 -0.3933  0.8242
10642SOL    HW234819   3.241   7.811   5.416  0.2516  0.1437 -0.4341
10643SOL     OW34820   7.144   9.390   2.059  0.6256  0.5795 -0.4895
10643SOL    HW134821   7.103   9.306   2.037  0.0764  0.6283  0.2735
10643SOL    HW234822   7.091   9.456   2.014  0.3009  0.5883 -0.1098
10644SOL     OW34823   7.842   6.028   8.922  0.3234 -0.3453  0.0613
10644SOL    HW134824   7.913   6.015   8.858 -0.8556 -0.8039 -1.2096
10644SOL    HW234825   7.764   5.995   8.877 -0.4425 -1.3398  2.0323
10645SOL     OW34826   5.504   5.339   2.280  0.2088 -0.1953  0.5282
10645SOL    HW134827   5.527   5.340   2.373  2.0162  1.9112  0.1368
10645SOL    HW234828   5.411   5.362   2.278 -0.4108 -2.3088  1.8626
10646SOL     OW34829   8.846   4.419   4.992  0.6019 -0.0557  0.5153
10646SOL    HW134830   8.855   4.347   4.929 -3.9353 -0.5759  0.0780
10646SOL    HW234831   8.888   4.388   5.071  0.2631 -2.5157 -0.1843
10647SOL     OW34832   9.113   4.923   2.138 -0.1780 -0.7251  0.1080
10647SOL    HW134833   9.116   4.995   2.201  1.0327 -0.4126 -0.2865
10647SOL    HW234834   9.031   4.936   2.091 -0.2070  0.1040  0.3742
10648SOL     OW34835   7.943   3.736   7.555 -0.2007  0.0586  0.4495
10648SOL    HW134836   7.942   3.641   7.568 -0.2105  0.1939  1.5673
10648SOL    HW234837   8.001   3.769   7.624 -0.3652  0.8841  0.2056
10649SOL     OW34838   2.005   3.521   9.151 -0.0660 -0.0996  0.2872
10649SOL    HW134839   1.950   3.517   9.072 -2.0245 -1.0414  1.6359
10649SOL    HW234840   1.998   3.612   9.180  1.3396  0.4800 -1.0052
10650SOL     OW34841   0.789   0.478   5.951  0.3407  0.0262 -0.4183
10650SOL    HW134842   0.820   0.487   5.861 -0.3970 -0.9548 -0.7953
10650SOL    HW234843   0.849   0.532   6.003 -0.3043  2.0739 -1.6953
10651SOL     OW34844   3.798   8.866   6.684 -0.9711  0.0797 -0.0867
10651SOL    HW134845   3.787   8.818   6.767  0.6424 -1.4129 -0.6757
10651SOL    HW234846   3.863   8.933   6.703 -0.9485  0.0443 -0.0401
10652SOL     OW34847   7.021   8.757   1.944  0.0431  0.2627  0.1500
10652SOL    HW134848   6.933   8.794   1.943 -0.0373  0.0596 -0.6847
10652SOL    HW234849   7.063   8.793   1.865  0.7641  0.4862  0.6206
10653SOL     OW34850   2.450   3.218   2.767 -0.1404 -0.1855 -0.2291
10653SOL    HW134851   2.475   3.279   2.837  0.5891 -0.6494 -0.0845
10653SOL    HW234852   2.388   3.158   2.809  0.9120 -0.9611  0.2483
10654SOL     OW34853   0.081   7.667   5.794  0.2261 -0.1861 -0.2302
10654SOL    HW134854   0.004   7.626   5.756  0.6833 -1.7550  0.4756
10654SOL    HW234855   0.073   7.652   5.888  1.4845 -0.5880 -0.1584
10655SOL     OW34856   7.896   3.137   9.381  0.7037 -0.1770 -0.0780
10655SOL    HW134857   7.843   3.094   9.314 -1.2224  2.4214 -0.3473
10655SOL    HW234858   7.894   3.077   9.456 -1.6466 -0.7187 -0.5073
10656SOL     OW34859   3.296   3.412   2.949  0.7315 -0.3423 -0.2004
10656SOL    HW134860   3.240   3.373   3.016  1.0934 -2.3324 -0.9820
10656SOL    HW234861   3.240   3.474   2.903 -0.0743 -0.3897  0.7002
10657SOL     OW34862   5.133   4.760   7.661 -0.6193  0.1135 -0.4639
10657SOL    HW134863   5.045   4.773   7.697 -0.2430 -0.2432  0.6528
10657SOL    HW234864   5.133   4.671   7.627 -0.0988 -0.6818  1.4659
10658SOL     OW34865   6.891   2.893   4.366  0.0024 -0.2948  0.0626
10658SOL    HW134866   6.960   2.936   4.316 -0.0580  0.3529  0.5249
10658SOL    HW234867   6.918   2.902   4.458 -1.2404  0.9899  0.3469
10659SOL     OW34868   1.235   9.160   3.488  0.3903 -0.0318 -0.2573
10659SOL    HW134869   1.312   9.127   3.535 -0.5054 -0.2450  1.1308
10659SOL    HW234870   1.160   9.126   3.537 -0.6085  2.5662  0.1985
10660SOL     OW34871   5.955   8.812   7.044  0.1496 -0.0826 -0.3122
10660SOL    HW134872   5.956   8.772   6.957 -2.0341 -3.2502  0.9361
10660SOL    HW234873   6.028   8.770   7.090 -0.9928 -1.2870  0.4491
10661SOL     OW34874   8.105   6.312   7.981  0.5316  0.5860  0.4818
10661SOL    HW134875   8.154   6.390   7.954  0.1898  0.8940  0.7442
10661SOL    HW234876   8.039   6.345   8.041 -1.9561  0.6688 -2.0828
10662SOL     OW34877   9.045   4.363   2.289  0.9572  0.4615 -0.2865
10662SOL    HW134878   9.055   4.446   2.242  0.4738  0.8635  0.3025
10662SOL    HW234879   8.952   4.343   2.283  1.1765 -0.3657 -0.9573
10663SOL     OW34880   0.156   2.263   9.520  0.1345 -0.3533  0.0425
10663SOL    HW134881   0.163   2.189   9.581 -0.4775  0.6604  1.3946
10663SOL    HW234882   0.102   2.230   9.449  0.5672 -1.4656  0.2052
10664SOL     OW34883   0.946   8.512   2.689 -0.0289 -0.1161  0.2320
10664SOL    HW134884   1.008   8.484   2.623 -0.6765  0.9522 -0.8770
10664SOL    HW234885   0.972   8.602   2.709 -1.7180  0.6946 -0.9439
10665SOL     OW34886   2.404   3.551   4.545 -0.8578 -0.7100 -0.1357
10665SOL    HW134887   2.333   3.614   4.531 -0.4284  0.0517  0.9682
10665SOL    HW234888   2.467   3.597   4.600  0.9482 -1.0559 -1.8100
10666SOL     OW34889   6.773   9.281   9.337  0.3902 -0.2091 -0.2884
10666SOL    HW134890   6.757   9.198   9.382 -1.0614 -0.9216 -1.9810
10666SOL    HW234891   6.733   9.347   9.393  0.5127 -0.8054  0.5143
10667SOL     OW34892   5.385   4.846   2.745  0.0378  0.2830 -0.2872
10667SOL    HW134893   5.415   4.758   2.724 -0.1205  0.4466 -1.2837
10667SOL    HW234894   5.434   4.903   2.686  1.2617  1.0380  1.3917
10668SOL     OW34895   4.370   2.694   1.368  0.1857 -0.3592  0.1694
10668SOL    HW134896   4.452   2.648   1.351  0.1958 -0.4309  0.4159
10668SOL    HW234897   4.375   2.772   1.314  0.7896  0.0711  0.8342
10669SOL     OW34898   4.297   2.082   2.593 -0.0843 -0.6964  0.4276
10669SOL    HW134899   4.253   2.135   2.526  1.1441  0.9633  0.8712
10669SOL    HW234900   4.232   2.073   2.663  0.1522  1.7341  1.0839
10670SOL     OW34901   3.490   4.328   6.900 -0.1112 -0.1004  0.5620
10670SOL    HW134902   3.574   4.304   6.939  0.5415 -0.6522 -1.1186
10670SOL    HW234903   3.513   4.390   6.831 -1.0742 -0.3929 -0.0312
10671SOL     OW34904   5.113   5.965   6.076  0.2096  0.2027  0.2575
10671SOL    HW134905   5.147   5.977   6.164 -0.8831  0.4218  0.6661
10671SOL    HW234906   5.019   5.951   6.088  0.1796 -0.6260 -0.8107
10672SOL     OW34907   2.954   0.345   8.745 -0.3617 -0.2651 -0.2212
10672SOL    HW134908   2.893   0.408   8.784  0.3687 -0.0178  0.5441
10672SOL    HW234909   3.038   0.390   8.746  0.0476 -1.0251 -0.2318
10673SOL     OW34910   7.693   6.456   5.386 -0.2932 -0.4564 -0.5380
10673SOL    HW134911   7.758   6.410   5.438 -0.2526  0.3121  0.1052
10673SOL    HW234912   7.718   6.437   5.295 -0.1229 -1.4637 -0.2875
10674SOL     OW34913   7.717   1.729   5.330  0.1631 -0.1899  0.3385
10674SOL    HW134914   7.750   1.787   5.399 -0.8964  0.0092  0.6908
10674SOL    HW234915   7.669   1.661   5.377  1.2494 -1.2843 -0.0862
10675SOL     OW34916   8.582   6.452   0.035  0.1032  0.0140  0.2159
10675SOL    HW134917   8.551   6.374  -0.012  1.5253 -0.2772 -0.2800
10675SOL    HW234918   8.510   6.515   0.027 -1.3165 -1.4126  1.1099
10676SOL     OW34919   2.451   2.660   1.781 -0.1340  0.4485  0.0978
10676SOL    HW134920   2.507   2.686   1.708  0.2732 -0.5872  0.0205
10676SOL    HW234921   2.427   2.569   1.762  0.0597  0.1283  1.2894
10677SOL     OW34922   7.923   1.645   2.048 -0.0803 -0.1853  0.0008
10677SOL    HW134923   7.938   1.734   2.081  1.5389 -0.6854  0.7218
10677SOL    HW234924   7.843   1.617   2.092 -1.7109  1.5543 -1.6805
10678SOL     OW34925   9.003   0.752   8.372  0.2733 -0.4880 -0.7483
10678SOL    HW134926   9.013   0.659   8.394  0.6020 -0.1481  0.6093
10678SOL    HW234927   8.914   0.759   8.338  0.1945 -1.2637 -0.7183
10679SOL     OW34928   0.133   7.187   9.260  0.1028 -0.1128 -0.1528
10679SOL    HW134929   0.163   7.255   9.320  0.0891 -1.1089  1.0126
10679SOL    HW234930   0.098   7.235   9.185 -1.2613  1.2081  1.2608
10680SOL     OW34931   4.456   1.055   8.948  0.2172  0.0124  0.3378
10680SOL    HW134932   4.415   1.074   8.864 -1.1493 -3.5015  0.0407
10680SOL    HW234933   4.535   1.006   8.925  0.7640  0.5263  1.0892
10681SOL     OW34934   0.363   3.039   9.221  0.3812  0.7365  0.3304
10681SOL    HW134935   0.314   3.087   9.288  0.7144 -1.3056  2.1833
10681SOL    HW234936   0.313   2.958   9.208  1.1771  0.3934 -0.6972
10682SOL     OW34937   6.072   5.675   1.880 -0.5855 -0.1734 -0.4837
10682SOL    HW134938   6.012   5.746   1.903  0.1470  0.4394 -0.4259
10682SOL    HW234939   6.119   5.657   1.962  0.1166  0.1431 -0.8138
10683SOL     OW34940   2.142   1.374   6.963  0.4117  0.3472 -0.0393
10683SOL    HW134941   2.154   1.286   7.001  1.2535  0.6802  0.5004
10683SOL    HW234942   2.057   1.370   6.920 -0.2557 -0.2791  1.2649
10684SOL     OW34943   4.992   8.896   0.466  0.4431  0.6103  0.1273
10684SOL    HW134944   4.944   8.889   0.384 -1.1864 -2.1219  1.1732
10684SOL    HW234945   5.083   8.877   0.443  0.3284  1.6036 -1.2482
10685SOL     OW34946   8.926   1.702   3.558  0.0454 -0.4618  0.0218
10685SOL    HW134947   8.884   1.716   3.473  1.8515  0.4428 -0.7732
10685SOL    HW234948   8.994   1.637   3.541  0.4503 -0.2470  0.7624
10686SOL     OW34949   4.835   8.051   3.863  0.3019  0.1231  0.3152
10686SOL    HW134950   4.829   8.096   3.947 -0.2969 -1.4247  1.1417
10686SOL    HW234951   4.783   7.971   3.874 -0.6810  0.3839 -1.8870
10687SOL     OW34952   2.458   4.632   1.899 -0.1403 -0.1521  0.4465
10687SOL    HW134953   2.478   4.643   1.991 -0.5057  0.7078  0.4301
10687SOL    HW234954   2.481   4.716   1.858  1.9681 -1.1581 -0.6259
10688SOL     OW34955   5.117   0.415   4.410  0.0106 -0.4799 -0.3821
10688SOL    HW134956   5.153   0.443   4.494  2.7527  0.6098 -1.7801
10688SOL    HW234957   5.093   0.496   4.366  0.5013 -0.8770 -1.4062
10689SOL     OW34958   5.035   5.978   0.145  0.8137  0.0170 -0.4419
10689SOL    HW134959   4.958   6.033   0.131  0.1576 -0.6925  0.2446
10689SOL    HW234960   5.070   5.962   0.058 -1.0450 -1.3564 -1.0026
10690SOL     OW34961   7.374   1.449   5.190 -0.0801 -0.1166  0.5057
10690SOL    HW134962   7.337   1.361   5.182 -2.1856  0.7246  0.2293
10690SOL    HW234963   7.337   1.483   5.272  0.7958  0.4964  0.6633
10691SOL     OW34964   0.514   5.970   3.097  0.4787  0.5219 -0.6499
10691SOL    HW134965   0.565   5.946   3.174 -0.9339 -0.8062 -0.0816
10691SOL    HW234966   0.521   5.893   3.039  0.4221  0.9722 -1.2663
10692SOL     OW34967   4.052   3.021   6.064 -0.0227 -0.8185 -0.0444
10692SOL    HW134968   4.119   2.954   6.078  1.0083  0.0544 -0.6730
10692SOL    HW234969   4.034   3.056   6.152  1.1410 -0.3301  0.0180
10693SOL     OW34970   8.223   7.515   3.050  0.2238 -0.0967  0.6399
10693SOL    HW134971   8.149   7.573   3.032  1.3833  0.9418 -1.1788
10693SOL    HW234972   8.287   7.571   3.093  0.7868 -0.4042  0.2075
10694SOL     OW34973   4.099   9.370   0.599  0.3862 -0.6325  0.5911
10694SOL    HW134974   4.015   9.360   0.553  0.5192 -1.8229  0.5754
10694SOL    HW234975   4.130   9.280   0.612  1.1128 -0.2489  1.6186
10695SOL     OW34976   9.169   2.467   5.292  0.7812  0.1001  0.6921
10695SOL    HW134977   9.233   2.515   5.240  0.6618  0.7139  1.1076
10695SOL    HW234978   9.141   2.395   5.236  0.0507  1.2011 -0.3955
10696SOL     OW34979   6.555   2.148   4.003  0.2455 -0.6105  0.3739
10696SOL    HW134980   6.599   2.080   3.952 -1.7354 -1.4288 -0.3588
10696SOL    HW234981   6.563   2.118   4.094  0.3977 -1.2252  0.1649
10697SOL     OW34982   6.498   5.643   3.696 -0.0683  0.0146  0.8095
10697SOL    HW134983   6.439   5.716   3.681  1.1265  0.5128 -2.0613
10697SOL    HW234984   6.456   5.593   3.766 -4.3510 -0.1024 -1.4796
10698SOL     OW34985   2.158   2.831   2.915 -0.1361  0.7815  0.4606
10698SOL    HW134986   2.095   2.810   2.846  0.8189  0.0625 -0.2207
10698SOL    HW234987   2.172   2.748   2.961 -1.2667  1.3867  1.9934
10699SOL     OW34988   0.642   4.817   0.539 -0.1902 -0.3513 -1.2425
10699SOL    HW134989   0.715   4.867   0.500  1.6197 -1.4235  0.6002
10699SOL    HW234990   0.623   4.748   0.475  0.5568 -0.1952 -1.6422
10700SOL     OW34991   7.124   8.444   5.243  0.7597  0.5869  0.0430
10700SOL    HW134992   7.201   8.500   5.233  1.1235  0.2131  0.6505
10700SOL    HW234993   7.053   8.505   5.264  0.9012  0.9316 -0.4765
10701SOL     OW34994   3.414   6.848   1.058  0.8537  0.6477  0.0368
10701SOL    HW134995   3.452   6.832   0.972  0.1019  1.4108 -0.4507
10701SOL    HW234996   3.473   6.912   1.099 -0.0584  2.1552 -0.8815
10702SOL     OW34997   1.345   0.978   6.570  0.3076 -0.0004 -0.5738
10702SOL    HW134998   1.273   1.001   6.510 -0.1606  0.1893  0.0476
10702SOL    HW234999   1.342   1.046   6.637  1.3738  0.2748 -0.7892
10703SOL     OW35000   8.251   1.998   8.279 -0.1508  0.3193 -0.0720
10703SOL    HW135001   8.287   1.972   8.194 -0.6020 -1.0133  0.1224
10703SOL    HW235002   8.159   1.969   8.276  0.0033 -0.3636  1.1090
10704SOL     OW35003   6.715   1.219   8.868 -0.0026 -0.0623 -0.0520
10704SOL    HW135004   6.732   1.270   8.789 -0.5511 -1.6106 -1.2052
10704SOL    HW235005   6.695   1.285   8.934  1.6913  1.3326 -0.8511
10705SOL     OW35006   4.651   9.516   4.837  0.0526  0.2218  0.2392
10705SOL    HW135007   4.607   9.432   4.851 -1.5559  1.0163  0.2325
10705SOL    HW235008   4.744   9.497   4.846 -0.2125 -1.7391 -0.6373
10706SOL     OW35009   2.101   8.422   4.036  0.4272  0.3956  0.2684
10706SOL    HW135010   2.159   8.347   4.024  0.6313  0.7150 -0.9496
10706SOL    HW235011   2.099   8.437   4.130  0.4010 -1.1173  0.5276
10707SOL     OW35012   3.073   4.875   7.109  0.0953  0.3492  0.5274
10707SOL    HW135013   3.033   4.791   7.129 -0.2579  1.0378  2.9707
10707SOL    HW235014   3.076   4.878   7.013  1.3470 -2.9653  0.3362
10708SOL     OW35015   6.401   4.957   5.523  0.1810 -0.0733  0.8779
10708SOL    HW135016   6.426   5.000   5.441 -1.9015 -2.3236 -1.1142
10708SOL    HW235017   6.480   4.911   5.551  0.6102 -0.2645 -0.5807
10709SOL     OW35018   7.703   4.625   8.416 -0.1480 -0.1817 -0.1495
10709SOL    HW135019   7.710   4.536   8.450  3.1429 -0.0048 -0.0859
10709SOL    HW235020   7.772   4.674   8.460  2.1281  0.9000 -4.3919
10710SOL     OW35021   4.342   5.860   4.114  0.2401  0.2173  0.6213
10710SOL    HW135022   4.254   5.883   4.085 -0.1372 -0.5866  1.1145
10710SOL    HW235023   4.398   5.929   4.077 -0.3099 -0.3354 -1.3661
10711SOL     OW35024   5.080   4.564   9.194 -0.4981  0.1723  0.5289
10711SOL    HW135025   5.057   4.519   9.274  1.6203  0.9034  1.6319
10711SOL    HW235026   5.137   4.503   9.147  1.3322  1.1372  1.4185
10712SOL     OW35027   2.792   2.388   2.546  0.1239 -0.9104  0.5881
10712SOL    HW135028   2.793   2.474   2.503 -0.6716 -0.4931  1.3960
10712SOL    HW235029   2.769   2.327   2.476 -0.5693 -0.3103  0.2808
10713SOL     OW35030   8.777   7.013   8.225  0.3766  0.4213 -0.4325
10713SOL    HW135031   8.860   6.966   8.237  0.2482 -0.0827 -1.4758
10713SOL    HW235032   8.714   6.965   8.278 -0.0539 -1.4409 -2.4901
10714SOL     OW35033   2.695   6.680   0.138 -0.5976  0.0940  0.9492
10714SOL    HW135034   2.630   6.722   0.081 -0.4467 -0.5044  0.3253
10714SOL    HW235035   2.736   6.752   0.186  0.4830  0.7956 -0.9572
10715SOL     OW35036   8.382   2.483   1.239  0.8014  0.4171 -0.1777
10715SOL    HW135037   8.363   2.500   1.332  1.3080  0.6289 -0.1092
10715SOL    HW235038   8.312   2.526   1.192  0.6655  0.5044  0.1004
10716SOL     OW35039   3.950   3.196   5.879  0.3155  0.7016  0.0101
10716SOL    HW135040   3.956   3.138   5.803 -0.2688  1.5627 -0.7120
10716SOL    HW235041   3.987   3.145   5.951  0.3473 -0.3463 -0.7275
10717SOL     OW35042   5.182   5.864   8.649  0.3512  0.1970  0.4517
10717SOL    HW135043   5.159   5.920   8.574  0.4887 -0.1799  0.1219
10717SOL    HW235044   5.161   5.916   8.726  1.9255  1.3165  0.1654
10718SOL     OW35045   0.900   9.058   8.889  0.6208 -0.1721  0.3582
10718SOL    HW135046   0.892   9.096   8.976  1.1642 -1.1051  0.8233
10718SOL    HW235047   0.994   9.044   8.877  0.7089  1.3052 -0.9775
10719SOL     OW35048   3.337   8.876   7.211 -0.1485 -0.1422  0.1258
10719SOL    HW135049   3.390   8.900   7.287  1.3712  1.2020 -1.3094
10719SOL    HW235050   3.291   8.956   7.187 -0.1605 -0.3948 -0.7271
10720SOL     OW35051   6.375   6.424   6.918 -0.1988  0.0489 -0.3200
10720SOL    HW135052   6.390   6.489   6.987 -0.5475  0.7246 -0.8720
10720SOL    HW235053   6.292   6.450   6.878  0.8667  0.7282 -2.1747
10721SOL     OW35054   7.189   0.800   1.090  0.2563  0.2641 -0.3034
10721SOL    HW135055   7.190   0.895   1.099 -2.1077  0.2391  1.2248
10721SOL    HW235056   7.250   0.769   1.157  0.5359  0.7022 -0.3525
10722SOL     OW35057   8.647   2.532   6.999 -0.6142 -0.1938  0.0484
10722SOL    HW135058   8.557   2.535   7.033 -1.0523 -0.9056 -0.9991
10722SOL    HW235059   8.702   2.552   7.075 -1.6115 -0.6993  0.9341
10723SOL     OW35060   1.684   0.374   6.250  0.2299 -0.5066  0.3957
10723SOL    HW135061   1.727   0.309   6.306  1.2641  1.0597  1.5068
10723SOL    HW235062   1.756   0.426   6.214 -0.4379 -1.2260 -2.1419
10724SOL     OW35063   0.224   6.209   2.869 -0.1485  0.0333 -0.2045
10724SOL    HW135064   0.215   6.302   2.849  3.1019  0.5973  0.3614
10724SOL    HW235065   0.209   6.204   2.964  1.2162  0.3217  0.0556
10725SOL     OW35066   5.573   4.305   5.161  0.4552 -0.5551  0.3117
10725SOL    HW135067   5.660   4.278   5.131 -0.3686 -2.0174 -0.9446
10725SOL    HW235068   5.550   4.241   5.229  1.4430  1.4969  2.7267
10726SOL     OW35069   5.003   6.630   3.035  0.1243 -0.6354 -0.3376
10726SOL    HW135070   4.925   6.632   3.089 -1.1802 -1.9297 -2.0465
10726SOL    HW235071   5.067   6.581   3.087  0.1983  1.2810  1.4866
10727SOL     OW35072   9.101   7.329   2.525 -0.2248  0.6719  0.5745
10727SOL    HW135073   9.069   7.346   2.614 -0.6683  0.5948  0.4334
10727SOL    HW235074   9.023   7.335   2.470 -0.3702 -1.4280  0.4719
10728SOL     OW35075   0.244   0.321   6.504 -0.3995  0.2268  0.5088
10728SOL    HW135076   0.280   0.406   6.479  2.8454 -0.7191  1.6055
10728SOL    HW235077   0.293   0.295   6.581 -1.5774 -2.5029  0.4511
10729SOL     OW35078   0.243   4.007   2.803 -0.3499  0.1814  0.0760
10729SOL    HW135079   0.156   4.041   2.826 -0.0452  0.2346  1.2629
10729SOL    HW235080   0.236   3.913   2.816  0.5914  0.4291  3.4473
10730SOL     OW35081   4.808   9.009   8.806  0.3162 -0.1420  0.1140
10730SOL    HW135082   4.866   8.934   8.813  1.5444  0.7646  0.0443
10730SOL    HW235083   4.856   9.081   8.848 -1.2216  0.3962  1.0476
10731SOL     OW35084   4.707   3.198   0.413  0.1778  0.1592  0.5421
10731SOL    HW135085   4.725   3.211   0.320 -2.8847 -0.1611 -0.1982
10731SOL    HW235086   4.669   3.110   0.419 -2.1710  1.1556  1.6035
10732SOL     OW35087   5.420   7.650   7.881  0.5506  0.5115 -0.1613
10732SOL    HW135088   5.395   7.646   7.789  0.4759 -0.9789 -0.1006
10732SOL    HW235089   5.450   7.561   7.902 -1.0317  0.3461  1.6799
10733SOL     OW35090   6.046   7.398   6.406  0.1466 -0.3004  0.0279
10733SOL    HW135091   6.029   7.322   6.351 -1.1692 -0.1950  0.2667
10733SOL    HW235092   6.080   7.464   6.346 -0.6399 -0.4041 -0.5454
10734SOL     OW35093   0.358   8.229   6.389  0.1717  0.3834 -0.1669
10734SOL    HW135094   0.330   8.138   6.381 -0.4552  0.5583  0.0296
10734SOL    HW235095   0.432   8.225   6.451  0.0298  0.0332 -0.0128
10735SOL     OW35096   9.167   0.682   0.766 -0.0283 -0.2024  0.4680
10735SOL    HW135097   9.240   0.684   0.827 -0.0598 -2.2062  0.6554
10735SOL    HW235098   9.089   0.679   0.821 -0.1998  0.5227  0.2806
10736SOL     OW35099   3.124   3.839   2.241  0.0771 -0.2157 -0.2408
10736SOL    HW135100   3.148   3.907   2.305 -0.7021  0.0347 -0.2071
10736SOL    HW235101   3.144   3.756   2.286 -1.9296 -0.1045  0.9917
10737SOL     OW35102   2.819   4.634   4.182 -0.2009 -0.1995 -0.0009
10737SOL    HW135103   2.868   4.552   4.182  1.1190  0.5469 -0.4869
10737SOL    HW235104   2.823   4.665   4.273 -2.7913 -1.8044  0.7514
10738SOL     OW35105   3.830   3.648   6.036  0.5198  0.4863  0.7367
10738SOL    HW135106   3.776   3.594   5.978 -0.5086  1.8194  0.3970
10738SOL    HW235107   3.897   3.588   6.070  1.6832 -0.1954 -2.4174
10739SOL     OW35108   5.281   6.582   6.417  0.0431  0.1770  0.1520
10739SOL    HW135109   5.318   6.616   6.498 -0.6193  0.1045  0.4937
10739SOL    HW235110   5.337   6.507   6.395  1.2122  1.1726 -0.3525
10740SOL     OW35111   5.184   1.067   2.939  0.0670 -0.4472  0.2931
10740SOL    HW135112   5.125   1.091   3.010 -0.2638  0.7242 -0.3492
10740SOL    HW235113   5.128   1.027   2.873  0.3136 -1.1614  0.5014
10741SOL     OW35114   1.218   5.408   7.978 -0.0240  0.2467 -0.2147
10741SOL    HW135115   1.290   5.346   7.962 -0.4062 -0.5545  1.0354
10741SOL    HW235116   1.146   5.374   7.926  0.0759  0.2338 -0.3455
10742SOL     OW35117   8.162   1.139   9.048 -0.1431 -1.0574 -0.2263
10742SOL    HW135118   8.135   1.075   9.114  0.2186 -2.7286 -1.6232
10742SOL    HW235119   8.254   1.119   9.031 -0.4704 -1.2978 -1.8916
10743SOL     OW35120   6.694   1.810   4.710 -0.3719 -0.7505  0.6920
10743SOL    HW135121   6.645   1.830   4.789  1.8224  1.9256  1.5454
10743SOL    HW235122   6.756   1.883   4.701  2.4724 -3.1433 -1.0418
10744SOL     OW35123   7.603   6.079   3.912  0.2729  0.0223 -0.1022
10744SOL    HW135124   7.523   6.099   3.863  0.2614  0.7038  0.1809
10744SOL    HW235125   7.605   5.983   3.917 -0.7005  0.0067  0.1706
10745SOL     OW35126   5.083   7.906   5.697 -0.0693 -0.5682 -0.0666
10745SOL    HW135127   5.039   7.848   5.760  1.9472 -0.6183  1.3867
10745SOL    HW235128   5.143   7.958   5.751  0.2982  0.7997 -1.7285
10746SOL     OW35129   4.825   6.580   0.389 -0.1593 -0.6280  0.1897
10746SOL    HW135130   4.807   6.610   0.300  0.8718 -2.2183 -0.5905
10746SOL    HW235131   4.873   6.652   0.429 -0.7896  0.1777 -0.4613
10747SOL     OW35132   7.255   5.622   5.271  0.6947 -0.4197 -0.0584
10747SOL    HW135133   7.345   5.637   5.300  1.3363  0.5199 -2.3325
10747SOL    HW235134   7.249   5.528   5.257  1.2840 -0.5011  0.2202
10748SOL     OW35135   2.770   3.986   2.967  0.3600  0.0360 -0.4308
10748SOL    HW135136   2.849   3.970   3.019  1.3322  1.4320 -1.3886
10748SOL    HW235137   2.769   4.081   2.955 -0.5073 -0.1399 -1.8967
10749SOL     OW35138   1.234   9.153   4.068  0.5607  0.5688  0.3845
10749SOL    HW135139   1.321   9.131   4.034  0.8994  0.1371  1.4621
10749SOL    HW235140   1.210   9.078   4.122 -1.0952  0.0818 -0.9550
10750SOL     OW35141   6.312   9.272   0.157  0.3309  0.0107 -0.3883
10750SOL    HW135142   6.270   9.327   0.091  0.3621  1.1716  0.5321
10750SOL    HW235143   6.244   9.256   0.222  0.9577  0.9452  0.5313
10751SOL     OW35144   7.771   1.659   7.100 -0.1238 -0.1673 -0.1061
10751SOL    HW135145   7.796   1.587   7.159 -1.1192 -0.5009 -0.0675
10751SOL    HW235146   7.739   1.728   7.159  1.0805  0.4339 -0.1243
10752SOL     OW35147   0.182   5.342   9.371 -0.1073 -0.0470  0.0698
10752SOL    HW135148   0.272   5.366   9.393 -0.0532  1.0676 -1.2422
10752SOL    HW235149   0.190   5.296   9.287 -0.7781  0.3824 -0.2382
10753SOL     OW35150   3.297   8.257   2.176 -0.4320  0.4376  0.5391
10753SOL    HW135151   3.213   8.213   2.167  0.0461 -0.3454 -0.3245
10753SOL    HW235152   3.317   8.253   2.269 -0.1230 -1.7564  0.4402
10754SOL     OW35153   6.669   5.196   9.464  0.2778  0.7844 -0.3867
10754SOL    HW135154   6.756   5.172   9.495 -0.2012 -0.8024 -0.1917
10754SOL    HW235155   6.680   5.212   9.370  0.6327 -0.2459 -0.5313
10755SOL     OW35156   9.513   6.790   4.566  0.4600 -0.6008  0.2134
10755SOL    HW135157   9.608   6.792   4.553  0.5661 -0.0283  1.0384
10755SOL    HW235158   9.477   6.828   4.486  0.9541 -0.1718  0.1909
10756SOL     OW35159   7.666   3.626   3.530  0.3488 -0.4947  0.3335
10756SOL    HW135160   7.714   3.679   3.593 -0.1887  1.5336 -0.8787
10756SOL    HW235161   7.726   3.614   3.457  0.0288 -0.4990  0.0692
10757SOL     OW35162   2.955   2.464   1.185  0.3066  0.1803 -0.0538
10757SOL    HW135163   2.915   2.388   1.144  1.0373 -0.3331  0.1578
10757SOL    HW235164   2.883   2.508   1.230 -0.3085  0.1883 -1.0166
10758SOL     OW35165   2.061   1.705   6.223  0.3831 -0.3004  0.0904
10758SOL    HW135166   2.151   1.708   6.256  0.1348 -0.3635  0.7905
10758SOL    HW235167   2.070   1.674   6.133  1.0676 -0.2458  0.1308
10759SOL     OW35168   4.257   4.706   3.775 -0.9596  0.8285  0.1337
10759SOL    HW135169   4.346   4.736   3.759 -0.3084 -1.1848 -0.3502
10759SOL    HW235170   4.246   4.715   3.870  1.4243 -2.7574  0.9916
10760SOL     OW35171   5.069   3.555   1.699 -0.6228  0.6384  0.1032
10760SOL    HW135172   5.137   3.622   1.701 -0.5952  0.6051  0.4143
10760SOL    HW235173   4.988   3.604   1.685 -0.8661  0.9898  2.3234
10761SOL     OW35174   5.553   5.386   4.247 -0.3432 -0.0094 -0.0948
10761SOL    HW135175   5.506   5.415   4.325 -1.5639  0.6441 -1.0270
10761SOL    HW235176   5.484   5.368   4.183  0.6224 -0.6343 -0.9917
10762SOL     OW35177   8.438   2.773   3.809 -0.4916  0.3363 -0.0852
10762SOL    HW135178   8.454   2.708   3.877  0.2604  0.3234 -0.2680
10762SOL    HW235179   8.508   2.837   3.819 -0.5631  0.5102 -0.6357
10763SOL     OW35180   8.736   8.188   4.149 -0.6022  0.5204  0.3782
10763SOL    HW135181   8.778   8.239   4.080 -0.1115 -0.1678  0.1603
10763SOL    HW235182   8.808   8.143   4.192 -0.7018  2.1202  2.3700
10764SOL     OW35183   4.819   3.389   6.757 -0.0062  0.8522 -0.0220
10764SOL    HW135184   4.780   3.408   6.672  0.3897 -2.2967 -1.0303
10764SOL    HW235185   4.909   3.420   6.749  0.5961 -1.0686 -1.5395
10765SOL     OW35186   3.784   3.854   5.850 -0.1705 -0.1263 -0.0936
10765SOL    HW135187   3.817   3.791   5.914  0.0678  1.1122  1.0535
10765SOL    HW235188   3.863   3.896   5.815 -0.1688 -1.8143 -2.4059
10766SOL     OW35189   0.654   1.746   7.472 -0.3037 -0.0590 -0.1939
10766SOL    HW135190   0.560   1.733   7.456 -0.9803  1.7251  1.8373
10766SOL    HW235191   0.680   1.812   7.408 -0.9918  0.9730  0.5415
10767SOL     OW35192   1.268   5.122   6.233 -0.2350  0.1711  0.2208
10767SOL    HW135193   1.186   5.172   6.230 -0.0646  0.6394  1.9264
10767SOL    HW235194   1.241   5.031   6.229 -0.7543  0.3379 -0.2476
10768SOL     OW35195   2.360   0.191   8.464 -0.1918  0.3832 -0.0881
10768SOL    HW135196   2.432   0.227   8.516  0.1553  0.2033 -0.4429
10768SOL    HW235197   2.293   0.168   8.528  0.3724 -0.1697  0.3112
10769SOL     OW35198   8.854   2.531   0.386 -0.1658 -0.2287  0.3161
10769SOL    HW135199   8.772   2.561   0.348 -1.6497 -0.4036  3.1736
10769SOL    HW235200   8.886   2.464   0.325 -1.2867  0.9214 -1.6285
10770SOL     OW35201   9.051   2.575   0.140  0.1332  0.1967  0.2768
10770SOL    HW135202   9.041   2.489   0.182 -0.3300  0.7516  1.3446
10770SOL    HW235203   8.966   2.593   0.101  0.1438  0.2959  0.2984
10771SOL     OW35204   2.621   4.503   3.629 -0.5480 -0.2595 -0.0032
10771SOL    HW135205   2.567   4.571   3.668 -1.6043 -1.1937  0.1997
10771SOL    HW235206   2.711   4.530   3.648 -0.9883 -0.1334  2.1542
10772SOL     OW35207   6.052   5.067   6.098  0.3063 -0.7611  0.1189
10772SOL    HW135208   6.013   5.146   6.062  0.6465 -0.7802 -0.3028
10772SOL    HW235209   6.018   4.996   6.043 -1.1635 -1.1021  1.3865
10773SOL     OW35210   4.523   0.136   3.376 -0.7623 -0.6268 -0.5980
10773SOL    HW135211   4.581   0.060   3.382 -0.4942 -0.4361 -0.7330
10773SOL    HW235212   4.496   0.153   3.466  0.3960  0.0513 -0.3632
10774SOL     OW35213   1.259   9.435   6.907  0.1506 -0.2366 -0.6346
10774SOL    HW135214   1.180   9.439   6.852  0.2753  0.5805 -0.7633
10774SOL    HW235215   1.256   9.515   6.958  0.4915 -0.5880 -0.0639
10775SOL     OW35216   0.661   8.243   9.020 -0.3189  0.1544  0.4031
10775SOL    HW135217   0.628   8.311   8.961  1.1445 -0.2087 -0.8991
10775SOL    HW235218   0.608   8.166   8.999  0.1964  0.0257 -0.4674
10776SOL     OW35219   5.163   5.597   0.831  0.0674  0.1597  0.0480
10776SOL    HW135220   5.190   5.607   0.739 -1.5184 -0.4793 -0.5157
10776SOL    HW235221   5.111   5.517   0.832 -0.6458  0.6107  1.3403
10777SOL     OW35222   3.363   7.724   2.244  0.5827  0.0532 -0.0723
10777SOL    HW135223   3.370   7.799   2.302  0.7086  0.6820 -0.8719
10777SOL    HW235224   3.431   7.663   2.275  1.5519  0.9497 -0.3612
10778SOL     OW35225   2.362   9.375   1.086  0.2172 -0.5044  0.2040
10778SOL    HW135226   2.398   9.427   1.013  0.9050 -0.4902  0.5452
10778SOL    HW235227   2.433   9.315   1.110 -0.2643 -1.0022  0.3901
10779SOL     OW35228   1.391   3.022   7.312 -0.2196 -0.3170 -0.2165
10779SOL    HW135229   1.457   3.027   7.381  0.6526 -0.7756 -0.9929
10779SOL    HW235230   1.441   3.011   7.232 -1.1227  1.8847 -1.1685
10780SOL     OW35231   6.828   3.206   5.380 -0.4407 -0.1273 -0.5619
10780SOL    HW135232   6.740   3.189   5.346 -0.5258  0.9115 -0.9040
10780SOL    HW235233   6.843   3.137   5.444 -2.0085  0.3929  0.4198
10781SOL     OW35234   4.927   6.664   1.031 -0.2054 -0.1089  0.4073
10781SOL    HW135235   4.917   6.626   0.945 -0.1453 -2.3160  1.3234
10781SOL    HW235236   5.009   6.628   1.065 -0.4338  0.3976  1.5588
10782SOL     OW35237   9.092   4.900   1.333 -0.0748  0.5598  0.1013
10782SOL    HW135238   9.117   4.818   1.290  0.8214  1.0294 -0.3004
10782SOL    HW235239   8.998   4.910   1.314 -0.0646 -0.0928 -0.3114
10783SOL     OW35240   7.722   3.915   1.853  0.4313  0.4036  0.1735
10783SOL    HW135241   7.817   3.908   1.852  0.5060  1.2390  0.6017
10783SOL    HW235242   7.696   3.915   1.761  1.1960  4.2244 -0.1768
10784SOL     OW35243   2.611   4.434   2.803 -0.4009  0.1517 -0.0285
10784SOL    HW135244   2.519   4.456   2.818 -0.4399  1.0353 -1.3998
10784SOL    HW235245   2.655   4.458   2.885 -1.0346  1.9984 -0.1796
10785SOL     OW35246   0.928   5.057   2.606  0.2153 -0.5684 -0.1875
10785SOL    HW135247   0.840   5.087   2.581  0.2897 -0.7900 -0.7390
10785SOL    HW235248   0.928   5.060   2.702  0.0282  0.6160 -0.2119
10786SOL     OW35249   3.559   9.001   4.186 -0.5121 -0.6999 -0.1778
10786SOL    HW135250   3.639   8.949   4.195  0.2850  0.4272 -0.6388
10786SOL    HW235251   3.520   8.970   4.104 -0.2859 -0.8941 -0.2146
10787SOL     OW35252   9.506   6.959   1.484 -1.1032 -0.0986  0.0983
10787SOL    HW135253   9.486   6.950   1.577  0.3488 -1.9291  0.2895
10787SOL    HW235254   9.531   6.871   1.456  0.8029  0.8511 -1.4186
10788SOL     OW35255   3.086   6.036   0.939  0.9643  0.2372  0.0065
10788SOL    HW135256   3.022   5.977   0.899  2.1657 -0.4766 -0.9106
10788SOL    HW235257   3.144   6.062   0.868  0.8002  2.1293  0.4937
10789SOL     OW35258   1.671   2.668   0.120  0.5948 -0.2102  0.1112
10789SOL    HW135259   1.703   2.578   0.118 -0.1022 -0.5127  1.4453
10789SOL    HW235260   1.634   2.678   0.208 -1.1067  0.7576 -0.6780
10790SOL     OW35261   6.140   5.606   3.995 -0.2482  0.4647 -0.3090
10790SOL    HW135262   6.056   5.572   3.964 -0.5943 -0.0672  1.1008
10790SOL    HW235263   6.117   5.658   4.072  0.8258 -0.9529  1.0183
10791SOL     OW35264   0.863   0.265   8.673 -0.6197  0.3301  0.4062
10791SOL    HW135265   0.954   0.265   8.702  0.3234 -0.2168 -2.2264
10791SOL    HW235266   0.852   0.347   8.626 -0.9796 -0.2737 -0.6124
10792SOL     OW35267   9.525   9.054   2.358  0.3122  0.9429 -0.2729
10792SOL    HW135268   9.459   9.013   2.303  0.7567  0.5655 -0.5330
10792SOL    HW235269   9.566   9.119   2.303  0.1279  1.2140 -0.0947
10793SOL     OW35270   3.232   7.126   6.878  0.0782 -0.7799  0.4676
10793SOL    HW135271   3.277   7.210   6.879  1.5438 -1.5221 -0.0355
10793SOL    HW235272   3.141   7.148   6.858  0.5125  0.6540 -0.0659
10794SOL     OW35273   5.998   7.585   1.998 -0.2473 -0.1815 -0.3409
10794SOL    HW135274   6.037   7.560   1.914  0.6966  0.7386 -0.1920
10794SOL    HW235275   6.024   7.516   2.058 -0.0519 -0.3087 -0.5688
10795SOL     OW35276   3.066   3.815   2.926  0.5592 -0.7764  0.0515
10795SOL    HW135277   3.111   3.778   3.002  1.0720 -1.7909 -0.7125
10795SOL    HW235278   3.098   3.905   2.920 -1.6935  0.3312  2.7287
10796SOL     OW35279   8.740   4.662   6.167  0.7508 -0.3380  0.2085
10796SOL    HW135280   8.699   4.588   6.212  0.1119 -1.0618 -1.5035
10796SOL    HW235281   8.667   4.717   6.140  0.9818 -0.8195 -1.4652
10797SOL     OW35282   1.890   2.458   8.216  0.5194  0.9666  0.6602
10797SOL    HW135283   1.929   2.488   8.134  0.2274  2.8588  1.1752
10797SOL    HW235284   1.803   2.426   8.191  1.4693 -1.1892 -0.1514
10798SOL     OW35285   7.615   2.734   0.078 -0.0674 -0.0569 -0.1076
10798SOL    HW135286   7.663   2.775   0.006  1.0724  1.5228  1.4481
10798SOL    HW235287   7.540   2.792   0.093  0.3972  0.3391  0.7604
10799SOL     OW35288   7.135   7.172   0.557 -0.0115 -0.2190  0.2197
10799SOL    HW135289   7.184   7.105   0.605  0.7355 -0.2291 -0.5344
10799SOL    HW235290   7.046   7.137   0.551  0.1284 -0.6713  0.7183
10800SOL     OW35291   4.156   9.618   6.777  0.3004  0.0650 -0.0408
10800SOL    HW135292   4.214   9.590   6.707 -0.0303  0.5513 -0.5105
10800SOL    HW235293   4.199   9.695   6.814 -0.3727  0.8351 -0.8344
10801SOL     OW35294   3.524   7.126   7.772 -0.2230 -0.3120  0.9996
10801SOL    HW135295   3.529   7.053   7.833  1.5577 -0.9914  0.1006
10801SOL    HW235296   3.582   7.102   7.700 -0.2640  1.6115  0.2529
10802SOL     OW35297   8.182   9.005   1.509  0.1066  0.0010 -0.5764
10802SOL    HW135298   8.214   9.085   1.468 -2.1259  1.8593  1.0353
10802SOL    HW235299   8.101   9.031   1.554  1.2801 -2.1964  3.3530
10803SOL     OW35300   9.600   1.771   7.531 -0.6484  0.1836 -0.9305
10803SOL    HW135301   9.642   1.766   7.445  2.1997 -2.4490  0.3880
10803SOL    HW235302   9.660   1.824   7.583 -0.5802 -0.9953  0.2257
10804SOL     OW35303   2.959   9.117   0.106  0.0615  0.2942  0.5952
10804SOL    HW135304   2.945   9.193   0.050 -1.3885  0.1853  0.7719
10804SOL    HW235305   2.926   9.043   0.055 -0.3083  0.0523  1.1798
10805SOL     OW35306   6.762   8.456   9.287 -0.0553  0.2366  0.1188
10805SOL    HW135307   6.833   8.518   9.301  0.4287 -0.3487  0.3405
10805SOL    HW235308   6.684   8.510   9.279  0.2479  0.8360  1.0119
10806SOL     OW35309   3.421   1.190   7.524 -0.0016 -0.2827 -0.1382
10806SOL    HW135310   3.441   1.097   7.518 -0.1027 -0.2645 -0.8082
10806SOL    HW235311   3.504   1.230   7.550  0.3058 -0.4527 -0.8275
10807SOL     OW35312   2.182   8.247   6.500  0.4979  0.5192 -0.0131
10807SOL    HW135313   2.186   8.181   6.431  2.0078 -1.7915  2.1098
10807SOL    HW235314   2.253   8.308   6.479  0.5711  0.1799 -0.7956
10808SOL     OW35315   8.246   2.172   8.644  0.5500 -0.5020  0.3099
10808SOL    HW135316   8.324   2.153   8.592  0.1542  0.4205 -0.6626
10808SOL    HW235317   8.204   2.087   8.658  2.5356 -1.2709  2.2513
10809SOL     OW35318   1.705   8.728   7.072  0.0036  0.1184 -0.0558
10809SOL    HW135319   1.677   8.795   7.009 -0.9437  0.8656  1.1204
10809SOL    HW235320   1.799   8.743   7.083 -0.2566  1.5204  0.4629
10810SOL     OW35321   1.676   8.504   5.743 -0.4790 -0.1506  0.3012
10810SOL    HW135322   1.719   8.590   5.740 -1.5298  0.4048  0.6019
10810SOL    HW235323   1.586   8.522   5.715 -1.3573 -0.7304  2.5512
10811SOL     OW35324   7.000   8.830   3.326  0.4950 -0.3917  1.2328
10811SOL    HW135325   7.007   8.803   3.417  0.6798 -0.3652  1.2273
10811SOL    HW235326   7.034   8.755   3.276 -0.7262 -0.9016  1.1196
10812SOL     OW35327   9.469   7.908   4.863 -0.1205 -0.2161 -0.0597
10812SOL    HW135328   9.527   7.892   4.788  0.9819  1.3236  0.4100
10812SOL    HW235329   9.389   7.945   4.825 -0.3581 -1.2778 -0.6199
10813SOL     OW35330   1.719   7.399   5.800  0.2945 -0.9303 -0.1163
10813SOL    HW135331   1.639   7.417   5.750 -0.1150  0.0457  0.8436
10813SOL    HW235332   1.688   7.383   5.889  1.1775 -0.1674  0.3503
10814SOL     OW35333   8.138   3.628   4.139  0.5152  0.1573  0.2951
10814SOL    HW135334   8.205   3.648   4.205  0.7339  1.0619 -0.1789
10814SOL    HW235335   8.166   3.676   4.061  1.0352 -2.0344 -0.9550
10815SOL     OW35336   3.903   8.494   0.489 -0.3023 -0.7154 -0.0709
10815SOL    HW135337   3.810   8.513   0.500 -0.0249 -0.2120  1.7427
10815SOL    HW235338   3.934   8.473   0.578  1.6965  0.9591 -0.3090
10816SOL     OW35339   8.340   3.385   6.398 -0.0940 -0.2568  0.1673
10816SOL    HW135340   8.309   3.443   6.328  0.9907  0.2555  0.1060
10816SOL    HW235341   8.423   3.350   6.365  1.3756  1.3924  1.9318
10817SOL     OW35342   4.017   7.617   9.495 -0.1173  0.2425 -0.0645
10817SOL    HW135343   3.967   7.648   9.419 -1.9076 -1.2523  0.4416
10817SOL    HW235344   3.958   7.629   9.569  2.2220  3.3920  1.5450
10818SOL     OW35345   7.548   1.817   1.609 -0.1318  0.7331  0.0552
10818SOL    HW135346   7.629   1.855   1.642  0.1154 -0.1219  0.4732
10818SOL    HW235347   7.484   1.831   1.679  0.9074 -2.9701  2.0391
10819SOL     OW35348   7.238   5.695   9.514  0.1052  0.1353 -0.2227
10819SOL    HW135349   7.300   5.641   9.465  1.0131  1.2688 -0.3661
10819SOL    HW235350   7.212   5.640   9.588 -0.0892 -1.0091 -1.1156
10820SOL     OW35351   6.777   7.511   0.650  0.2170  0.4102 -0.0532
10820SOL    HW135352   6.726   7.519   0.570  0.0792 -0.3792 -0.0502
10820SOL    HW235353   6.735   7.571   0.711 -0.0471  0.5642 -0.3810
10821SOL     OW35354   5.124   5.719   7.419 -0.5167 -0.2454 -0.0527
10821SOL    HW135355   5.074   5.744   7.496  1.3412 -1.4961  1.6859
10821SOL    HW235356   5.063   5.667   7.366 -1.4498 -0.5874  1.3089
10822SOL     OW35357   6.658   9.470   9.531 -0.1688 -0.3669  0.1396
10822SOL    HW135358   6.675   9.561   9.554 -1.1522  0.4948 -2.2271
10822SOL    HW235359   6.693   9.420   9.605 -0.0943  1.9238  1.7824
10823SOL     OW35360   6.968   8.648   5.340 -0.3788 -0.2009  0.1594
10823SOL    HW135361   6.880   8.611   5.332 -0.8364  1.0011 -0.6321
10823SOL    HW235362   6.954   8.742   5.337  1.0187 -0.0062 -0.9560
10824SOL     OW35363   6.042   8.864   6.693  0.1356  0.0683  0.4780
10824SOL    HW135364   5.952   8.893   6.708  0.7972  1.5137  1.8717
10824SOL    HW235365   6.036   8.769   6.688 -1.2642  0.0210  2.2942
10825SOL     OW35366   7.505   1.489   0.787  0.0248  0.1946  0.1067
10825SOL    HW135367   7.425   1.447   0.754 -0.1689 -2.4995  3.3846
10825SOL    HW235368   7.574   1.459   0.727 -0.9319 -0.3810 -0.7440
10826SOL     OW35369   3.109   3.298   0.547  0.0182 -0.3235  0.2245
10826SOL    HW135370   3.080   3.296   0.638  0.3767 -0.7875  0.3360
10826SOL    HW235371   3.029   3.288   0.496 -0.2764  0.7423  0.4665
10827SOL     OW35372   5.343   7.896   9.139 -0.0846  0.6918  0.0992
10827SOL    HW135373   5.289   7.860   9.210 -1.3716  2.3508  0.0415
10827SOL    HW235374   5.431   7.864   9.157 -0.8495 -1.1553  0.8853
10828SOL     OW35375   5.269   6.283   9.503 -0.3192 -0.6457  0.3855
10828SOL    HW135376   5.341   6.281   9.440 -0.0445  1.5969  0.5278
10828SOL    HW235377   5.192   6.306   9.451 -0.3231 -0.0245  0.6469
10829SOL     OW35378   8.729   9.015   7.485 -0.6501  0.0625  0.5825
10829SOL    HW135379   8.801   9.003   7.547 -1.5649  0.1208  1.6906
10829SOL    HW235380   8.771   9.009   7.399  0.6194 -0.2559  1.1880
10830SOL     OW35381   4.068   8.390   8.905  0.3853  0.2635  0.6646
10830SOL    HW135382   4.003   8.460   8.906  3.2196  3.1280  0.6702
10830SOL    HW235383   4.102   8.387   8.994  0.7621 -0.6804  0.5013
10831SOL     OW35384   5.430   8.133   8.027 -1.1978  0.1095  0.2674
10831SOL    HW135385   5.493   8.066   7.999 -2.1034 -0.9517  0.6689
10831SOL    HW235386   5.379   8.153   7.948 -0.0763  1.3227 -0.1753
10832SOL     OW35387   2.332   6.818   0.011  0.1200 -0.1232  0.4364
10832SOL    HW135388   2.306   6.843  -0.077  2.1396  1.1776  0.1303
10832SOL    HW235389   2.377   6.735   0.001 -1.2898 -0.9316  0.5576
10833SOL     OW35390   7.507   0.901   3.835 -0.0184 -0.1767  0.7889
10833SOL    HW135391   7.440   0.835   3.817  0.7723 -1.3604  2.0114
10833SOL    HW235392   7.487   0.972   3.774 -3.3448  0.2323  2.1460
10834SOL     OW35393   0.820   4.016   8.352  0.0861 -0.4337 -0.7560
10834SOL    HW135394   0.860   3.930   8.357  0.1881 -0.4162 -1.3177
10834SOL    HW235395   0.870   4.063   8.286 -0.3912 -0.1650 -0.9286
10835SOL     OW35396   2.801   1.705   1.643  0.1056  0.0980  0.3895
10835SOL    HW135397   2.807   1.767   1.716  0.6991  0.4701  0.0375
10835SOL    HW235398   2.758   1.755   1.573 -1.5127 -0.6072  0.8338
10836SOL     OW35399   3.469   9.638   8.949 -0.0254 -0.2205 -0.2184
10836SOL    HW135400   3.414   9.665   8.875  1.5681  1.1993 -0.9736
10836SOL    HW235401   3.546   9.694   8.942  1.1626 -1.5864  1.2515
10837SOL     OW35402   4.937   3.985   6.615  0.1429 -0.1664  0.4322
10837SOL    HW135403   4.857   3.959   6.662  0.1203  0.0089  0.4936
10837SOL    HW235404   4.990   4.030   6.681  0.6369 -0.9651  0.5856
10838SOL     OW35405   1.996   2.579   4.127 -0.0286 -0.0264  1.0390
10838SOL    HW135406   2.021   2.646   4.064 -0.3034 -0.0339  0.9204
10838SOL    HW235407   1.974   2.503   4.074 -0.9319  0.1862  1.0986
10839SOL     OW35408   6.360   5.474   9.171 -0.4607  0.0401 -0.1126
10839SOL    HW135409   6.279   5.519   9.196 -1.2963 -0.8811 -1.0875
10839SOL    HW235410   6.352   5.387   9.209 -0.4064 -0.3936 -1.0549
10840SOL     OW35411   0.729   0.046   5.874 -0.1910  0.3635  0.2771
10840SOL    HW135412   0.659   0.070   5.812  0.3893  0.9927 -0.1422
10840SOL    HW235413   0.719  -0.048   5.885 -0.6299  0.3226 -0.3852
10841SOL     OW35414   7.715   7.600   2.411  0.3508 -0.1845 -0.4169
10841SOL    HW135415   7.748   7.611   2.500  2.4051 -0.3655 -1.1107
10841SOL    HW235416   7.755   7.671   2.361 -2.7596  1.4869 -0.7735
10842SOL     OW35417   1.607   5.286   1.328 -0.2249  0.0575 -0.1338
10842SOL    HW135418   1.673   5.352   1.350 -0.9391  1.0196 -0.7739
10842SOL    HW235419   1.562   5.268   1.411 -0.1047  0.4826  0.0248
10843SOL     OW35420   6.804   3.974   0.383 -0.2246  0.1792 -0.1779
10843SOL    HW135421   6.859   4.053   0.381  0.5165 -0.2943  0.8878
10843SOL    HW235422   6.818   3.937   0.469 -0.4123 -1.2500 -0.7390
10844SOL     OW35423   2.064   6.157   5.517  0.2341 -0.8480 -0.0926
10844SOL    HW135424   2.110   6.226   5.469  0.1438 -0.8599 -0.1981
10844SOL    HW235425   1.981   6.148   5.471  0.5975 -1.6330 -0.6142
10845SOL     OW35426   8.647   2.346   1.604 -0.0327  0.7338  0.4699
10845SOL    HW135427   8.629   2.365   1.512  1.3057 -0.1737 -0.0010
10845SOL    HW235428   8.588   2.273   1.625 -0.1781  0.7947  0.2783
10846SOL     OW35429   4.230   6.740   4.218  0.3766 -0.5444 -0.4722
10846SOL    HW135430   4.174   6.818   4.219  1.2203  0.0807 -0.0244
10846SOL    HW235431   4.173   6.670   4.188 -0.6139  0.0861 -0.1228
10847SOL     OW35432   1.254   4.103   9.624 -0.0350 -0.0906 -0.5758
10847SOL    HW135433   1.274   4.160   9.550 -1.2006 -0.8841 -1.5531
10847SOL    HW235434   1.331   4.046   9.632  0.5344  0.6742 -0.4968
10848SOL     OW35435   7.501   6.973   8.762  0.1028 -0.1554 -0.0565
10848SOL    HW135436   7.425   6.944   8.812  0.8204 -1.1136  0.5292
10848SOL    HW235437   7.541   7.041   8.816  0.1077 -0.2218  0.0245
10849SOL     OW35438   8.682   5.569   1.381 -0.1953  0.7461  0.3293
10849SOL    HW135439   8.622   5.500   1.350  0.5218 -0.1271  0.8357
10849SOL    HW235440   8.768   5.540   1.352 -0.0078  2.0326 -0.4514
10850SOL     OW35441   4.506   1.268   9.167 -0.0819  0.0961  0.5319
10850SOL    HW135442   4.518   1.241   9.076  1.1744  1.5247  0.2347
10850SOL    HW235443   4.412   1.284   9.176 -0.2302 -0.1750 -0.4751
10851SOL     OW35444   3.023   4.844   8.356 -0.2587 -0.4448  0.0631
10851SOL    HW135445   3.096   4.888   8.400  0.8581 -0.4688 -1.6655
10851SOL    HW235446   2.989   4.910   8.295  0.8751 -1.6237 -1.9348
10852SOL     OW35447   9.293   4.953   2.793 -0.7467 -0.1011 -0.3363
10852SOL    HW135448   9.359   4.887   2.777 -1.1607 -0.8227  0.8406
10852SOL    HW235449   9.308   5.019   2.725  0.5552 -0.7111 -0.6653
10853SOL     OW35450   2.641   1.122   7.151  0.2424  0.3733  0.2432
10853SOL    HW135451   2.607   1.037   7.123  0.8536 -0.1096  0.9317
10853SOL    HW235452   2.604   1.135   7.239 -0.9063  1.4431 -0.3621
10854SOL     OW35453   9.123   0.326   5.457 -0.4503 -0.3916 -0.2992
10854SOL    HW135454   9.073   0.287   5.385 -0.1692  0.7227 -1.1310
10854SOL    HW235455   9.182   0.388   5.414  1.0622 -1.0578  0.7390
10855SOL     OW35456   9.641   7.804   4.614 -1.0205 -0.1752 -0.2227
10855SOL    HW135457   9.608   7.726   4.569 -0.6313  1.3157 -3.3965
10855SOL    HW235458   9.728   7.779   4.644 -1.2817 -1.2572 -0.3185
10856SOL     OW35459   1.590   8.550   3.660 -0.3048 -0.4248 -0.0307
10856SOL    HW135460   1.547   8.627   3.625 -1.8647 -1.9813 -1.7835
10856SOL    HW235461   1.519   8.497   3.697  0.0609 -2.6710 -2.2259
10857SOL     OW35462   8.867   7.171   0.009  0.1502 -0.3378  0.0691
10857SOL    HW135463   8.880   7.253  -0.040 -1.5594  0.2359  0.4922
10857SOL    HW235464   8.954   7.131   0.012  0.8754  1.0611 -0.8550
10858SOL     OW35465   5.302   2.568   5.610 -0.0473 -0.0630  0.2585
10858SOL    HW135466   5.337   2.558   5.521  0.0565 -0.6271  0.3579
10858SOL    HW235467   5.328   2.657   5.636  1.8148 -0.6380  0.5417
10859SOL     OW35468   0.749   9.511   0.177  0.4869  0.0967  0.1167
10859SOL    HW135469   0.654   9.516   0.165  0.3002  0.8436  1.7030
10859SOL    HW235470   0.770   9.418   0.163 -0.5774 -0.2016  0.4161
10860SOL     OW35471   7.339   8.129   8.000 -0.6441 -0.1180  0.2895
10860SOL    HW135472   7.270   8.193   8.017  2.0984  3.3563 -0.5829
10860SOL    HW235473   7.332   8.111   7.907 -0.3239  0.2821  0.1889
10861SOL     OW35474   6.431   6.243   8.653  1.0352  0.5288  0.0077
10861SOL    HW135475   6.429   6.205   8.740 -1.2348 -2.6808 -1.2624
10861SOL    HW235476   6.517   6.221   8.619  1.6868  1.2152  1.1463
10862SOL     OW35477   1.284   8.611   6.264 -0.1421  0.1858 -0.2939
10862SOL    HW135478   1.271   8.594   6.357 -1.0511 -0.8090 -0.5912
10862SOL    HW235479   1.212   8.565   6.220 -0.6293  1.8920 -1.3911
10863SOL     OW35480   5.733   9.243   5.012 -0.1539  0.2639 -0.0817
10863SOL    HW135481   5.792   9.192   5.069 -0.2610 -0.0512 -0.2473
10863SOL    HW235482   5.725   9.189   4.933 -1.0620  0.0585  0.1365
10864SOL     OW35483   1.767   2.348   2.092 -0.6496  0.0988 -0.2451
10864SOL    HW135484   1.796   2.423   2.144 -1.0018  1.8538 -2.4307
10864SOL    HW235485   1.758   2.277   2.156  0.1617  1.7500  1.8474
10865SOL     OW35486   5.980   6.871   5.956  0.0025 -0.0364 -0.4411
10865SOL    HW135487   6.029   6.911   6.029  0.1170 -3.2129  1.4102
10865SOL    HW235488   6.047   6.828   5.903 -0.3601 -0.3560 -0.6448
10866SOL     OW35489   3.956   8.785   3.219 -0.3387 -0.0919  0.0250
10866SOL    HW135490   4.003   8.705   3.195  2.0971  1.4225 -0.5042
10866SOL    HW235491   3.864   8.757   3.226  0.1337 -2.5449 -2.0302
10867SOL     OW35492   6.683   1.266   4.591 -0.0652  0.1303  0.3150
10867SOL    HW135493   6.674   1.358   4.616  0.7994  0.2976  0.0617
10867SOL    HW235494   6.778   1.252   4.587 -0.1881 -0.7731  0.3555
10868SOL     OW35495   1.371   5.655   8.032  0.2484 -0.5904  0.2818
10868SOL    HW135496   1.322   5.577   8.004  0.0958 -1.1081  1.8655
10868SOL    HW235497   1.446   5.619   8.080  1.0044  0.2330 -0.2756
10869SOL     OW35498   5.882   5.580   0.296 -0.2687  0.5296  0.0979
10869SOL    HW135499   5.921   5.498   0.326  1.1039  0.8371 -0.7917
10869SOL    HW235500   5.936   5.648   0.334 -0.8773  1.0076  0.1167
10870SOL     OW35501   7.937   8.796   7.406 -0.0304 -0.5612  0.2403
10870SOL    HW135502   7.980   8.774   7.323  0.9475  0.8795  0.3191
10870SOL    HW235503   7.908   8.887   7.395  0.3569 -0.2536  1.5532
10871SOL     OW35504   6.744   5.278   5.783 -1.1083 -0.3320 -0.1726
10871SOL    HW135505   6.737   5.279   5.878 -2.1704 -0.9834 -0.2383
10871SOL    HW235506   6.656   5.260   5.752 -1.0515  1.1386 -1.3246
10872SOL     OW35507   6.638   8.886   2.908 -0.1162  0.6677  0.1270
10872SOL    HW135508   6.714   8.863   2.961  0.6222  1.7944 -0.4087
10872SOL    HW235509   6.621   8.809   2.855 -0.4651 -0.2431  1.5086
10873SOL     OW35510   4.788   6.038   4.054  0.3199 -0.1628 -0.3213
10873SOL    HW135511   4.789   6.134   4.054  0.7010 -0.1587 -0.9049
10873SOL    HW235512   4.753   6.015   3.968  2.2020 -0.5306 -1.0424
10874SOL     OW35513   5.249   9.080   3.771 -0.1097  0.4282  0.3814
10874SOL    HW135514   5.162   9.047   3.750 -0.3946  1.8991 -0.9410
10874SOL    HW235515   5.304   9.002   3.777 -0.6697 -0.3780 -2.9538
10875SOL     OW35516   3.466   2.438   6.572 -0.0180 -1.0714 -0.1418
10875SOL    HW135517   3.450   2.390   6.653  1.1938 -1.4325 -0.0882
10875SOL    HW235518   3.546   2.487   6.589 -1.0303  0.7136 -0.3311
10876SOL     OW35519   8.458   9.204   7.118  0.3252  0.0554 -0.4762
10876SOL    HW135520   8.479   9.280   7.064 -1.7218  2.3995  1.8082
10876SOL    HW235521   8.525   9.204   7.186  0.3219 -0.2129 -0.4734
10877SOL     OW35522   8.195   7.294   7.584  0.1500  0.1143  0.1791
10877SOL    HW135523   8.169   7.297   7.492  0.8820  0.7359 -0.0167
10877SOL    HW235524   8.291   7.292   7.581  0.1693 -0.5896  0.9151
10878SOL     OW35525   4.601   1.624   0.370 -0.5271 -0.1958  0.1024
10878SOL    HW135526   4.626   1.580   0.452  0.6008 -0.9035 -0.5968
10878SOL    HW235527   4.537   1.566   0.330  0.5145 -0.9538 -0.5271
10879SOL     OW35528   9.587   5.222   4.156  0.0411 -0.5619  0.0061
10879SOL    HW135529   9.507   5.263   4.189 -1.9391 -1.9783 -2.6810
10879SOL    HW235530   9.657   5.264   4.206 -2.1090  2.9599  0.4374
10880SOL     OW35531   8.380   4.334   5.501 -0.4354 -0.2723  0.0555
10880SOL    HW135532   8.387   4.255   5.447 -1.5685 -0.4509  0.1446
10880SOL    HW235533   8.291   4.331   5.536 -0.8606  1.5664 -0.7441
10881SOL     OW35534   7.508   2.761   3.130 -0.4990 -0.0644 -0.1138
10881SOL    HW135535   7.493   2.846   3.171  1.8747  0.0324  0.7250
10881SOL    HW235536   7.523   2.780   3.038 -1.8113  0.1936 -0.2861
10882SOL     OW35537   8.312   3.308   2.949 -0.3342 -0.2398  0.1820
10882SOL    HW135538   8.230   3.262   2.932 -0.3645  0.7898 -2.9685
10882SOL    HW235539   8.285   3.398   2.966  0.0696 -0.2288  0.7959
10883SOL     OW35540   3.570   1.045   2.093 -0.1975 -0.1211  0.0940
10883SOL    HW135541   3.626   1.002   2.157 -1.4539 -1.5258  0.3099
10883SOL    HW235542   3.482   1.013   2.114 -1.1801  2.4139  0.1131
10884SOL     OW35543   1.252   1.472   0.888  0.1192  0.3552  0.3087
10884SOL    HW135544   1.166   1.450   0.854 -0.1487  1.2827  0.3653
10884SOL    HW235545   1.235   1.514   0.972  0.6114  0.7339  0.2250
10885SOL     OW35546   3.602   7.276   3.494 -0.0436  0.4546 -0.0250
10885SOL    HW135547   3.644   7.213   3.436  0.1139  0.8312 -0.3216
10885SOL    HW235548   3.674   7.313   3.545 -0.2242 -0.1649  0.7069
10886SOL     OW35549   8.216   4.818   2.748 -0.1247 -0.0085  0.1440
10886SOL    HW135550   8.139   4.871   2.768  1.0572  1.8377  0.0941
10886SOL    HW235551   8.273   4.827   2.825  0.7038 -0.0303 -0.4476
10887SOL     OW35552   2.024   8.620   6.560  0.1605 -0.5096  0.2507
10887SOL    HW135553   2.116   8.639   6.545  0.3850 -2.1664 -0.6667
10887SOL    HW235554   2.022   8.567   6.639 -0.0389 -0.2703  0.4092
10888SOL     OW35555   4.402   3.525   0.101  0.4069 -0.1295  0.0249
10888SOL    HW135556   4.359   3.586   0.041  0.9073  0.8371  0.6349
10888SOL    HW235557   4.373   3.553   0.188  0.3091 -1.0305  0.2878
10889SOL     OW35558   6.041   5.754   3.365 -0.0192  0.5273 -0.8058
10889SOL    HW135559   5.978   5.716   3.303 -0.7657 -3.3994  1.9987
10889SOL    HW235560   5.994   5.759   3.448  2.2130  1.3161  0.5081
10890SOL     OW35561   1.253   9.629   7.971 -0.7988  0.3246  0.4708
10890SOL    HW135562   1.314   9.603   7.902 -1.4144  1.0852 -0.3863
10890SOL    HW235563   1.283   9.716   7.998  0.2595 -0.5076  2.1607
10891SOL     OW35564   2.677   3.804   8.414 -0.3457  0.1927 -0.5402
10891SOL    HW135565   2.685   3.829   8.506 -1.9277 -0.0219 -0.3241
10891SOL    HW235566   2.585   3.780   8.403 -0.2077  0.2961 -2.2050
10892SOL     OW35567   3.144   4.842   1.263  0.4449  0.2450 -0.5999
10892SOL    HW135568   3.208   4.771   1.270  0.4346  0.3036  0.1897
10892SOL    HW235569   3.149   4.870   1.172 -0.0454 -1.2231 -1.1040
10893SOL     OW35570   0.956   2.370   6.905  0.2144  0.3393  0.1374
10893SOL    HW135571   0.936   2.351   6.997 -0.9655  1.8326  0.2370
10893SOL    HW235572   0.886   2.327   6.856  0.8880 -0.5253 -0.0933
10894SOL     OW35573   8.260   3.070   7.210 -0.2274 -0.4048 -0.3448
10894SOL    HW135574   8.330   3.074   7.145 -0.6102  0.4004 -0.7238
10894SOL    HW235575   8.209   2.993   7.186 -0.1120 -0.3624 -0.7340
10895SOL     OW35576   8.582   1.871   1.153 -0.3958  0.1057 -0.0137
10895SOL    HW135577   8.584   1.920   1.071  0.9887 -0.4682 -0.3539
10895SOL    HW235578   8.618   1.932   1.218 -1.3403  0.5033  0.1485
10896SOL     OW35579   6.468   8.138   1.841 -0.1657  0.5658 -0.5430
10896SOL    HW135580   6.520   8.099   1.912 -1.3814  0.7150  0.4481
10896SOL    HW235581   6.534   8.177   1.783  0.8777  0.1201  0.2966
10897SOL     OW35582   0.562   1.117   6.806  0.1730  0.0186 -0.0157
10897SOL    HW135583   0.630   1.071   6.756 -2.2746  0.1191 -3.8419
10897SOL    HW235584   0.593   1.208   6.809  2.4951 -0.7295  2.8921
10898SOL     OW35585   1.058   3.311   2.703  0.1027  0.0924  0.4367
10898SOL    HW135586   1.022   3.273   2.622  1.0673 -0.2394  0.1465
10898SOL    HW235587   1.137   3.261   2.719  0.8703  1.3313  0.6164
10899SOL     OW35588   5.500   2.829   2.171 -0.0635 -0.3155  0.0562
10899SOL    HW135589   5.497   2.802   2.079 -1.1476  0.9857 -0.3296
10899SOL    HW235590   5.409   2.821   2.201  0.3257 -0.9635  1.0933
10900SOL     OW35591   8.473   7.826   4.179 -0.3594 -0.9126 -0.2862
10900SOL    HW135592   8.482   7.876   4.260  0.8830 -0.0386 -0.9251
10900SOL    HW235593   8.417   7.753   4.202 -0.3817 -0.4455  1.2527
10901SOL     OW35594   3.511   4.633   3.097 -0.4963 -0.4220  0.2811
10901SOL    HW135595   3.431   4.663   3.141 -0.3392  1.7617 -0.7824
10901SOL    HW235596   3.481   4.567   3.035 -1.2303 -0.8442  1.0699
10902SOL     OW35597   5.721   2.553   6.638  0.4602  0.1430 -0.0674
10902SOL    HW135598   5.667   2.490   6.686  1.3136  0.2128  1.0298
10902SOL    HW235599   5.679   2.637   6.653  0.9459  0.2224  0.9359
10903SOL     OW35600   5.294   8.340   2.825  0.6208 -0.2295 -0.0016
10903SOL    HW135601   5.269   8.344   2.732  0.2664 -0.2103  0.0960
10903SOL    HW235602   5.215   8.312   2.870  0.0216  2.1908  0.5924
10904SOL     OW35603   6.739   3.657   7.627 -0.1741  0.0123  0.1127
10904SOL    HW135604   6.666   3.617   7.580  1.2686 -1.4019 -1.0241
10904SOL    HW235605   6.807   3.668   7.561  0.7436  1.1002  1.1881
10905SOL     OW35606   0.349   3.789   5.947 -0.4030 -0.4750  0.4458
10905SOL    HW135607   0.298   3.858   5.904  1.7362  0.8393 -0.1362
10905SOL    HW235608   0.402   3.751   5.878  1.5059  0.1827  1.4671
10906SOL     OW35609   8.314   1.485   1.534 -0.0298 -0.3492  0.1123
10906SOL    HW135610   8.364   1.426   1.477  0.6988  1.1265 -0.8324
10906SOL    HW235611   8.266   1.542   1.474 -2.1585 -1.0975  1.0059
10907SOL     OW35612   7.757   9.522   8.097  0.1369 -0.3667 -0.1382
10907SOL    HW135613   7.747   9.430   8.071 -1.1879  0.6384 -3.8969
10907SOL    HW235614   7.671   9.547   8.131  0.9700 -0.8247  2.5447
10908SOL     OW35615   0.669   6.477   1.866 -0.5687 -0.1356  0.2227
10908SOL    HW135616   0.691   6.568   1.886 -0.2670  0.1061 -1.0974
10908SOL    HW235617   0.601   6.454   1.928 -0.3074  0.8433  0.8881
10909SOL     OW35618   3.031   9.058   8.741  0.0570 -0.1892 -0.6011
10909SOL    HW135619   2.951   9.016   8.772  0.4284  0.5592  1.5416
10909SOL    HW235620   3.102   9.014   8.788  0.6397  1.1272 -0.1825
10910SOL     OW35621   1.431   3.153   8.842  0.1035  0.2213 -0.1065
10910SOL    HW135622   1.472   3.151   8.928 -0.0162 -0.4362 -0.0551
10910SOL    HW235623   1.501   3.132   8.780  0.0511  0.0256 -0.1024
10911SOL     OW35624   4.519   0.365   9.210  0.1675  0.4025  0.3979
10911SOL    HW135625   4.464   0.347   9.134 -1.4972 -0.3189  1.6856
10911SOL    HW235626   4.536   0.459   9.206 -0.5893  0.5146 -0.4420
10912SOL     OW35627   2.227   2.155   3.496 -0.0882  0.1971 -0.5634
10912SOL    HW135628   2.283   2.091   3.454 -0.4008 -0.4828  0.0302
10912SOL    HW235629   2.166   2.103   3.549  0.5500  1.0043  1.0498
10913SOL     OW35630   6.955   3.758   5.425  0.5258 -0.1506 -0.1945
10913SOL    HW135631   6.885   3.796   5.479  0.2223  0.4190 -0.9595
10913SOL    HW235632   6.959   3.667   5.451  0.8105  0.2468  1.2179
10914SOL     OW35633   6.111   0.944   6.643  0.1083 -0.0210  0.0830
10914SOL    HW135634   6.118   0.964   6.549  0.4760  2.1399  0.5005
10914SOL    HW235635   6.202   0.938   6.672  0.0266  0.6177  0.5070
10915SOL     OW35636   5.886   3.026   7.794  0.1443 -0.4036 -0.3276
10915SOL    HW135637   5.864   3.013   7.702 -0.0483 -0.1303 -0.3218
10915SOL    HW235638   5.807   3.002   7.842 -0.0828  0.3554 -0.2943
10916SOL     OW35639   3.561   3.237   9.441  0.5822 -0.1822  0.2636
10916SOL    HW135640   3.596   3.173   9.379  1.2474  0.8124 -0.4303
10916SOL    HW235641   3.561   3.319   9.392 -1.7185  0.0961  0.5966
10917SOL     OW35642   1.346   2.437   5.349 -0.1217 -0.5360 -0.4098
10917SOL    HW135643   1.374   2.371   5.412 -2.3023 -0.5444  0.6110
10917SOL    HW235644   1.403   2.512   5.366 -1.2535 -0.1994  2.2688
10918SOL     OW35645   1.609   7.109   6.284  0.2273 -1.0222  0.3464
10918SOL    HW135646   1.535   7.154   6.325  0.5914 -1.5151  1.5918
10918SOL    HW235647   1.635   7.043   6.348  0.1494 -2.5536 -1.1462
10919SOL     OW35648   5.480   0.844   7.701  0.1277 -0.2573  0.5508
10919SOL    HW135649   5.516   0.772   7.648  1.3840  0.8214 -0.1503
10919SOL    HW235650   5.534   0.920   7.676  0.1451  0.4979  2.7201
10920SOL     OW35651   3.412   8.887   5.293 -0.2211  0.1429 -0.2618
10920SOL    HW135652   3.406   8.977   5.261 -0.9376  0.3183  0.3439
10920SOL    HW235653   3.506   8.869   5.297 -0.0797  0.7888 -0.5819
10921SOL     OW35654   2.115   7.859   0.319  0.3690  0.2288  0.2111
10921SOL    HW135655   2.145   7.929   0.262  0.2463  0.2064  0.1195
10921SOL    HW235656   2.065   7.904   0.388 -0.7467  0.1344 -0.5133
10922SOL     OW35657   3.727   2.340   6.304 -1.2629 -0.1165  0.4852
10922SOL    HW135658   3.632   2.328   6.300 -1.3625  0.8230 -0.5414
10922SOL    HW235659   3.743   2.376   6.392 -2.1157  1.5078  0.0149
10923SOL     OW35660   8.218   1.164   7.427  0.0854 -0.0223  0.5394
10923SOL    HW135661   8.243   1.255   7.441 -2.6187  0.8554  0.0978
10923SOL    HW235662   8.205   1.156   7.332  0.3158 -0.8885  0.5656
10924SOL     OW35663   5.554   9.177   7.157 -0.3015  0.1620 -0.2098
10924SOL    HW135664   5.468   9.216   7.172 -0.1092  0.4313  0.1991
10924SOL    HW235665   5.550   9.092   7.202 -0.2400  0.3192  0.0941
10925SOL     OW35666   6.631   4.767   5.829  0.4669 -0.0074 -0.3318
10925SOL    HW135667   6.662   4.757   5.919  1.6238  1.5801 -0.5018
10925SOL    HW235668   6.539   4.792   5.838  0.5557  0.0733  0.4174
10926SOL     OW35669   2.064   6.478   4.145 -0.2069  0.3425 -0.6294
10926SOL    HW135670   2.041   6.444   4.232 -1.6496  1.2216 -0.6231
10926SOL    HW235671   2.033   6.410   4.085 -1.9791  1.0105 -0.5568
10927SOL     OW35672   5.491   5.279   6.954  0.2120  0.1410 -0.6551
10927SOL    HW135673   5.413   5.314   6.912 -0.6057  0.5797  1.1417
10927SOL    HW235674   5.475   5.289   7.048  2.1471 -0.3729 -0.2148
10928SOL     OW35675   9.585   8.596   7.633 -0.4575  0.0252  0.6571
10928SOL    HW135676   9.662   8.612   7.687  0.9081 -0.7550 -0.9751
10928SOL    HW235677   9.587   8.666   7.567 -0.1393 -0.9707 -0.4192
10929SOL     OW35678   8.857   5.795   8.544 -0.0066 -0.0269 -0.2155
10929SOL    HW135679   8.798   5.765   8.475 -0.5855 -1.3063  0.7970
10929SOL    HW235680   8.943   5.760   8.519 -0.3231 -0.9822  0.0038
10930SOL     OW35681   6.276   0.895   2.526 -0.9055 -0.1364 -0.0082
10930SOL    HW135682   6.283   0.907   2.621 -1.8898 -1.2935  0.2448
10930SOL    HW235683   6.319   0.811   2.509 -1.6366 -0.4357 -0.4266
10931SOL     OW35684   5.546   9.207   3.460  0.4238  0.1039 -0.5564
10931SOL    HW135685   5.590   9.292   3.466  0.0631  0.2695 -0.1770
10931SOL    HW235686   5.452   9.228   3.467  0.2611 -0.2133 -1.6158
10932SOL     OW35687   7.756   4.177   2.725 -0.2234 -0.2073  0.1035
10932SOL    HW135688   7.815   4.243   2.687 -1.5201  0.9058 -0.0690
10932SOL    HW235689   7.813   4.102   2.744  1.0494  0.4259 -1.0077
10933SOL     OW35690   2.633   4.412   0.040 -0.0052 -0.2153  0.2224
10933SOL    HW135691   2.666   4.323   0.048  2.1730  0.2445 -2.5134
10933SOL    HW235692   2.543   4.401   0.007  0.5674 -1.4173 -1.0342
10934SOL     OW35693   7.774   5.765   4.666 -0.1167  0.3881 -0.4165
10934SOL    HW135694   7.847   5.791   4.722 -1.3837 -0.3897  1.7159
10934SOL    HW235695   7.696   5.780   4.719 -1.3108 -1.8027 -1.4129
10935SOL     OW35696   9.544   9.530   4.460 -0.0709 -0.3760  0.1786
10935SOL    HW135697   9.545   9.558   4.368  0.0829 -1.5300 -0.1885
10935SOL    HW235698   9.623   9.569   4.497 -0.3238  0.3993 -0.0794
10936SOL     OW35699   2.475   2.851   4.709  0.4280 -0.2026  0.2553
10936SOL    HW135700   2.496   2.792   4.636 -0.7294 -0.9391  0.4863
10936SOL    HW235701   2.395   2.895   4.682  0.9380  0.8268  0.3640
10937SOL     OW35702   2.444   3.691   8.306  0.2339 -0.3852 -0.0106
10937SOL    HW135703   2.440   3.732   8.220 -0.8254 -1.2751 -0.4125
10937SOL    HW235704   2.491   3.609   8.291 -1.7638 -1.5471 -0.1985
10938SOL     OW35705   0.961   6.673   4.289 -0.0494  0.3635  0.1859
10938SOL    HW135706   0.969   6.642   4.379  0.5805 -3.1343 -0.9214
10938SOL    HW235707   1.033   6.736   4.279  0.0592  0.5816  2.0077
10939SOL     OW35708   2.157   3.708   7.173  0.6349  0.4758  0.0375
10939SOL    HW135709   2.239   3.742   7.207  1.8920 -0.1565 -2.1968
10939SOL    HW235710   2.148   3.622   7.214  1.4339  0.2576 -0.2460
10940SOL     OW35711   6.856   4.114   3.074  0.8477 -0.2579 -0.5451
10940SOL    HW135712   6.843   4.192   3.128  1.4449 -0.4621 -0.0914
10940SOL    HW235713   6.951   4.102   3.073  0.7078 -1.7418  0.5024
10941SOL     OW35714   0.156   4.044   3.132 -0.0073 -0.5610 -0.0624
10941SOL    HW135715   0.153   4.131   3.171  2.1722 -0.1325 -0.7058
10941SOL    HW235716   0.066   4.026   3.107 -0.8262  0.7076  1.7355
10942SOL     OW35717   1.025   7.730   5.325  0.4404 -0.7242 -0.1552
10942SOL    HW135718   1.104   7.678   5.308 -0.2739 -2.8650  2.3441
10942SOL    HW235719   1.054   7.798   5.385  0.5566 -1.0608  0.1789
10943SOL     OW35720   5.269   1.177   6.217  0.2888  0.1572  0.1755
10943SOL    HW135721   5.319   1.230   6.156  0.1498  0.3818  0.2549
10943SOL    HW235722   5.205   1.237   6.254 -1.7620 -0.6985 -1.8105
10944SOL     OW35723   3.297   8.781   2.331 -0.0319 -0.0823 -0.2926
10944SOL    HW135724   3.327   8.722   2.400 -1.0757  1.3833  1.5020
10944SOL    HW235725   3.377   8.824   2.300  0.4981 -1.0451 -0.3013
10945SOL     OW35726   8.858   2.802   0.440 -0.5312 -0.2876  0.2677
10945SOL    HW135727   8.873   2.709   0.428 -0.5501 -0.4307  1.3287
10945SOL    HW235728   8.900   2.843   0.364  0.1839 -1.0963  0.2206
10946SOL     OW35729   3.354   5.866   3.038 -0.0295 -0.0829 -0.0029
10946SOL    HW135730   3.264   5.894   3.053 -0.4878 -0.3347 -2.0220
10946SOL    HW235731   3.377   5.819   3.118 -2.1294 -1.0772  0.1016
10947SOL     OW35732   4.983   4.156   5.037 -0.0741  0.2036 -0.4023
10947SOL    HW135733   4.896   4.119   5.023 -0.0923  0.3432 -0.6598
10947SOL    HW235734   5.018   4.169   4.949 -0.9252  2.8882 -0.4198
10948SOL     OW35735   1.421   7.771   9.403 -0.7273 -1.1015 -0.0560
10948SOL    HW135736   1.426   7.721   9.485  1.4662  0.4383  0.8421
10948SOL    HW235737   1.374   7.851   9.427 -0.7089 -0.9582 -0.4879
10949SOL     OW35738   0.164   8.273   3.343  0.1775 -0.5553  0.2001
10949SOL    HW135739   0.076   8.310   3.345  0.8800  1.1782  1.7493
10949SOL    HW235740   0.156   8.195   3.288 -2.0700  0.1555 -0.5884
10950SOL     OW35741   4.487   4.134   2.705 -0.3505 -0.2124  0.6457
10950SOL    HW135742   4.555   4.198   2.683  0.3966 -0.7121  1.4105
10950SOL    HW235743   4.503   4.060   2.646  0.0997 -0.5334  1.1555
10951SOL     OW35744   7.204   1.735   7.823  0.3483 -0.7465  0.3669
10951SOL    HW135745   7.236   1.811   7.774 -0.0788 -1.7766 -1.6207
10951SOL    HW235746   7.283   1.687   7.847  0.5492 -2.1198 -2.5869
10952SOL     OW35747   7.575   7.814   6.146  0.0006 -1.2382 -0.1779
10952SOL    HW135748   7.596   7.865   6.224  0.8147 -0.4661 -0.8666
10952SOL    HW235749   7.579   7.723   6.174  1.6254 -1.0269  0.3932
10953SOL     OW35750   8.242   5.685   9.266 -0.0722  0.1061 -0.1806
10953SOL    HW135751   8.171   5.639   9.312  1.3167 -1.6317  0.3041
10953SOL    HW235752   8.196   5.748   9.209 -2.0602 -1.7260 -0.7231
10954SOL     OW35753   7.674   2.644   3.799 -0.2180  0.0873 -0.0364
10954SOL    HW135754   7.690   2.550   3.808 -0.2869  0.1667  1.1678
10954SOL    HW235755   7.676   2.661   3.705 -0.5188 -1.1701 -0.2787
10955SOL     OW35756   6.795   3.352   0.659 -0.0851  0.9114  0.6326
10955SOL    HW135757   6.736   3.416   0.618 -0.1519 -0.4252 -1.5258
10955SOL    HW235758   6.856   3.328   0.589 -0.2694 -1.6061  1.2553
10956SOL     OW35759   4.272   9.545   5.042  0.3667  0.0158 -0.1719
10956SOL    HW135760   4.355   9.574   5.079 -0.4208  1.2605  0.6899
10956SOL    HW235761   4.277   9.571   4.950  1.4927 -1.2296 -0.4896
10957SOL     OW35762   4.622   4.582   5.304 -0.7019 -0.5455  0.2827
10957SOL    HW135763   4.674   4.546   5.376  0.1812 -3.5456 -1.6697
10957SOL    HW235764   4.574   4.655   5.343  1.3423 -0.6576  3.3468
10958SOL     OW35765   6.015   9.380   2.755 -0.0287 -0.6594 -0.0543
10958SOL    HW135766   6.096   9.382   2.806  0.1754 -0.7163 -0.3737
10958SOL    HW235767   5.959   9.446   2.796  0.8739  0.7248 -0.9557
10959SOL     OW35768   6.655   7.992   2.206  0.0720 -0.3473  0.0766
10959SOL    HW135769   6.610   7.940   2.138  0.3951 -0.4902 -0.0313
10959SOL    HW235770   6.747   7.991   2.179  0.0869  0.2429  0.1031
10960SOL     OW35771   3.521   7.415   6.730  0.2244 -0.0460 -0.9882
10960SOL    HW135772   3.441   7.384   6.688  1.8044 -1.2870 -3.3115
10960SOL    HW235773   3.581   7.434   6.658  1.8323  1.5456  0.6277
10961SOL     OW35774   5.153   3.986   8.293 -0.1273  0.4936 -0.9542
10961SOL    HW135775   5.136   4.071   8.251 -0.2660 -0.1552 -2.2776
10961SOL    HW235776   5.216   3.943   8.235 -1.2674 -0.9459 -1.1814
10962SOL     OW35777   2.105   7.774   7.110  0.1959  0.3548  0.3725
10962SOL    HW135778   2.086   7.742   7.022 -0.7725 -2.3769  1.4484
10962SOL    HW235779   2.041   7.729   7.166  1.9874  0.4717  2.6776
10963SOL     OW35780   4.976   0.815   9.030  0.2035  0.4255 -0.0143
10963SOL    HW135781   4.889   0.826   9.068  0.3557 -1.6354  1.0509
10963SOL    HW235782   4.960   0.767   8.948  0.3172  0.0765  0.1643
10964SOL     OW35783   7.041   7.143   5.030 -0.1557 -0.0344 -0.2446
10964SOL    HW135784   6.958   7.157   4.984  0.0858  0.4806 -0.5293
10964SOL    HW235785   7.088   7.079   4.977 -0.9075 -1.3159  0.6061
10965SOL     OW35786   3.042   0.385   4.146  0.0590 -0.2176 -0.2367
10965SOL    HW135787   3.113   0.445   4.170  0.1493  0.7642 -2.7053
10965SOL    HW235788   3.075   0.336   4.071 -2.0015  0.6546 -1.8011
10966SOL     OW35789   2.841   7.448   2.596  0.0510  0.0601  0.1889
10966SOL    HW135790   2.838   7.368   2.543 -2.0892 -0.2605  0.6735
10966SOL    HW235791   2.794   7.513   2.544  0.3613  0.5345  0.4998
10967SOL     OW35792   6.646   8.568   4.580 -0.4937 -0.0812 -0.1615
10967SOL    HW135793   6.623   8.504   4.513 -0.6190 -0.8406  0.5949
10967SOL    HW235794   6.588   8.642   4.563 -1.7961 -0.9831  0.1957
10968SOL     OW35795   9.093   7.536   3.031 -0.2629 -0.4273 -0.2990
10968SOL    HW135796   9.094   7.443   3.006 -0.0310 -0.3814 -0.4657
10968SOL    HW235797   9.180   7.552   3.066  0.0254 -0.0308 -1.1805
10969SOL     OW35798   4.838   5.117   9.179 -0.4079 -0.2968 -0.5963
10969SOL    HW135799   4.913   5.174   9.197  1.6575 -3.0454  0.0661
10969SOL    HW235800   4.769   5.149   9.238  0.0328  2.5161 -1.4700
10970SOL     OW35801   8.025   9.512   5.725 -0.3482  0.1309 -0.6833
10970SOL    HW135802   7.940   9.543   5.694 -1.1743 -1.1509  0.2309
10970SOL    HW235803   8.080   9.591   5.724 -1.9377  1.3217  0.0911
10971SOL     OW35804   4.487   3.822   3.159  0.2107  0.1359  0.0686
10971SOL    HW135805   4.580   3.842   3.154 -0.1838  2.1776  0.2364
10971SOL    HW235806   4.484   3.727   3.175  2.2023 -0.2152 -1.2474
10972SOL     OW35807   5.920   3.381   4.140 -0.2445  0.2552 -0.0755
10972SOL    HW135808   5.827   3.385   4.119 -0.5869 -1.1583  1.0040
10972SOL    HW235809   5.926   3.414   4.230  0.6429  2.4836 -0.8888
10973SOL     OW35810   9.303   1.802   2.270  0.0859  0.2300 -0.0646
10973SOL    HW135811   9.232   1.759   2.222 -0.4612  2.6829 -1.6334
10973SOL    HW235812   9.264   1.825   2.355  0.3449 -2.0630  0.7464
10974SOL     OW35813   5.356   6.044   1.095  0.2055 -0.7431  0.2852
10974SOL    HW135814   5.311   6.020   1.175  0.4143  1.0180  0.9833
10974SOL    HW235815   5.441   6.001   1.101 -0.6741 -2.6365 -0.2057
10975SOL     OW35816   3.905   4.632   7.116  0.2527  0.3575  0.2560
10975SOL    HW135817   3.956   4.688   7.175  1.5823  0.1353 -0.6403
10975SOL    HW235818   3.865   4.567   7.174 -0.1013  1.3315  1.1337
10976SOL     OW35819   7.602   6.179   0.016  0.0325 -0.4430 -0.2966
10976SOL    HW135820   7.621   6.205  -0.074  2.0594 -0.8063 -0.0259
10976SOL    HW235821   7.630   6.087   0.020 -1.7460 -1.0097  0.2559
10977SOL     OW35822   1.191   7.539   2.464  0.1573  0.0832  0.2034
10977SOL    HW135823   1.116   7.595   2.485 -1.6633 -1.5526 -1.4503
10977SOL    HW235824   1.159   7.482   2.393  3.3607  0.1077 -1.4635
10978SOL     OW35825   8.411   1.124   8.877  0.3210  0.5807  0.0124
10978SOL    HW135826   8.484   1.149   8.933  1.4304 -0.6615 -0.8086
10978SOL    HW235827   8.440   1.042   8.836 -1.8065 -0.2869  0.1586
10979SOL     OW35828   0.027   3.962   7.993 -0.1042  0.2484  0.8435
10979SOL    HW135829   0.016   3.871   8.019  1.3252 -0.7860 -1.8121
10979SOL    HW235830   0.121   3.978   8.000 -0.2568  1.3095  0.6079
10980SOL     OW35831   8.025   1.504   7.462  0.2875  0.5118 -0.0327
10980SOL    HW135832   7.971   1.470   7.534  0.0822  0.9654  0.0300
10980SOL    HW235833   8.114   1.479   7.485  0.0064 -1.2439 -0.6997
10981SOL     OW35834   9.147   3.407   0.762 -0.2951 -0.2212 -0.1850
10981SOL    HW135835   9.091   3.330   0.774 -0.2477 -0.3522 -0.7911
10981SOL    HW235836   9.151   3.420   0.668  1.9888 -1.1823 -0.2982
10982SOL     OW35837   6.646   8.603   3.781  0.1470 -0.1684 -0.7922
10982SOL    HW135838   6.572   8.658   3.754 -1.3206 -1.1963  0.8637
10982SOL    HW235839   6.644   8.529   3.719 -1.0509 -0.8147 -0.0293
10983SOL     OW35840   5.159   1.107   3.585 -0.2401 -0.1047 -0.2715
10983SOL    HW135841   5.097   1.119   3.513 -0.7020  0.9651  0.2734
10983SOL    HW235842   5.243   1.093   3.543 -0.4272  0.9147 -1.0266
10984SOL     OW35843   0.323   0.755   2.097 -0.1301  0.0479  0.3264
10984SOL    HW135844   0.309   0.712   2.013 -2.0840  2.7629 -0.8963
10984SOL    HW235845   0.284   0.695   2.162 -0.2605 -1.2503 -0.9061
10985SOL     OW35846   9.212   3.051   0.850 -0.3615 -0.2285  0.3056
10985SOL    HW135847   9.199   3.002   0.931  1.9108 -0.0448  0.8477
10985SOL    HW235848   9.151   3.125   0.857 -2.0377 -1.5692  0.6171
10986SOL     OW35849   2.097   9.172   8.322 -0.3481  0.3443  0.3331
10986SOL    HW135850   2.034   9.115   8.367 -1.4214  1.7915  0.7505
10986SOL    HW235851   2.178   9.121   8.320 -0.6534 -0.3450  2.6303
10987SOL     OW35852   4.441   1.611   3.912 -0.1094  0.1395 -0.0059
10987SOL    HW135853   4.494   1.645   3.984  2.1660  0.2245 -1.6139
10987SOL    HW235854   4.389   1.541   3.951  1.3389 -0.0613  1.6684
10988SOL     OW35855   7.271   3.227   0.359  0.0553 -0.0415  0.3045
10988SOL    HW135856   7.234   3.139   0.356 -1.1771  0.4471  0.5702
10988SOL    HW235857   7.332   3.225   0.433  0.1803 -0.7218  0.1894
10989SOL     OW35858   2.804   7.039   6.664 -0.2790 -0.2195  0.2060
10989SOL    HW135859   2.742   7.034   6.591 -0.6075  0.8898  0.3993
10989SOL    HW235860   2.870   7.101   6.635 -1.1774  1.3523  1.3923
10990SOL     OW35861   7.546   8.306   3.620 -0.1641  0.0304  0.0267
10990SOL    HW135862   7.463   8.353   3.627  0.2621  0.8585 -0.4226
10990SOL    HW235863   7.526   8.232   3.562  0.0548  1.8143 -2.4723
10991SOL     OW35864   4.766   0.523   9.405 -0.3574  0.1361  0.3543
10991SOL    HW135865   4.711   0.466   9.458 -0.2012 -0.0370  0.3314
10991SOL    HW235866   4.741   0.612   9.431  1.6489  0.0902  2.7715
10992SOL     OW35867   6.404   7.794   5.185 -0.3453  0.1017 -0.2185
10992SOL    HW135868   6.353   7.733   5.132 -0.7924  1.2487 -1.1439
10992SOL    HW235869   6.342   7.828   5.249  0.4986 -2.3121  2.0650
10993SOL     OW35870   9.070   2.498   2.783 -0.1048 -0.3864  0.2716
10993SOL    HW135871   9.077   2.486   2.878 -2.4956 -0.5490  0.4904
10993SOL    HW235872   9.030   2.416   2.752  0.5819 -0.2991 -0.8723
10994SOL     OW35873   8.512   1.918   9.560  0.4523  0.5996 -0.0752
10994SOL    HW135874   8.599   1.889   9.534  0.5184 -0.3799  1.0858
10994SOL    HW235875   8.485   1.979   9.493  1.1540 -0.7173 -1.6199
10995SOL     OW35876   2.553   4.882   1.845  0.2907 -0.9566  0.0256
10995SOL    HW135877   2.499   4.921   1.776 -0.0088 -2.8486 -0.8672
10995SOL    HW235878   2.589   4.957   1.892  0.2015  0.4016 -1.9519
10996SOL     OW35879   6.385   1.182   9.071  0.1957 -0.1900  0.0855
10996SOL    HW135880   6.459   1.238   9.093  0.1647  0.0523 -0.4130
10996SOL    HW235881   6.310   1.241   9.069  0.0613 -0.3577  0.1740
10997SOL     OW35882   2.506   4.763   7.779  0.3811  0.3067  0.0045
10997SOL    HW135883   2.525   4.676   7.814  1.6131 -0.2059 -1.8156
10997SOL    HW235884   2.518   4.754   7.684  0.7836  2.5012 -0.2024
10998SOL     OW35885   2.137   8.111   8.993 -0.0354  0.1351  0.2327
10998SOL    HW135886   2.105   8.143   9.077  0.9967  1.8745  0.0094
10998SOL    HW235887   2.211   8.168   8.972  0.4865 -1.0342 -1.2853
10999SOL     OW35888   6.129   5.441   4.383  0.1166 -0.1718  0.3710
10999SOL    HW135889   6.117   5.357   4.426 -1.1684 -0.8604 -1.2531
10999SOL    HW235890   6.109   5.425   4.291  3.0003  1.1845 -0.6043
11000SOL     OW35891   6.039   2.394   2.452  0.0758 -0.5254  0.5231
11000SOL    HW135892   6.009   2.454   2.521  0.9367 -1.6123  1.8874
11000SOL    HW235893   5.958   2.354   2.419 -0.3224 -0.2512  1.1381
11001SOL     OW35894   8.561   4.124   1.872 -0.0783  0.4585  0.0843
11001SOL    HW135895   8.579   4.155   1.783 -1.1665  1.9750  0.3415
11001SOL    HW235896   8.641   4.142   1.921  0.0615  0.8539 -0.2874
11002SOL     OW35897   4.319   4.440   0.382  0.5081  0.1167 -0.2061
11002SOL    HW135898   4.400   4.469   0.423 -0.5434 -0.0988  2.1830
11002SOL    HW235899   4.313   4.347   0.403 -0.7889  0.3277  0.4613
11003SOL     OW35900   6.215   0.433   0.410 -0.1734  0.5666 -0.0934
11003SOL    HW135901   6.184   0.367   0.348  1.1778 -2.0471  1.8130
11003SOL    HW235902   6.183   0.404   0.495  0.2674  2.5601  0.8245
11004SOL     OW35903   3.683   2.292   1.355 -0.5890 -0.4571 -0.3030
11004SOL    HW135904   3.635   2.347   1.293  0.5099 -0.6158 -1.3436
11004SOL    HW235905   3.768   2.334   1.363  0.3771 -2.0987 -1.3208
11005SOL     OW35906   4.817   9.534   4.451 -0.0963 -0.4039 -0.1464
11005SOL    HW135907   4.880   9.605   4.453 -0.0000 -0.5024  0.4811
11005SOL    HW235908   4.865   9.458   4.483 -0.3241 -0.6518 -0.3873
11006SOL     OW35909   1.886   7.795   8.142 -0.0261 -0.2411  0.6224
11006SOL    HW135910   1.885   7.722   8.080  1.6703 -1.4462  1.9301
11006SOL    HW235911   1.816   7.853   8.111 -0.4416 -1.6673 -1.3295
11007SOL     OW35912   6.862   1.101   6.809  0.3587 -0.6387  0.1752
11007SOL    HW135913   6.878   1.195   6.809  2.4739 -0.9513  0.4007
11007SOL    HW235914   6.778   1.091   6.854  1.1397  0.9933  2.1395
11008SOL     OW35915   1.376   8.415   1.933  0.0518  0.4675  0.5052
11008SOL    HW135916   1.370   8.320   1.941  0.4055  0.4766  0.9453
11008SOL    HW235917   1.470   8.434   1.944 -0.1842  0.9783  1.7800
11009SOL     OW35918   3.435   3.077   1.159 -0.3131 -0.9131 -0.4861
11009SOL    HW135919   3.349   3.035   1.165 -0.3646 -0.5887  2.9790
11009SOL    HW235920   3.497   3.004   1.154 -0.7003 -1.1863 -1.4518
11010SOL     OW35921   3.239   3.221   7.731 -0.1783 -0.6152 -0.0336
11010SOL    HW135922   3.169   3.268   7.776 -0.8353 -0.0360 -1.5804
11010SOL    HW235923   3.197   3.180   7.656  1.1960  0.2169 -1.3315
11011SOL     OW35924   6.326   5.766   3.342 -0.2723 -0.4352 -0.2264
11011SOL    HW135925   6.330   5.824   3.418  1.6055  0.1687 -0.7441
11011SOL    HW235926   6.239   5.724   3.349 -0.8791  0.9482  1.2207
11012SOL     OW35927   8.341   0.502   4.247  0.1442  0.4442 -0.3463
11012SOL    HW135928   8.257   0.506   4.203 -1.5304 -2.8479  2.1293
11012SOL    HW235929   8.394   0.442   4.194  0.4669  1.4425 -1.1721
11013SOL     OW35930   0.971   5.342   0.040 -0.0506  1.1570 -0.5621
11013SOL    HW135931   1.025   5.421   0.042  1.5510  0.1600 -1.9033
11013SOL    HW235932   0.963   5.321  -0.053 -0.0277 -0.5363 -0.2130
11014SOL     OW35933   3.930   3.011   4.383 -0.1145 -0.0861 -0.4965
11014SOL    HW135934   3.923   3.045   4.294 -2.0052  1.6635  0.2455
11014SOL    HW235935   3.983   3.076   4.430  0.4408 -0.7403 -0.1939
11015SOL     OW35936   5.968   4.444   1.323  0.1301 -0.1237 -0.5912
11015SOL    HW135937   5.881   4.431   1.286 -0.5536 -0.8967  1.1471
11015SOL    HW235938   6.008   4.513   1.270 -1.8977  0.9106 -0.8477
11016SOL     OW35939   8.906   4.289   4.294  0.6084  0.7946  0.1977
11016SOL    HW135940   8.868   4.215   4.340 -0.0463  0.2542 -1.1805
11016SOL    HW235941   8.967   4.328   4.358  0.0776 -0.1931  1.3394
11017SOL     OW35942   3.442   3.694   9.013  0.0816 -0.0075 -0.3567
11017SOL    HW135943   3.507   3.628   9.039 -0.2217  0.3780  1.5249
11017SOL    HW235944   3.490   3.777   9.012 -0.5482  0.4755  2.2463
11018SOL     OW35945   3.014   0.959   4.779 -0.0222  0.2365 -0.2647
11018SOL    HW135946   2.994   0.942   4.871 -0.1742  1.1622 -0.1177
11018SOL    HW235947   3.085   0.897   4.759 -0.9759 -0.9949  0.0415
11019SOL     OW35948   1.717   3.203   2.780  0.3348  0.3110 -0.1937
11019SOL    HW135949   1.636   3.237   2.818  1.1400  1.9210  0.1789
11019SOL    HW235950   1.694   3.183   2.689 -0.6191  0.2006  0.0624
11020SOL     OW35951   2.267   5.844   1.236  0.5681 -0.1808  0.0157
11020SOL    HW135952   2.235   5.876   1.321  0.0177 -0.8447  0.0627
11020SOL    HW235953   2.283   5.751   1.251  2.2081  0.0533 -0.1031
11021SOL     OW35954   7.676   2.410   5.935 -0.0242 -0.3101 -0.5169
11021SOL    HW135955   7.667   2.331   5.988  0.6466  0.1091  0.2427
11021SOL    HW235956   7.771   2.421   5.924  0.0029  1.3769  0.9476
11022SOL     OW35957   7.857   0.066   2.401 -0.0999 -0.3670  0.5016
11022SOL    HW135958   7.892  -0.016   2.437 -2.1365 -0.3212  2.8297
11022SOL    HW235959   7.925   0.095   2.340  1.6975 -2.6398  1.2381
11023SOL     OW35960   7.448   8.467   7.093 -0.3015 -0.0719 -0.8028
11023SOL    HW135961   7.528   8.492   7.046 -0.4041 -0.0974 -0.9905
11023SOL    HW235962   7.477   8.399   7.154  0.1004  0.9238  0.1495
11024SOL     OW35963   7.973   4.711   5.358 -0.1617 -0.6553  0.1552
11024SOL    HW135964   7.942   4.630   5.318  1.2990 -1.6330  0.8828
11024SOL    HW235965   8.055   4.686   5.400  0.9217  1.4622 -0.5601
11025SOL     OW35966   8.818   4.799   2.520  0.0305 -0.8595  0.3090
11025SOL    HW135967   8.828   4.894   2.533 -0.7614 -0.4361 -1.7932
11025SOL    HW235968   8.750   4.774   2.583 -0.9276  0.3118 -0.2087
11026SOL     OW35969   9.272   7.314   3.952  0.4604 -0.2083 -0.6480
11026SOL    HW135970   9.283   7.401   3.989 -0.3225 -1.0432  1.7810
11026SOL    HW235971   9.353   7.268   3.976  0.2657 -0.5487 -0.6455
11027SOL     OW35972   4.294   3.113   1.726 -0.1913 -0.3081 -0.2062
11027SOL    HW135973   4.212   3.065   1.739 -1.4922  1.8241 -0.0384
11027SOL    HW235974   4.324   3.134   1.814 -0.7795  0.9546 -0.2821
11028SOL     OW35975   8.973   3.205   0.759  0.2856 -0.2623 -0.5909
11028SOL    HW135976   8.915   3.153   0.814 -0.7332 -1.8567 -2.9894
11028SOL    HW235977   8.922   3.283   0.737  0.1315 -0.3130 -0.4094
11029SOL     OW35978   6.120   2.250   7.809 -0.2623 -0.1528  0.0933
11029SOL    HW135979   6.117   2.174   7.751 -1.1518  1.9360 -2.8706
11029SOL    HW235980   6.033   2.255   7.847 -0.6821  0.1558 -0.8718
11030SOL     OW35981   6.389   2.720   0.991 -0.5922  0.6433 -0.6061
11030SOL    HW135982   6.312   2.675   0.957 -0.2558  0.0447 -0.5867
11030SOL    HW235983   6.365   2.742   1.081 -1.0662  1.2509 -0.8683
11031SOL     OW35984   1.758   5.849   5.871 -0.2879  0.3223 -0.3031
11031SOL    HW135985   1.691   5.886   5.813 -0.5284  1.4535  0.6689
11031SOL    HW235986   1.818   5.922   5.888  2.0952 -1.0079 -2.3254
11032SOL     OW35987   5.096   5.120   0.042 -0.1964 -0.5375 -0.7320
11032SOL    HW135988   5.119   5.213   0.048  0.4431 -0.7133 -0.3791
11032SOL    HW235989   5.047   5.113  -0.039 -1.6716  0.3992  0.0327
11033SOL     OW35990   2.397   6.175   1.284  0.0538 -0.6321 -0.0323
11033SOL    HW135991   2.480   6.220   1.268 -0.6880  0.9515  0.3703
11033SOL    HW235992   2.413   6.123   1.363  0.6826 -0.3939 -0.0003
11034SOL     OW35993   7.572   8.763   5.545 -0.0066  0.3101 -0.3223
11034SOL    HW135994   7.618   8.680   5.532  0.6463  0.5465  0.4057
11034SOL    HW235995   7.501   8.761   5.481  1.0314 -0.0491 -1.5032
11035SOL     OW35996   5.569   4.046   9.568  0.1280 -0.0019 -0.0100
11035SOL    HW135997   5.536   4.115   9.511 -0.6381 -0.5581 -0.2556
11035SOL    HW235998   5.499   4.032   9.631  1.1205  0.8900  1.3626
11036SOL     OW35999   1.256   5.501   3.109  0.1780 -0.0369  0.4937
11036SOL    HW136000   1.188   5.517   3.174 -0.6947  1.4649 -0.7065
11036SOL    HW236001   1.312   5.434   3.148 -0.7815  0.2158  2.4072
11037SOL     OW36002   6.693   0.008   8.373  0.3791  0.0206  0.3011
11037SOL    HW136003   6.783   0.013   8.405  0.3880  1.4246  0.1026
11037SOL    HW236004   6.671   0.097   8.346 -0.8878 -0.4024 -0.1783
11038SOL     OW36005   6.311   5.758   4.413  0.3741  0.5602 -0.0383
11038SOL    HW136006   6.219   5.783   4.405  0.4575  0.4729 -1.6996
11038SOL    HW236007   6.320   5.726   4.502 -1.0263  1.2809  0.3846
11039SOL     OW36008   2.308   8.012   0.958 -0.5944  0.3390  0.1316
11039SOL    HW136009   2.245   8.071   0.917 -1.8752  0.2272  1.8692
11039SOL    HW236010   2.373   8.070   0.998 -1.2380  0.5569  0.8778
11040SOL     OW36011   2.973   3.878   7.144 -0.1081 -0.1272  0.4324
11040SOL    HW136012   3.038   3.808   7.148  0.1470 -0.2862 -3.3512
11040SOL    HW236013   2.928   3.864   7.061 -0.6046  3.7372 -0.1264
11041SOL     OW36014   5.696   0.904   0.303 -0.5772  0.2530 -0.1630
11041SOL    HW136015   5.643   0.978   0.332 -0.2553  0.3222  0.2571
11041SOL    HW236016   5.643   0.862   0.236 -1.8016 -0.4997  1.2115
11042SOL     OW36017   9.587   0.386   1.254 -0.3380 -0.2206 -0.0942
11042SOL    HW136018   9.653   0.444   1.216  0.3906 -0.2419  1.0838
11042SOL    HW236019   9.536   0.443   1.312  1.2149 -0.9263  2.1073
11043SOL     OW36020   1.143   2.764   7.426 -0.3070  0.6244 -0.0928
11043SOL    HW136021   1.085   2.695   7.393  0.2361  0.0970  0.0477
11043SOL    HW236022   1.131   2.836   7.364  2.0152 -0.9588 -2.6043
11044SOL     OW36023   3.557   4.922   1.442 -0.2258  0.0680 -0.1204
11044SOL    HW136024   3.598   4.871   1.512 -0.5998  0.2682  0.2468
11044SOL    HW236025   3.593   4.885   1.362 -0.1360 -0.4650  0.1580
11045SOL     OW36026   5.232   2.391   7.816 -0.1534 -0.5780  0.2471
11045SOL    HW136027   5.274   2.463   7.863 -1.7395 -0.0194  0.8947
11045SOL    HW236028   5.225   2.422   7.726 -1.1099  0.2626  0.5836
11046SOL     OW36029   5.508   3.993   3.586  0.2854 -0.4334  0.2924
11046SOL    HW136030   5.508   3.899   3.605  0.3938 -0.4559  0.1807
11046SOL    HW236031   5.596   4.022   3.610  0.0827 -0.2588  0.8290
11047SOL     OW36032   0.290   7.745   0.882 -0.1668  0.0870  0.4562
11047SOL    HW136033   0.365   7.764   0.825  0.5385  0.4055  1.4511
11047SOL    HW236034   0.283   7.649   0.882 -0.2845  0.0898 -0.2835
11048SOL     OW36035   6.991   6.466   1.199  0.2247  0.2731 -0.1691
11048SOL    HW136036   6.945   6.477   1.282  1.7804  1.3931  0.5900
11048SOL    HW236037   7.049   6.542   1.192  1.1384 -0.4898 -1.6174
11049SOL     OW36038   4.173   2.666   0.536  0.1526  0.1899  0.7074
11049SOL    HW136039   4.218   2.587   0.566  1.2097  0.2666 -0.5445
11049SOL    HW236040   4.238   2.735   0.545  0.3428  0.3162 -1.1075
11050SOL     OW36041   7.632   1.637   8.503 -0.4634  0.5716  0.2333
11050SOL    HW136042   7.707   1.634   8.563 -0.3076  2.3773  0.1819
11050SOL    HW236043   7.668   1.607   8.419  0.1779  1.3055  0.2372
11051SOL     OW36044   0.166   8.440   7.501 -0.0005 -0.2738 -0.0113
11051SOL    HW136045   0.262   8.444   7.509 -0.1406  0.3426  1.6037
11051SOL    HW236046   0.136   8.527   7.527 -0.9883 -0.2711 -1.0830
11052SOL     OW36047   0.075   2.918   1.648 -0.2204  0.3377 -0.8241
11052SOL    HW136048   0.069   3.002   1.604 -0.4299  0.3687 -0.7357
11052SOL    HW236049   0.115   2.860   1.584 -0.1171  0.4933 -0.9009
11053SOL     OW36050   7.651   1.658   6.651  0.5167 -0.9374 -0.3786
11053SOL    HW136051   7.566   1.621   6.628 -0.2929 -0.2660  1.3604
11053SOL    HW236052   7.714   1.588   6.630 -0.5587 -1.8411 -0.7068
11054SOL     OW36053   9.599   5.699   5.598 -0.5364  0.2369  0.5144
11054SOL    HW136054   9.573   5.607   5.590  2.1799 -0.9388  3.3068
11054SOL    HW236055   9.517   5.744   5.617 -1.6845 -1.9352  1.1346
11055SOL     OW36056   3.706   1.497   4.468  0.8266  0.1513  0.3615
11055SOL    HW136057   3.613   1.473   4.467  0.5783  1.0695  0.4670
11055SOL    HW236058   3.707   1.590   4.447  1.8133 -0.0796 -0.7153
11056SOL     OW36059   0.312   0.850   7.661 -0.0338 -0.8243 -0.0470
11056SOL    HW136060   0.273   0.911   7.723 -0.4566 -0.7720 -0.3556
11056SOL    HW236061   0.274   0.875   7.576  0.0895 -1.2600 -0.2352
11057SOL     OW36062   6.087   7.113   0.061  0.0603 -0.2144  0.2098
11057SOL    HW136063   6.145   7.043   0.033 -0.3493 -0.0746 -1.0580
11057SOL    HW236064   6.146   7.180   0.097  0.5553 -0.6804  0.2734
11058SOL     OW36065   3.657   2.181   0.020  0.0577 -0.3809  0.6477
11058SOL    HW136066   3.625   2.109   0.074 -0.1680  0.7972  2.1581
11058SOL    HW236067   3.607   2.257   0.049  1.5293  0.7403  0.3606
11059SOL     OW36068   2.023   4.630   4.033 -0.4473  0.0680 -0.1015
11059SOL    HW136069   2.087   4.646   4.103  0.8414 -1.8049 -0.7737
11059SOL    HW236070   1.985   4.716   4.016  2.1451  1.3616  0.0793
11060SOL     OW36071   5.074   5.564   3.771 -0.8084 -0.5513  0.0731
11060SOL    HW136072   5.086   5.476   3.806  0.8862 -0.2162  0.4185
11060SOL    HW236073   5.023   5.609   3.839 -0.0902 -0.7531  0.7661
11061SOL     OW36074   7.041   8.844   0.853 -0.0968 -0.3009 -0.7009
11061SOL    HW136075   7.060   8.755   0.821  0.8409 -0.2752 -0.2597
11061SOL    HW236076   6.961   8.869   0.808  0.4315 -0.8020 -1.9889
11062SOL     OW36077   6.114   1.994   6.581 -0.2716  0.4382  0.3501
11062SOL    HW136078   6.172   2.021   6.511  0.9255 -1.4036  0.5656
11062SOL    HW236079   6.169   1.992   6.659 -1.3873  1.6579  1.2080
11063SOL     OW36080   8.232   7.967   0.595  0.8207  0.2890  0.0380
11063SOL    HW136081   8.238   8.020   0.515 -2.1707  0.2540 -0.2954
11063SOL    HW236082   8.224   7.877   0.563 -1.8921  0.4008  0.2318
11064SOL     OW36083   8.121   2.094   2.686 -0.2295 -0.1064  0.4234
11064SOL    HW136084   8.173   2.018   2.659 -1.1026 -0.9161  0.9780
11064SOL    HW236085   8.178   2.141   2.747  0.6003  0.0990 -0.4943
11065SOL     OW36086   5.120   0.270   5.929  0.6433  0.0170  0.2189
11065SOL    HW136087   5.092   0.248   5.840 -0.7359  1.2452  0.3100
11065SOL    HW236088   5.181   0.343   5.918  0.4972  0.1481  0.2694
11066SOL     OW36089   0.403   8.357   8.820 -0.2990 -0.0038  0.0551
11066SOL    HW136090   0.311   8.347   8.793 -0.2771 -0.3753  0.1085
11066SOL    HW236091   0.443   8.273   8.798 -0.3200 -0.3931  1.4062
11067SOL     OW36092   2.158   3.308   9.229  0.6651  0.4906 -0.0477
11067SOL    HW136093   2.240   3.318   9.180  0.3233  1.0625 -0.5157
11067SOL    HW236094   2.112   3.391   9.216 -0.4271 -0.1700 -0.6057
11068SOL     OW36095   1.521   3.957   0.004 -1.0131 -1.2169  0.2013
11068SOL    HW136096   1.546   3.950   0.096 -1.5618 -0.9189  0.3790
11068SOL    HW236097   1.597   3.994  -0.040 -1.0395 -0.6048  0.6733
11069SOL     OW36098   1.227   4.811   0.311  0.4223 -0.0770 -0.3684
11069SOL    HW136099   1.183   4.852   0.237 -0.4728  1.0926  0.7809
11069SOL    HW236100   1.297   4.871   0.334 -0.0309  0.1479  0.4567
11070SOL     OW36101   7.308   2.082   8.052 -0.2264 -0.4053  0.0154
11070SOL    HW136102   7.222   2.064   8.015 -1.8151  1.9500  2.1970
11070SOL    HW236103   7.328   2.006   8.107  0.6625 -2.4047 -2.8582
11071SOL     OW36104   8.402   8.577   6.531  0.5062 -0.2712 -1.0286
11071SOL    HW136105   8.462   8.554   6.601 -0.6509 -1.0637 -0.2746
11071SOL    HW236106   8.382   8.670   6.546  0.5091 -0.3551 -0.5018
11072SOL     OW36107   5.127   3.127   8.651  0.1903 -0.4673 -0.1360
11072SOL    HW136108   5.105   3.219   8.637  2.5448  0.3615  1.1363
11072SOL    HW236109   5.097   3.110   8.741  0.5454 -0.6732 -0.0563
11073SOL     OW36110   0.011   1.343   4.640 -0.0519 -0.0575 -0.1871
11073SOL    HW136111   0.000   1.436   4.616 -1.1759 -0.5329 -1.6873
11073SOL    HW236112   0.106   1.330   4.639  0.1136  1.0193 -0.2204
11074SOL     OW36113   8.046   1.551   5.436 -0.3073 -0.4955 -0.0284
11074SOL    HW136114   8.052   1.480   5.373  0.3440  0.5670 -1.2147
11074SOL    HW236115   7.980   1.610   5.401 -0.3819 -0.1919  0.6016
11075SOL     OW36116   0.630   0.567   8.875 -0.3272 -0.3297 -0.6777
11075SOL    HW136117   0.583   0.578   8.958  1.4086  0.8223  0.2282
11075SOL    HW236118   0.608   0.645   8.824 -0.1625 -0.2583 -0.6408
11076SOL     OW36119   3.102   6.726   8.564  0.0020 -0.3890  0.0967
11076SOL    HW136120   3.060   6.642   8.544  0.1944 -0.4449 -0.0721
11076SOL    HW236121   3.136   6.756   8.480 -0.4947  0.0981  0.0650
11077SOL     OW36122   2.157   8.094   0.608  0.1840 -0.3011 -0.0817
11077SOL    HW136123   2.119   8.166   0.658  0.7220 -1.0843  1.5513
11077SOL    HW236124   2.082   8.046   0.574 -0.2111 -0.0124  0.3707
11078SOL     OW36125   2.467   8.983   5.069  0.1322  0.0617  0.0917
11078SOL    HW136126   2.399   8.928   5.030 -0.7204  1.2957 -0.2446
11078SOL    HW236127   2.465   8.962   5.162 -1.8909  1.2144  0.3727
11079SOL     OW36128   9.065   7.900   6.081  0.6487 -0.1943 -0.5209
11079SOL    HW136129   9.059   7.879   5.988 -0.7249  0.3280 -0.5729
11079SOL    HW236130   9.027   7.988   6.088 -1.2785 -1.0906  0.8308
11080SOL     OW36131   5.009   4.787   9.053  0.5542 -0.4653  0.9068
11080SOL    HW136132   4.925   4.814   9.089 -0.3023 -1.7197 -0.0828
11080SOL    HW236133   5.023   4.698   9.086  1.7073 -0.1227  1.3995
11081SOL     OW36134   0.604   2.343   8.544 -0.1941  0.1430 -0.2215
11081SOL    HW136135   0.599   2.322   8.450  1.2130  1.4767 -0.6400
11081SOL    HW236136   0.513   2.358   8.570 -0.6001 -0.2015 -1.3847
11082SOL     OW36137   6.794   6.871   2.515 -0.3182 -0.3234 -0.4520
11082SOL    HW136138   6.814   6.783   2.484 -0.7350 -0.8730  0.7622
11082SOL    HW236139   6.849   6.929   2.462  1.2602 -1.4339 -0.0857
11083SOL     OW36140   3.565   7.508   6.482 -0.3019  0.2431  0.1482
11083SOL    HW136141   3.483   7.551   6.509 -1.0051 -0.7437 -0.3508
11083SOL    HW236142   3.625   7.580   6.464 -0.8648  0.9808  1.1154
11084SOL     OW36143   6.912   6.852   3.752 -0.3455 -0.0846 -0.0142
11084SOL    HW136144   6.831   6.824   3.794 -0.6075  0.5258 -0.0981
11084SOL    HW236145   6.899   6.832   3.659 -0.9164  1.1505 -0.2187
11085SOL     OW36146   3.692   3.234   5.944  0.2000  0.9611 -0.5143
11085SOL    HW136147   3.772   3.227   5.892 -0.0056  0.5829 -0.7841
11085SOL    HW236148   3.702   3.171   6.015 -0.3647  0.0278 -1.2346
11086SOL     OW36149   8.551   3.102   5.517 -0.2158  0.1978 -0.0759
11086SOL    HW136150   8.461   3.069   5.508  0.2590 -1.0183 -0.6923
11086SOL    HW236151   8.606   3.025   5.502  0.9287  0.6524  1.5202
11087SOL     OW36152   6.819   9.279   6.130  0.6574 -0.2520 -0.0966
11087SOL    HW136153   6.904   9.269   6.172  0.7502 -0.3056 -0.2977
11087SOL    HW236154   6.776   9.349   6.179  0.9140 -0.0536 -0.1532
11088SOL     OW36155   3.710   2.997   6.096 -0.5394 -0.1641  0.0035
11088SOL    HW136156   3.781   2.957   6.046 -0.3359 -0.1898  0.3166
11088SOL    HW236157   3.669   2.924   6.143  0.2415  0.0819  1.0866
11089SOL     OW36158   8.971   3.477   0.232 -0.4256  0.0866  0.5883
11089SOL    HW136159   8.910   3.541   0.269 -0.4759 -0.0204  0.6870
11089SOL    HW236160   9.002   3.518   0.151  1.6168  1.4679  1.9678
11090SOL     OW36161   8.306   3.965   3.941  0.3226 -0.3601 -0.3409
11090SOL    HW136162   8.319   4.003   3.854  1.9172 -0.3945 -0.1432
11090SOL    HW236163   8.255   4.031   3.988  2.0861  1.0951 -0.3597
11091SOL     OW36164   9.251   3.453   7.976  0.7098 -0.6825 -0.3132
11091SOL    HW136165   9.328   3.413   8.014 -1.3881 -2.2398  2.7062
11091SOL    HW236166   9.258   3.546   7.998  1.2814 -0.9756  0.7778
11092SOL     OW36167   8.839   7.519   5.953  0.3715  0.2571 -0.3509
11092SOL    HW136168   8.834   7.429   5.986  0.8499 -0.3265 -1.7838
11092SOL    HW236169   8.931   7.544   5.968  0.7155 -0.1882 -1.6279
11093SOL     OW36170   1.446   5.493   2.607 -0.3779 -0.8178  0.0402
11093SOL    HW136171   1.436   5.545   2.528  2.4317 -0.5697 -0.2695
11093SOL    HW236172   1.460   5.557   2.676 -1.2254 -1.0702  0.4529
11094SOL     OW36173   4.383   7.254   8.838 -0.0094 -0.1604  0.3238
11094SOL    HW136174   4.413   7.314   8.906  3.2614  0.0006 -1.0750
11094SOL    HW236175   4.423   7.170   8.860 -1.1239 -0.8151 -0.0026
11095SOL     OW36176   9.125   8.010   4.175 -0.1500 -0.0804 -0.1468
11095SOL    HW136177   9.034   8.005   4.205  0.0563 -0.2508  0.4666
11095SOL    HW236178   9.177   7.985   4.251  0.4126 -0.0321 -0.5063
11096SOL     OW36179   2.131   4.306   1.248 -0.4116  0.0991  0.1399
11096SOL    HW136180   2.127   4.275   1.338 -1.1409  3.1413  1.2581
11096SOL    HW236181   2.044   4.290   1.213 -0.4108 -0.2018  0.2704
11097SOL     OW36182   0.131   3.419   6.933  0.0685  0.1646  0.0654
11097SOL    HW136183   0.096   3.448   6.849 -0.4668 -0.1762  0.1701
11097SOL    HW236184   0.224   3.403   6.916  0.5173  2.4120  0.1095
11098SOL     OW36185   7.836   0.208   4.136 -0.0421 -0.2817  0.0684
11098SOL    HW136186   7.794   0.294   4.138  0.5300 -0.0039  0.4373
11098SOL    HW236187   7.929   0.227   4.151 -0.1134 -1.0952  1.7150
11099SOL     OW36188   1.944   6.235   7.501  0.0152 -0.4138  0.1092
11099SOL    HW136189   1.979   6.160   7.453 -1.3404 -0.7911 -0.3247
11099SOL    HW236190   2.020   6.270   7.549  0.7483 -1.8270  0.0362
11100SOL     OW36191   2.681   7.941   6.578 -0.5608  0.0330 -0.7149
11100SOL    HW136192   2.670   7.961   6.485 -1.1190  2.1920 -0.2542
11100SOL    HW236193   2.711   8.024   6.617 -1.5969 -0.4350  1.2240
11101SOL     OW36194   3.690   1.104   8.518 -0.0703  0.2549 -0.5453
11101SOL    HW136195   3.641   1.040   8.466 -0.0568 -0.1124 -0.1217
11101SOL    HW236196   3.769   1.121   8.467 -0.8056  1.1389 -1.4125
11102SOL     OW36197   2.349   0.716   3.873 -0.1104 -0.2072  0.3274
11102SOL    HW136198   2.335   0.751   3.960 -1.1939 -1.7142  0.8077
11102SOL    HW236199   2.262   0.697   3.840  0.1207  2.0977 -1.9147
11103SOL     OW36200   2.488   8.858   0.919 -0.1892  0.0524 -0.5140
11103SOL    HW136201   2.539   8.859   0.839  3.1360  1.4602  1.4061
11103SOL    HW236202   2.488   8.766   0.947  1.4327  0.0123 -0.5504
11104SOL     OW36203   5.645   9.081   1.464  1.0393 -0.3708  0.5085
11104SOL    HW136204   5.679   9.000   1.501 -0.0402 -1.5688 -0.9921
11104SOL    HW236205   5.593   9.120   1.534 -0.2150 -2.1050  0.5919
11105SOL     OW36206   2.329   6.832   5.018 -0.0093 -0.1596 -0.1838
11105SOL    HW136207   2.357   6.912   5.062 -2.2058 -0.3644  1.7914
11105SOL    HW236208   2.339   6.764   5.084  0.5099 -1.2929 -1.3928
11106SOL     OW36209   1.757   3.387   5.045  0.1069  0.8410 -0.1196
11106SOL    HW136210   1.667   3.365   5.020  0.0151  0.3145  0.6317
11106SOL    HW236211   1.804   3.304   5.036  0.8136  1.3779 -1.7136
11107SOL     OW36212   1.056   3.040   0.975  0.0162  0.1833  0.0634
11107SOL    HW136213   1.012   3.001   0.900  0.7217 -0.7707  0.1291
11107SOL    HW236214   1.148   3.047   0.949  0.3567 -0.6100  1.0008
11108SOL     OW36215   1.933   5.966   1.527  0.0252  0.1283  0.2674
11108SOL    HW136216   1.943   6.044   1.472  0.7504  0.2747  0.6014
11108SOL    HW236217   2.020   5.927   1.530 -0.3262 -0.6897  0.1236
11109SOL     OW36218   3.861   6.372   1.210  0.4657 -0.2548  0.0713
11109SOL    HW136219   3.947   6.404   1.185  0.0541  1.2758  0.5338
11109SOL    HW236220   3.803   6.448   1.200 -0.8686 -1.2887 -0.3888
11110SOL     OW36221   7.772   6.719   0.059 -0.2677  0.0716  0.0068
11110SOL    HW136222   7.765   6.698  -0.034 -0.1861  0.0885 -0.0033
11110SOL    HW236223   7.806   6.808   0.062  0.0478 -0.0471  0.0537
11111SOL     OW36224   1.994   4.113   0.147  1.1683 -0.2012 -0.3747
11111SOL    HW136225   1.959   4.041   0.200  0.9438  0.6831  0.7281
11111SOL    HW236226   2.082   4.085   0.122  0.8821 -1.0808 -0.4237
11112SOL     OW36227   1.317   0.481   2.553  0.0707 -0.1800  0.3171
11112SOL    HW136228   1.319   0.468   2.648  1.0381  1.0551  0.4841
11112SOL    HW236229   1.404   0.453   2.523 -0.5739 -1.5893 -0.3842
11113SOL     OW36230   5.724   8.483   7.682  0.1454  0.5422 -0.0410
11113SOL    HW136231   5.680   8.471   7.766  1.3447  1.1034  0.6821
11113SOL    HW236232   5.801   8.427   7.687 -0.4327 -0.4225 -1.2937
11114SOL     OW36233   8.360   5.810   8.130  0.0148  0.2270 -0.3862
11114SOL    HW136234   8.266   5.827   8.136  0.0618  0.2548  0.4157
11114SOL    HW236235   8.393   5.873   8.066 -0.3903  0.7363 -0.0969
11115SOL     OW36236   0.986   7.892   4.788  0.0727  0.1783 -0.0783
11115SOL    HW136237   0.942   7.963   4.834  0.0630  1.8373 -2.4394
11115SOL    HW236238   0.939   7.886   4.704  4.1119  2.1078 -2.8319
11116SOL     OW36239   6.989   7.520   5.607  0.5851 -0.6184 -0.1781
11116SOL    HW136240   7.009   7.574   5.684 -0.7414  2.5749 -1.8932
11116SOL    HW236241   7.071   7.519   5.557  0.6275 -0.1214 -0.1312
11117SOL     OW36242   6.744   9.264   3.646  0.1879 -0.3228  0.0409
11117SOL    HW136243   6.804   9.228   3.581 -1.0675 -0.2421 -1.2160
11117SOL    HW236244   6.719   9.189   3.701  0.0125 -0.7352 -0.5971
11118SOL     OW36245   9.489   3.109   6.459  0.1845 -0.4208 -0.1041
11118SOL    HW136246   9.583   3.119   6.474  0.2006 -1.0781  0.2995
11118SOL    HW236247   9.482   3.079   6.369  0.2833  0.6963 -0.4962
11119SOL     OW36248   7.276   2.363   5.345 -0.0183 -0.3442 -0.1692
11119SOL    HW136249   7.186   2.394   5.336 -0.1263 -0.2197  1.0777
11119SOL    HW236250   7.269   2.268   5.346 -0.1511 -0.3342 -0.0365
11120SOL     OW36251   0.397   7.007   5.206 -0.1348  0.6146  0.5045
11120SOL    HW136252   0.349   6.935   5.166  0.5589 -0.0635  0.8507
11120SOL    HW236253   0.335   7.079   5.208 -0.6063  0.2647 -0.5537
11121SOL     OW36254   8.883   3.025   0.231 -0.3696 -0.7186 -0.2717
11121SOL    HW136255   8.801   3.000   0.189  0.2182 -0.9630 -1.2954
11121SOL    HW236256   8.933   3.068   0.162 -0.4617  1.3291  0.8668
11122SOL     OW36257   1.394   3.448   1.037 -0.2482  0.2264 -0.4499
11122SOL    HW136258   1.399   3.368   1.088  1.5375 -0.1648 -1.1772
11122SOL    HW236259   1.395   3.419   0.946  0.6510  1.0766 -0.7261
11123SOL     OW36260   5.249   7.465   8.563 -0.0199 -0.0248 -0.5496
11123SOL    HW136261   5.313   7.394   8.564  1.5072  1.2655  1.2149
11123SOL    HW236262   5.267   7.511   8.481  0.6685 -0.2425 -0.5299
11124SOL     OW36263   1.577   7.218   6.004 -0.2565 -0.4917 -0.0345
11124SOL    HW136264   1.587   7.199   6.097  1.4508  0.5413  0.0315
11124SOL    HW236265   1.538   7.306   6.002  1.5543  0.3574 -0.2302
11125SOL     OW36266   5.905   7.508   4.933 -0.6446  0.6428  0.2581
11125SOL    HW136267   5.896   7.416   4.958  2.8229  0.4377  1.2954
11125SOL    HW236268   5.885   7.509   4.839 -0.5287 -1.2161  0.1727
11126SOL     OW36269   0.731   4.868   8.417  0.0939  0.0657  0.3937
11126SOL    HW136270   0.710   4.939   8.357  0.5898 -0.7353 -0.7601
11126SOL    HW236271   0.823   4.885   8.441 -0.5690  1.3100  2.2739
11127SOL     OW36272   4.039   9.151   2.490  0.2720  0.3353  0.2606
11127SOL    HW136273   4.073   9.135   2.402 -0.5729  1.3991 -0.2678
11127SOL    HW236274   3.944   9.144   2.481  0.1631  0.7360  1.0341
11128SOL     OW36275   0.737   4.717   0.945  0.1816 -0.9571  0.3905
11128SOL    HW136276   0.821   4.680   0.971 -0.2373 -1.0772  1.6726
11128SOL    HW236277   0.688   4.724   1.027 -0.6614  0.1255 -0.1848
11129SOL     OW36278   7.255   6.099   4.395 -0.5678  0.2778 -0.7263
11129SOL    HW136279   7.286   6.009   4.395 -2.0417 -0.2531 -0.8176
11129SOL    HW236280   7.184   6.100   4.458  0.8594  1.9332  0.9689
11130SOL     OW36281   5.183   0.383   6.870  0.4618  0.3931  0.6233
11130SOL    HW136282   5.251   0.333   6.824 -1.2123 -1.2409 -0.2150
11130SOL    HW236283   5.193   0.358   6.962 -0.9096 -2.3952  0.1273
11131SOL     OW36284   8.347   6.674   6.487 -0.5221 -0.0442  0.0136
11131SOL    HW136285   8.342   6.719   6.403 -0.2651  1.7003  0.8810
11131SOL    HW236286   8.359   6.745   6.551 -0.3541 -1.3485  1.4774
11132SOL     OW36287   0.389   2.668   4.082 -0.5257  0.4371 -0.2883
11132SOL    HW136288   0.360   2.599   4.141  0.0333 -0.6229 -1.2383
11132SOL    HW236289   0.403   2.744   4.140  0.7308 -0.7673  1.0746
11133SOL     OW36290   8.481   1.847   7.279 -0.2974 -0.3902  0.2897
11133SOL    HW136291   8.472   1.865   7.185 -0.1260  0.7898  0.4830
11133SOL    HW236292   8.485   1.933   7.319  0.9526 -0.8749  1.2678
11134SOL     OW36293   5.236   1.696   0.026  0.0367 -0.5472  0.1236
11134SOL    HW136294   5.211   1.605   0.008  2.6989 -0.9614 -2.1413
11134SOL    HW236295   5.268   1.694   0.116 -0.8911 -1.5717  0.4639
11135SOL     OW36296   8.947   2.437   5.993 -0.2517  0.0436  0.6762
11135SOL    HW136297   8.911   2.500   6.055  0.1608 -0.5203  1.4966
11135SOL    HW236298   8.873   2.381   5.970 -0.0574 -0.7739  1.9419
11136SOL     OW36299   5.104   1.736   0.417 -0.7286  0.0702 -0.0641
11136SOL    HW136300   5.106   1.686   0.335 -0.6464 -1.3535  0.7645
11136SOL    HW236301   5.023   1.786   0.413 -1.6742 -1.3999 -0.2407
11137SOL     OW36302   7.120   5.013   4.113  0.0466  0.1204  0.3428
11137SOL    HW136303   7.174   5.050   4.183 -2.1446  0.9191  1.7255
11137SOL    HW236304   7.037   5.061   4.119 -0.5823 -0.4923 -2.1865
11138SOL     OW36305   9.199   7.672   4.401 -0.0643  0.3090  0.2751
11138SOL    HW136306   9.179   7.662   4.308 -0.4219  1.3283  0.2328
11138SOL    HW236307   9.118   7.704   4.440 -0.5704 -2.0321  1.3290
11139SOL     OW36308   4.419   6.836   5.135  0.2005  0.1723  0.3354
11139SOL    HW136309   4.395   6.748   5.163  0.9810  0.2181  1.1867
11139SOL    HW236310   4.368   6.851   5.055 -0.2720 -0.8736  0.4321
11140SOL     OW36311   5.713   4.210   8.065  0.1274 -0.5294  0.4793
11140SOL    HW136312   5.630   4.253   8.088  1.8485  1.5172  3.4833
11140SOL    HW236313   5.726   4.146   8.135  1.8409  0.3618  1.0131
11141SOL     OW36314   1.682   7.212   2.723  0.1952  0.8079 -0.2363
11141SOL    HW136315   1.660   7.153   2.651  0.0365  0.7231 -0.1194
11141SOL    HW236316   1.666   7.299   2.688 -0.4011  0.7433 -0.1296
11142SOL     OW36317   2.976   2.714   6.971 -0.4342 -0.2762  0.4962
11142SOL    HW136318   3.002   2.640   6.915  1.0411  0.3652  0.2958
11142SOL    HW236319   3.009   2.692   7.058 -0.2803 -0.0063  0.5079
11143SOL     OW36320   6.356   7.568   4.020  0.5015 -0.1097  0.5704
11143SOL    HW136321   6.304   7.577   4.100  0.2239 -0.8603  0.4835
11143SOL    HW236322   6.446   7.556   4.050  0.3096 -1.0566  0.8042
11144SOL     OW36323   3.760   6.288   4.918  0.3040  0.5888 -0.2402
11144SOL    HW136324   3.686   6.267   4.976  0.6224 -0.0757 -0.0769
11144SOL    HW236325   3.757   6.221   4.850  1.9917 -0.7225  0.8948
11145SOL     OW36326   6.303   6.227   5.062 -0.2414 -0.5846 -0.1598
11145SOL    HW136327   6.253   6.289   5.114  0.1871 -0.1766 -0.2232
11145SOL    HW236328   6.390   6.268   5.053 -0.3083 -0.6417 -1.1952
11146SOL     OW36329   4.046   9.092   4.950  0.7222  0.6467 -0.2700
11146SOL    HW136330   4.103   9.166   4.970 -0.1687  0.7453  2.2381
11146SOL    HW236331   3.966   9.110   4.999  0.2253 -1.6539 -0.1319
11147SOL     OW36332   1.871   2.881   7.818  0.7818 -0.4294  0.2174
11147SOL    HW136333   1.904   2.808   7.765  0.3273 -1.1029  0.8454
11147SOL    HW236334   1.872   2.956   7.758 -0.1363 -1.2672 -0.8897
11148SOL     OW36335   8.119   4.351   1.936 -0.3415  0.2956  0.0038
11148SOL    HW136336   8.151   4.271   1.978 -3.1922 -1.5136 -1.0147
11148SOL    HW236337   8.124   4.417   2.004 -2.0058 -1.8138  2.3355
11149SOL     OW36338   5.878   4.592   6.028 -0.1918  0.0354 -0.2250
11149SOL    HW136339   5.788   4.585   5.995 -0.2316 -1.5927  0.1304
11149SOL    HW236340   5.869   4.579   6.123  0.6708 -3.2587 -0.4980
11150SOL     OW36341   8.209   3.707   7.690 -0.3992  0.1314 -0.0376
11150SOL    HW136342   8.284   3.749   7.648  0.3364  0.2249  1.3241
11150SOL    HW236343   8.241   3.619   7.713 -0.8681 -0.0049  0.1019
11151SOL     OW36344   3.607   1.638   3.702  0.0420 -0.1897 -0.3032
11151SOL    HW136345   3.568   1.595   3.778 -0.0018  1.0631  0.3916
11151SOL    HW236346   3.550   1.612   3.629 -1.2535  0.4068  0.4594
11152SOL     OW36347   4.428   0.552   8.766 -0.2147  0.1871  0.0871
11152SOL    HW136348   4.409   0.645   8.780  1.4621  0.6527 -0.4319
11152SOL    HW236349   4.511   0.537   8.811  0.3688 -0.6386 -1.1929
11153SOL     OW36350   3.577   3.711   8.691 -0.0203 -0.0287  0.5254
11153SOL    HW136351   3.592   3.698   8.785  1.3307 -0.1667  0.3152
11153SOL    HW236352   3.644   3.775   8.665  1.2387 -1.7863 -0.7935
11154SOL     OW36353   8.010   7.119   7.721  0.6809 -0.4126  0.5905
11154SOL    HW136354   8.036   7.126   7.813  1.3141  1.5741  0.2989
11154SOL    HW236355   8.078   7.165   7.673 -0.7931  0.5673 -0.6625
11155SOL     OW36356   6.561   1.908   2.433 -0.4756 -0.1654 -0.3517
11155SOL    HW136357   6.628   1.960   2.478 -1.7712  0.9873  0.3209
11155SOL    HW236358   6.567   1.935   2.342 -1.5889  1.7447  0.0972
11156SOL     OW36359   8.104   2.659   6.701  0.0603 -0.5617 -0.1400
11156SOL    HW136360   8.196   2.635   6.702  0.3837  0.1813 -3.0153
11156SOL    HW236361   8.102   2.746   6.743  0.4455 -1.0581  0.9540
11157SOL     OW36362   1.128   4.982   4.781  0.0254 -0.3573  0.3966
11157SOL    HW136363   1.049   4.928   4.790 -0.3032 -0.0019 -0.3092
11157SOL    HW236364   1.188   4.927   4.731 -0.3988  0.0146 -0.5356
11158SOL     OW36365   4.628   7.662   0.347 -0.0931 -0.2679 -0.0884
11158SOL    HW136366   4.592   7.747   0.371 -0.2070 -0.2120 -0.4467
11158SOL    HW236367   4.626   7.661   0.251  3.1766  0.7526 -0.2960
11159SOL     OW36368   7.455   4.948   1.882  0.8467 -0.4484 -0.3723
11159SOL    HW136369   7.503   4.970   1.802  1.1393  0.4952  0.0483
11159SOL    HW236370   7.516   4.893   1.931  0.8610 -0.6168 -0.5790
11160SOL     OW36371   1.786   3.800   0.774 -0.0024  0.0320  0.5819
11160SOL    HW136372   1.702   3.756   0.788  0.6023 -1.1210  0.7267
11160SOL    HW236373   1.766   3.872   0.716 -0.9847 -0.6380  0.0610
11161SOL     OW36374   5.033   2.184   1.661  0.1402 -0.0575  0.4267
11161SOL    HW136375   5.047   2.229   1.745 -0.6738  0.7725  0.1416
11161SOL    HW236376   5.018   2.255   1.598 -1.4380 -0.7094  0.0117
11162SOL     OW36377   3.302   9.434   2.012 -0.0111 -0.3374  0.0646
11162SOL    HW136378   3.318   9.370   1.944  0.5340  1.5508 -1.7025
11162SOL    HW236379   3.240   9.392   2.072 -2.5169 -1.2661 -2.9276
11163SOL     OW36380   1.736   3.642   6.207  0.3170  0.7036  0.2531
11163SOL    HW136381   1.781   3.672   6.128 -3.5499  0.6193 -2.2516
11163SOL    HW236382   1.692   3.719   6.241 -0.1364  0.2112  0.8120
11164SOL     OW36383   0.312   1.115   6.691  0.0414 -0.5474 -0.2072
11164SOL    HW136384   0.399   1.146   6.717 -0.3308  0.6503 -0.2950
11164SOL    HW236385   0.287   1.052   6.758 -0.1824  1.1975  1.4136
11165SOL     OW36386   5.722   5.270   8.190 -0.1839 -0.6508  0.5225
11165SOL    HW136387   5.754   5.182   8.167  1.8976  0.4123 -0.9573
11165SOL    HW236388   5.663   5.293   8.119  0.2315 -0.3942  0.2546
11166SOL     OW36389   4.735   5.740   4.653  1.0658  0.3715 -0.1074
11166SOL    HW136390   4.721   5.798   4.728  1.7611 -1.3620  1.4338
11166SOL    HW236391   4.755   5.799   4.581  0.0782  2.1232  0.9677
11167SOL     OW36392   7.197   2.937   0.372  0.5868 -0.0740 -0.2937
11167SOL    HW136393   7.127   2.904   0.428  1.9126 -1.7993  0.4460
11167SOL    HW236394   7.278   2.905   0.413  2.1138  4.1813  0.5318
11168SOL     OW36395   0.292   2.189   4.256 -0.2113  0.1559  0.2118
11168SOL    HW136396   0.322   2.101   4.278  2.4152  0.3303 -2.1096
11168SOL    HW236397   0.206   2.176   4.216 -0.0322 -1.3047  0.2569
11169SOL     OW36398   3.645   0.902   1.755  0.8506 -0.3435 -0.2357
11169SOL    HW136399   3.644   0.973   1.691  1.1770  1.4694  1.6416
11169SOL    HW236400   3.554   0.872   1.760  0.5188  0.6068 -0.3799
11170SOL     OW36401   3.041   7.354   8.707 -0.3612  0.2538 -0.4123
11170SOL    HW136402   3.082   7.286   8.761 -0.2639  0.7343  0.1242
11170SOL    HW236403   3.019   7.309   8.626  1.5281  0.0663 -0.8655
11171SOL     OW36404   1.058   5.217   4.654 -0.2974 -0.0126  0.2714
11171SOL    HW136405   1.087   5.150   4.715 -0.4046 -1.2617 -0.9974
11171SOL    HW236406   1.057   5.173   4.568  0.1794  1.7624 -0.6973
11172SOL     OW36407   7.164   7.697   1.743  0.2905 -0.0532  0.1378
11172SOL    HW136408   7.108   7.756   1.794 -1.5292 -0.4495 -1.2939
11172SOL    HW236409   7.164   7.735   1.655  1.2414 -0.7924 -0.1952
11173SOL     OW36410   6.604   3.708   4.209 -0.4327 -0.3989  0.2623
11173SOL    HW136411   6.687   3.705   4.161 -0.3854  0.5929  0.2515
11173SOL    HW236412   6.537   3.694   4.142 -0.2748 -1.2826  0.2831
11174SOL     OW36413   4.614   7.934   8.799 -0.5979 -0.6257  0.2081
11174SOL    HW136414   4.678   7.984   8.749 -0.8097 -1.1927 -0.6431
11174SOL    HW236415   4.631   7.843   8.775 -2.1461 -0.7447 -0.5634
11175SOL     OW36416   9.195   5.721   6.853 -0.4060  0.8691  0.9002
11175SOL    HW136417   9.261   5.739   6.919 -0.5290  0.0848  1.2581
11175SOL    HW236418   9.197   5.796   6.794  1.4172  0.4701  0.3875
11176SOL     OW36419   8.835   3.421   9.068 -0.0892  0.5539  0.4081
11176SOL    HW136420   8.758   3.476   9.083 -1.6096 -1.1239 -0.8607
11176SOL    HW236421   8.882   3.465   8.997 -1.9779 -0.3477 -1.5078
11177SOL     OW36422   4.243   3.584   0.345  0.2864  0.0006  0.7048
11177SOL    HW136423   4.168   3.643   0.346  0.0226 -0.3062 -0.0565
11177SOL    HW236424   4.207   3.497   0.362  0.3682 -0.2316 -0.2109
11178SOL     OW36425   8.036   3.487   8.615 -0.1598 -0.2061  0.3554
11178SOL    HW136426   8.074   3.547   8.679  1.7360 -1.7843  0.8283
11178SOL    HW236427   8.088   3.499   8.536 -0.7938 -0.1230 -0.0609
11179SOL     OW36428   6.019   6.418   8.699  0.1330  0.2812  0.0358
11179SOL    HW136429   6.095   6.360   8.694 -0.7511 -1.1997  2.3839
11179SOL    HW236430   6.057   6.504   8.717  1.2857 -0.3596  0.8067
11180SOL     OW36431   0.559   2.498   1.276 -0.3855  0.2356 -0.2429
11180SOL    HW136432   0.509   2.464   1.202 -0.9786 -1.3010  0.8113
11180SOL    HW236433   0.622   2.558   1.237 -1.9238  0.9253 -1.7892
11181SOL     OW36434   7.935   0.775   0.217  0.5996 -0.1890 -0.3467
11181SOL    HW136435   7.973   0.802   0.301  1.8327 -0.0315 -0.9413
11181SOL    HW236436   7.948   0.681   0.213 -0.0793 -0.3057 -0.0761
11182SOL     OW36437   0.639   1.518   0.578 -0.2853  0.0842 -0.3064
11182SOL    HW136438   0.614   1.528   0.486 -2.3573  1.0628  0.3051
11182SOL    HW236439   0.593   1.589   0.623  2.7191  1.2623  1.1697
11183SOL     OW36440   4.055   8.300   2.350 -0.7026  0.2554 -0.2214
11183SOL    HW136441   4.113   8.249   2.408  1.1329  0.8849 -1.4258
11183SOL    HW236442   3.987   8.334   2.409  0.2763 -0.3079  1.3063
11184SOL     OW36443   8.802   7.731   4.150  0.0853  0.5042  0.7642
11184SOL    HW136444   8.733   7.798   4.156  0.6911  1.1086  1.1249
11184SOL    HW236445   8.778   7.667   4.218  0.0727  0.9053  1.1470
11185SOL     OW36446   9.240   6.356   7.191 -0.0377  0.0888 -0.5627
11185SOL    HW136447   9.319   6.405   7.212  0.0324  0.5250 -1.7977
11185SOL    HW236448   9.190   6.356   7.273  1.3857 -0.5242  0.3456
11186SOL     OW36449   4.263   8.026   0.193  0.0122 -0.3166  0.0584
11186SOL    HW136450   4.275   7.936   0.223  1.9631  0.4537  1.8978
11186SOL    HW236451   4.199   8.063   0.253 -1.0827 -0.5586 -0.9401
11187SOL     OW36452   1.383   0.002   9.040 -0.3991 -0.3126 -0.0961
11187SOL    HW136453   1.319   0.071   9.053 -1.0493 -0.8780 -0.2581
11187SOL    HW236454   1.346  -0.053   8.972 -0.9856 -2.0877  1.5500
11188SOL     OW36455   0.822   0.573   7.231  0.0037  0.2333 -0.0479
11188SOL    HW136456   0.743   0.520   7.243  0.9987 -0.9672  1.6256
11188SOL    HW236457   0.789   0.660   7.209 -1.7609 -0.3736  0.0154
11189SOL     OW36458   3.928   0.248   3.202  0.5907 -0.1721 -0.5440
11189SOL    HW136459   3.848   0.274   3.246  2.0511  3.1829  0.5232
11189SOL    HW236460   3.990   0.230   3.272  2.1645  2.5389 -1.0676
11190SOL     OW36461   9.409   9.288   4.471  0.1161  0.3783 -0.2486
11190SOL    HW136462   9.448   9.252   4.391 -0.5986  1.1472 -0.9587
11190SOL    HW236463   9.436   9.380   4.472 -0.6692  0.6175 -0.1225
11191SOL     OW36464   6.121   5.999   1.262  0.2997 -0.4083  0.1190
11191SOL    HW136465   6.039   5.950   1.271 -0.6857  1.0802 -0.4236
11191SOL    HW236466   6.148   6.019   1.351 -0.6502  0.2257  0.2741
11192SOL     OW36467   5.747   8.737   1.905  0.7109  0.5061 -0.0354
11192SOL    HW136468   5.810   8.666   1.889 -1.0152 -0.9407 -0.6797
11192SOL    HW236469   5.750   8.751   2.000 -0.9764 -2.4771  0.5528
11193SOL     OW36470   6.475   2.005   8.965  0.4426  0.2665  0.3246
11193SOL    HW136471   6.410   1.936   8.978  1.1520 -0.1719  1.7576
11193SOL    HW236472   6.478   2.050   9.050  2.8248 -0.4399  0.6618
11194SOL     OW36473   5.103   1.211   5.023 -1.1527  0.0688 -0.4029
11194SOL    HW136474   5.081   1.193   5.115 -3.1760  0.6293 -0.7382
11194SOL    HW236475   5.153   1.135   4.995 -1.9581 -0.8884  0.6909
11195SOL     OW36476   9.400   2.150   7.713 -0.4596  0.2735 -0.1212
11195SOL    HW136477   9.475   2.144   7.772 -0.9752 -0.1927  0.4853
11195SOL    HW236478   9.355   2.230   7.740  0.4470  1.2120 -1.2487
11196SOL     OW36479   5.379   9.487   6.937  0.0640  0.3581 -0.2585
11196SOL    HW136480   5.463   9.534   6.938  1.2961 -1.6190  2.1506
11196SOL    HW236481   5.395   9.412   6.880  0.5287 -0.8256  1.3477
11197SOL     OW36482   8.033   3.225   1.037  0.3836 -0.4683  0.2626
11197SOL    HW136483   8.041   3.318   1.059 -0.3561 -0.7848  2.0287
11197SOL    HW236484   8.122   3.192   1.038  0.5429 -0.0376  0.8767
11198SOL     OW36485   4.841   5.883   7.560 -0.2302 -0.5197 -0.1978
11198SOL    HW136486   4.832   5.821   7.632 -1.2334  0.6207  0.7028
11198SOL    HW236487   4.761   5.874   7.510 -1.8903  2.1152  1.7017
11199SOL     OW36488   6.313   8.631   0.074  0.1929 -0.1788  0.6468
11199SOL    HW136489   6.400   8.634   0.034  0.6688 -1.2884  1.5339
11199SOL    HW236490   6.294   8.722   0.097  0.8046  0.1739 -0.1757
11200SOL     OW36491   0.237   5.892   3.118  0.0745  0.3779  0.1840
11200SOL    HW136492   0.247   5.867   3.026  1.4759 -2.3224  0.9385
11200SOL    HW236493   0.327   5.906   3.149 -0.1567 -1.0529  1.6443
11201SOL     OW36494   8.897   3.265   1.235  0.1028  0.2031  0.5150
11201SOL    HW136495   8.830   3.253   1.168  0.7181 -1.1906  0.1246
11201SOL    HW236496   8.848   3.279   1.316 -0.6409  0.7311 -0.0077
11202SOL     OW36497   5.006   6.076   3.511 -0.3710  0.0666  0.0652
11202SOL    HW136498   4.957   6.097   3.431  0.3339  0.0817 -0.3755
11202SOL    HW236499   5.097   6.099   3.490 -0.1521 -0.0681  0.8249
11203SOL     OW36500   5.911   3.421   5.648  0.2169  0.0503  0.6450
11203SOL    HW136501   5.925   3.491   5.585  0.5615 -0.2411  0.3982
11203SOL    HW236502   5.995   3.411   5.692  0.2820 -0.4897  0.3967
11204SOL     OW36503   9.451   6.559   9.018 -0.2683 -0.2388  0.0016
11204SOL    HW136504   9.484   6.483   8.970  1.8521 -0.3891  1.5834
11204SOL    HW236505   9.476   6.634   8.964 -3.0681 -0.5473 -1.9797
11205SOL     OW36506   2.902   4.832   6.177  0.3552 -0.1837  0.1407
11205SOL    HW136507   2.943   4.807   6.259  0.8329  3.7417  1.2948
11205SOL    HW236508   2.817   4.869   6.203 -1.1183 -2.1181 -1.5767
11206SOL     OW36509   4.926   2.318   0.079 -0.7208  0.3669  0.4589
11206SOL    HW136510   4.869   2.278   0.144 -0.6463 -1.7887 -0.7017
11206SOL    HW236511   4.900   2.278  -0.004 -1.3225  3.5494 -1.0533
11207SOL     OW36512   1.482   9.122   1.045  0.5526  0.1399  0.4000
11207SOL    HW136513   1.482   9.082   1.132  0.9510  2.9752  1.7976
11207SOL    HW236514   1.391   9.116   1.017 -0.3515  2.1518  2.5612
11208SOL     OW36515   9.472   9.234   2.087  0.3535 -0.0864 -0.1989
11208SOL    HW136516   9.533   9.200   2.021 -0.6522 -0.3296 -1.0248
11208SOL    HW236517   9.499   9.325   2.099  0.9133 -0.2048 -0.5053
11209SOL     OW36518   3.007   2.330   4.933 -0.0631 -0.0043  0.3665
11209SOL    HW136519   3.066   2.255   4.936 -0.6413 -0.4845 -0.0520
11209SOL    HW236520   3.065   2.407   4.936  0.5789 -0.4651 -0.0905
11210SOL     OW36521   7.818   5.996   6.773 -0.3092  0.4363 -0.1071
11210SOL    HW136522   7.865   5.929   6.822 -0.5802  0.7351  0.5645
11210SOL    HW236523   7.727   5.986   6.800 -0.1495  2.0196  1.1127
11211SOL     OW36524   4.053   5.490   8.700  0.0204  0.1394 -0.0333
11211SOL    HW136525   4.048   5.495   8.795  1.6199  0.9142  0.0382
11211SOL    HW236526   4.141   5.457   8.682 -0.1216  0.3713 -1.2645
11212SOL     OW36527   9.170   2.295   6.194  0.4441 -0.2564 -0.3449
11212SOL    HW136528   9.085   2.330   6.167  0.3930  1.0861  1.3539
11212SOL    HW236529   9.147   2.220   6.249  0.4066 -0.6015 -0.8280
11213SOL     OW36530   3.640   9.594   8.138 -0.1862 -0.0213 -0.5376
11213SOL    HW136531   3.622   9.521   8.079  0.3921 -1.1562  0.6496
11213SOL    HW236532   3.711   9.563   8.194  0.2000  1.5251 -0.1093
11214SOL     OW36533   5.362   5.256   2.754  0.0009  0.1463 -0.4837
11214SOL    HW136534   5.450   5.269   2.790  0.4299 -1.7872 -0.7301
11214SOL    HW236535   5.304   5.279   2.826  0.7290  0.6427 -0.0388
11215SOL     OW36536   1.233   3.418   3.745  0.2961 -0.5219  0.1422
11215SOL    HW136537   1.238   3.363   3.824  0.8974  1.3542  1.4843
11215SOL    HW236538   1.324   3.427   3.717  0.1739 -0.4407 -0.2231
11216SOL     OW36539   0.887   3.255   0.998  0.1058 -0.3613 -0.8439
11216SOL    HW136540   0.932   3.171   0.995  0.9344  0.0600 -3.6893
11216SOL    HW236541   0.952   3.317   0.965 -1.5181  0.8178 -1.9531
11217SOL     OW36542   4.779   8.215   8.519 -0.7491  0.0116  0.4154
11217SOL    HW136543   4.809   8.265   8.595 -0.3646  0.5371 -0.0776
11217SOL    HW236544   4.859   8.189   8.474 -0.9913  1.5155 -0.9732
11218SOL     OW36545   0.412   7.879   2.868 -0.2706  0.3397 -0.1274
11218SOL    HW136546   0.384   7.788   2.878 -2.7024  1.1072  0.7576
11218SOL    HW236547   0.506   7.877   2.888 -0.0407 -2.0865 -1.1096
11219SOL     OW36548   9.573   8.023   9.588  0.0488 -0.5901  0.4730
11219SOL    HW136549   9.502   7.959   9.583  1.2489 -1.9270 -0.1697
11219SOL    HW236550   9.546   8.094   9.530 -0.2516 -1.6558 -0.7597
11220SOL     OW36551   4.492   5.147   9.240 -0.2073 -0.2477 -0.1259
11220SOL    HW136552   4.521   5.238   9.252  0.4172 -0.3945 -0.4676
11220SOL    HW236553   4.537   5.098   9.309  0.0952 -0.4271 -0.4517
11221SOL     OW36554   6.187   7.794   8.538 -0.0718 -0.1738  0.6225
11221SOL    HW136555   6.097   7.815   8.563  0.2844 -0.7855  2.5513
11221SOL    HW236556   6.237   7.800   8.619  1.6453  0.0861 -0.3928
11222SOL     OW36557   2.422   2.426   7.858 -0.2755  0.4181  0.1852
11222SOL    HW136558   2.462   2.481   7.791  1.9830  1.4501  2.2046
11222SOL    HW236559   2.476   2.347   7.859 -2.5149 -1.2548 -1.5809
11223SOL     OW36560   1.984   8.736   0.981  0.5655 -0.2592  0.1584
11223SOL    HW136561   1.981   8.831   0.992 -0.2159 -0.3062  0.3564
11223SOL    HW236562   2.026   8.704   1.061 -0.0362 -0.1542  0.5194
11224SOL     OW36563   0.702   7.473   5.415 -0.1846  0.1936  0.3904
11224SOL    HW136564   0.706   7.566   5.394  1.2059  0.0411 -0.1175
11224SOL    HW236565   0.780   7.436   5.375 -1.9083 -1.6374 -1.4959
11225SOL     OW36566   1.124   3.497   0.938 -0.2936  0.2405  0.1022
11225SOL    HW136567   1.103   3.587   0.964 -2.9708 -0.6063  1.2394
11225SOL    HW236568   1.198   3.472   0.993  1.5247  2.1801 -1.3199
11226SOL     OW36569   4.580   4.702   6.347 -0.0283 -0.2425  0.1114
11226SOL    HW136570   4.600   4.613   6.320 -0.3201 -0.1783 -0.3330
11226SOL    HW236571   4.546   4.694   6.436  0.5653 -0.5017  0.3238
11227SOL     OW36572   4.885   6.381   6.076 -0.2665 -0.2161 -0.2388
11227SOL    HW136573   4.959   6.347   6.126 -1.3366  0.0499  1.6024
11227SOL    HW236574   4.918   6.387   5.986  1.3616 -1.7981  0.1887
11228SOL     OW36575   6.183   6.157   5.706  0.1858 -0.4503  0.5320
11228SOL    HW136576   6.249   6.214   5.746  0.7165 -0.4454 -0.3117
11228SOL    HW236577   6.221   6.069   5.712  0.6831 -0.3442 -0.7178
11229SOL     OW36578   8.369   8.563   6.886  0.0897  0.7964  0.5655
11229SOL    HW136579   8.278   8.559   6.857  0.2846 -0.0764  0.0217
11229SOL    HW236580   8.365   8.579   6.980 -0.6143  1.1062  0.4860
11230SOL     OW36581   6.977   8.832   3.969 -0.4436 -0.0260  0.1548
11230SOL    HW136582   6.901   8.844   4.025 -0.5412  1.4632 -0.2627
11230SOL    HW236583   6.952   8.870   3.885  0.3330 -0.6233 -0.3683
11231SOL     OW36584   6.638   2.760   0.159  0.2639 -0.3547  0.6169
11231SOL    HW136585   6.572   2.698   0.191  0.3599 -0.9261 -0.2433
11231SOL    HW236586   6.716   2.741   0.212  0.2286 -0.8257  0.5039
11232SOL     OW36587   6.733   7.587   3.073  0.0768 -0.4650  0.2541
11232SOL    HW136588   6.667   7.651   3.048  0.4821 -0.2287 -0.2387
11232SOL    HW236589   6.803   7.639   3.114  0.2340 -0.6339  0.2040
11233SOL     OW36590   0.363   9.106   1.828 -0.0025 -0.1624 -0.0849
11233SOL    HW136591   0.356   9.024   1.779  1.1460 -1.5156  1.8643
11233SOL    HW236592   0.395   9.079   1.914 -1.0144  2.1952  1.1084
11234SOL     OW36593   3.421   2.356   3.326  0.0592  0.3624 -0.8926
11234SOL    HW136594   3.445   2.264   3.314 -1.0901  0.0059 -0.6171
11234SOL    HW236595   3.498   2.405   3.298  0.5745 -0.6758 -1.3427
11235SOL     OW36596   4.586   0.296   4.067 -0.4156 -0.1110 -0.0275
11235SOL    HW136597   4.573   0.364   4.133  2.7835 -2.2459  3.1831
11235SOL    HW236598   4.651   0.333   4.008 -0.4516  0.4628  0.2760
11236SOL     OW36599   6.946   1.549   1.913  0.5241  0.0207 -0.2366
11236SOL    HW136600   6.962   1.544   2.007 -0.4073  1.0695 -0.0042
11236SOL    HW236601   7.031   1.527   1.873  0.8373 -0.7684  0.8298
11237SOL     OW36602   8.974   6.263   1.790 -0.0135 -0.9031  0.5501
11237SOL    HW136603   9.034   6.336   1.805 -1.5582  0.2481  1.3067
11237SOL    HW236604   8.944   6.274   1.700 -1.3223  0.2546  1.1020
11238SOL     OW36605   9.373   8.026   0.505  0.1219 -0.1516 -0.0025
11238SOL    HW136606   9.429   8.026   0.427  0.7505  2.6540  0.3415
11238SOL    HW236607   9.395   7.945   0.550  1.5085 -0.6888 -1.5414
11239SOL     OW36608   3.823   2.422   3.838 -0.3381 -0.1061  0.3266
11239SOL    HW136609   3.767   2.491   3.803 -1.3741 -0.5599  1.0567
11239SOL    HW236610   3.863   2.382   3.761 -0.5246  0.6404 -0.1637
11240SOL     OW36611   6.851   7.374   4.324  0.5767  0.7321 -0.4739
11240SOL    HW136612   6.841   7.437   4.396 -2.3571 -0.5659  0.4395
11240SOL    HW236613   6.783   7.399   4.261  0.8359 -0.2060 -1.1496
11241SOL     OW36614   3.945   9.513   1.512 -0.3816  0.0356  0.2478
11241SOL    HW136615   3.867   9.511   1.457 -1.0459 -0.6966  1.1777
11241SOL    HW236616   3.927   9.583   1.575  0.9208  1.7567 -1.1759
11242SOL     OW36617   2.795   3.763   0.746  0.2358 -0.4016  0.1351
11242SOL    HW136618   2.703   3.787   0.738  0.1373 -1.0115 -0.5969
11242SOL    HW236619   2.798   3.670   0.725  1.1846 -0.1253 -1.0541
11243SOL     OW36620   9.546   8.697   0.297 -0.3069 -0.0552 -0.2026
11243SOL    HW136621   9.525   8.672   0.207 -0.3919 -0.7757  0.0125
11243SOL    HW236622   9.527   8.619   0.349  3.1994 -0.9844 -0.0278
11244SOL     OW36623   4.711   0.972   2.453  0.2195  0.0741  0.3514
11244SOL    HW136624   4.640   1.036   2.462 -0.3821 -0.5536  0.1411
11244SOL    HW236625   4.758   1.000   2.375  0.0583  0.3617  0.3548
11245SOL     OW36626   2.294   2.979   4.554 -0.3465 -0.4111  0.2938
11245SOL    HW136627   2.308   3.039   4.480 -0.1183 -1.1556 -0.2794
11245SOL    HW236628   2.217   2.928   4.528  0.0281 -1.0079  0.3461
11246SOL     OW36629   5.803   5.856   1.841 -0.6994  1.0446  0.0863
11246SOL    HW136630   5.823   5.843   1.748  0.1110  1.4867  0.1864
11246SOL    HW236631   5.740   5.788   1.862 -0.0366  0.2251 -0.5188
11247SOL     OW36632   7.257   5.396   8.377  0.4963 -0.5114  0.1256
11247SOL    HW136633   7.294   5.399   8.288 -0.8775 -1.6306 -0.5252
11247SOL    HW236634   7.289   5.313   8.413  1.4334  0.1649  0.8606
11248SOL     OW36635   5.885   0.783   2.729 -0.2495 -0.4139  0.1263
11248SOL    HW136636   5.955   0.768   2.666 -0.0037 -2.7080  0.8288
11248SOL    HW236637   5.920   0.749   2.812 -1.4284  0.3229  0.9629
11249SOL     OW36638   5.265   3.544   0.733 -0.1533 -0.6395  0.5386
11249SOL    HW136639   5.262   3.578   0.823 -0.6412  0.5025  0.1129
11249SOL    HW236640   5.342   3.487   0.732 -0.3702 -0.9951  1.7850
11250SOL     OW36641   2.499   7.411   3.919 -0.5797 -0.4378 -0.0364
11250SOL    HW136642   2.440   7.486   3.925 -0.3853 -0.2973  0.1703
11250SOL    HW236643   2.576   7.438   3.970 -0.5894 -0.8517  0.1963
11251SOL     OW36644   7.941   9.189   7.808 -0.3137 -0.3402 -0.5239
11251SOL    HW136645   7.963   9.143   7.889  0.0297 -1.8373 -1.4324
11251SOL    HW236646   7.950   9.282   7.829  0.2237 -0.7258  1.0131
11252SOL     OW36647   8.326   6.579   5.570 -0.1431 -0.2288  0.0879
11252SOL    HW136648   8.382   6.655   5.588 -0.6427  0.4838 -1.2371
11252SOL    HW236649   8.247   6.594   5.621 -0.0224 -0.1455  0.2522
11253SOL     OW36650   4.066   9.122   2.788  0.4691  0.0279  0.3445
11253SOL    HW136651   4.090   9.121   2.695 -0.2925 -1.9394  0.1300
11253SOL    HW236652   4.147   9.147   2.832  1.6412 -1.7037 -0.6970
11254SOL     OW36653   1.842   2.015   9.149  0.3707 -0.6198  0.1494
11254SOL    HW136654   1.916   2.042   9.202  0.6704  0.2958 -0.6930
11254SOL    HW236655   1.840   1.919   9.156  1.4917 -0.6346  0.3553
11255SOL     OW36656   6.322   3.919   4.255  0.5134 -0.1493 -0.1192
11255SOL    HW136657   6.344   3.958   4.340 -1.3782  0.0574  0.3240
11255SOL    HW236658   6.312   3.826   4.274 -0.0575 -0.0815 -0.0727
11256SOL     OW36659   6.664   1.893   0.828  0.4542 -0.2322  0.0610
11256SOL    HW136660   6.753   1.910   0.797 -0.0103  3.4149  0.2101
11256SOL    HW236661   6.667   1.913   0.922 -1.1736  4.5632 -0.5864
11257SOL     OW36662   4.829   2.722   1.209  0.2390 -0.0508 -0.0582
11257SOL    HW136663   4.905   2.674   1.174 -0.3744 -0.4008 -0.9375
11257SOL    HW236664   4.863   2.810   1.225  1.2755 -0.6455  1.1853
11258SOL     OW36665   8.629   0.737   8.049 -0.1074 -0.2373 -0.4526
11258SOL    HW136666   8.684   0.706   8.121 -0.8465 -1.8719 -0.5640
11258SOL    HW236667   8.577   0.808   8.087  2.0308  1.3861 -0.3437
11259SOL     OW36668   4.258   1.878   8.851  0.2117 -0.0735  0.1823
11259SOL    HW136669   4.338   1.841   8.888 -0.4900 -0.6149  1.2213
11259SOL    HW236670   4.187   1.832   8.897 -0.7037  2.2806  1.2983
11260SOL     OW36671   7.978   4.976   2.003 -0.0061  0.2637 -0.6946
11260SOL    HW136672   7.938   4.896   1.969  0.1685 -0.2454  0.2560
11260SOL    HW236673   7.941   4.987   2.090  0.8556  0.5665 -0.3477
11261SOL     OW36674   8.529   7.800   7.092  0.3900 -0.0629 -0.3586
11261SOL    HW136675   8.535   7.786   7.186 -0.8953 -0.7753 -0.3558
11261SOL    HW236676   8.614   7.838   7.067  0.4585  0.8720  1.1915
11262SOL     OW36677   1.615   8.292   6.347 -0.1694  0.5449  0.1792
11262SOL    HW136678   1.590   8.373   6.391  1.1233 -0.1134  2.2688
11262SOL    HW236679   1.604   8.224   6.413  0.8235 -0.6695 -0.8477
11263SOL     OW36680   0.384   7.506   1.633  0.5219 -0.1951  0.2483
11263SOL    HW136681   0.330   7.553   1.569 -0.6153 -0.1698  1.1902
11263SOL    HW236682   0.417   7.430   1.586 -0.2028 -0.1123 -0.4086
11264SOL     OW36683   0.732   1.311   0.724 -0.1360 -0.3259 -0.1660
11264SOL    HW136684   0.702   1.240   0.668  0.4836  0.3410 -1.3906
11264SOL    HW236685   0.712   1.391   0.674 -0.2972  0.3288  0.9186
11265SOL     OW36686   8.911   4.350   7.712 -1.0635  0.2385 -0.1578
11265SOL    HW136687   8.889   4.433   7.669 -1.1070  0.0366 -0.5247
11265SOL    HW236688   8.867   4.283   7.660  0.0896 -0.1368 -0.6795
11266SOL     OW36689   9.392   3.514   2.037 -0.4055 -0.3111 -0.4245
11266SOL    HW136690   9.373   3.437   1.983  0.8736 -2.1342  1.5454
11266SOL    HW236691   9.452   3.482   2.104 -0.7949  2.1553  1.2495
11267SOL     OW36692   8.259   3.588   1.307 -1.0386 -0.2162  0.2397
11267SOL    HW136693   8.211   3.536   1.243 -1.3168  0.8905 -0.4730
11267SOL    HW236694   8.193   3.641   1.350 -0.6770  0.0073  0.5272
11268SOL     OW36695   5.121   9.089   7.364 -0.4488  0.2369  0.3043
11268SOL    HW136696   5.158   9.014   7.317  0.8527  0.8514  0.2967
11268SOL    HW236697   5.175   9.164   7.336  0.3179  0.6510  2.6665
11269SOL     OW36698   8.669   2.826   6.895  0.1514 -0.4311  0.2307
11269SOL    HW136699   8.663   2.731   6.900 -0.6646 -0.3559  1.1766
11269SOL    HW236700   8.734   2.850   6.960  2.1013 -0.4548 -1.6102
11270SOL     OW36701   3.098   3.853   6.308  0.1129 -0.1851  0.0516
11270SOL    HW136702   3.149   3.915   6.360  0.1756  0.0668 -0.3076
11270SOL    HW236703   3.125   3.767   6.339  0.4272 -0.0429  0.1702
11271SOL     OW36704   3.235   5.432   1.851 -0.1212  0.3288 -0.9331
11271SOL    HW136705   3.314   5.463   1.895  0.4244 -1.3967 -0.6339
11271SOL    HW236706   3.237   5.337   1.862 -2.4977  0.2772 -0.5182
11272SOL     OW36707   0.552   0.710   4.313 -0.4453 -0.7069  0.2527
11272SOL    HW136708   0.501   0.630   4.320  0.3168 -1.0794  2.2450
11272SOL    HW236709   0.632   0.684   4.267 -1.3526 -0.4327 -1.5775
11273SOL     OW36710   0.649   2.535   3.008 -0.6217  0.4952 -0.3360
11273SOL    HW136711   0.725   2.509   2.955 -0.9117 -1.4151  0.1095
11273SOL    HW236712   0.630   2.458   3.061 -0.3225  2.3316  2.6426
11274SOL     OW36713   1.894   6.064   5.991 -0.1546  0.2504 -0.2185
11274SOL    HW136714   1.940   6.106   5.919  1.3500  1.6735  1.4585
11274SOL    HW236715   1.857   6.136   6.042 -0.8617 -0.6787  0.6418
11275SOL     OW36716   7.761   0.908   8.260  0.0955  0.2251  0.5370
11275SOL    HW136717   7.813   0.887   8.183 -0.3685  0.6169  0.1115
11275SOL    HW236718   7.825   0.937   8.325  0.3298  1.9683 -0.4027
11276SOL     OW36719   9.346   4.307   6.766 -0.0419  0.1589 -0.3436
11276SOL    HW136720   9.415   4.271   6.822  0.7965  1.5556 -0.4295
11276SOL    HW236721   9.330   4.395   6.800 -0.2855  0.6306 -1.6134
11277SOL     OW36722   3.014   6.233   3.520  0.0590 -0.5426 -0.2400
11277SOL    HW136723   3.076   6.305   3.533 -0.6329  0.1266 -0.5473
11277SOL    HW236724   2.960   6.233   3.599  1.2528 -1.9681  0.6191
11278SOL     OW36725   4.678   3.724   6.396  1.0634  0.3158  0.1536
11278SOL    HW136726   4.627   3.705   6.317  0.5326 -0.9412  0.7712
11278SOL    HW236727   4.768   3.732   6.365  0.8254  0.1041 -0.6177
11279SOL     OW36728   1.283   0.833   5.641 -0.0546  0.0085  0.8491
11279SOL    HW136729   1.357   0.883   5.677 -0.1299  0.0360  0.9677
11279SOL    HW236730   1.285   0.750   5.690  0.2974 -0.2580  0.3932
11280SOL     OW36731   0.263   1.517   5.424 -0.0245 -0.0065  0.2868
11280SOL    HW136732   0.174   1.493   5.450  0.3304 -1.1966  0.4729
11280SOL    HW236733   0.270   1.487   5.333  0.8676 -1.9877  0.9420
11281SOL     OW36734   4.154   9.024   5.760  0.0065  0.0034 -0.0025
11281SOL    HW136735   4.171   8.945   5.708 -0.6920  0.4623 -0.9660
11281SOL    HW236736   4.234   9.038   5.810  0.6425 -0.5657 -0.8372
11282SOL     OW36737   8.016   5.474   1.916  0.3138  0.2225  0.2240
11282SOL    HW136738   8.000   5.506   1.827 -0.3118 -0.8711 -0.0721
11282SOL    HW236739   8.087   5.411   1.905 -1.5935 -2.0035  0.0158
11283SOL     OW36740   2.792   4.782   2.647 -0.3407  0.3725 -0.2767
11283SOL    HW136741   2.809   4.736   2.729  0.5136 -0.4648 -0.8946
11283SOL    HW236742   2.710   4.828   2.661  0.1355  0.8111  1.2869
11284SOL     OW36743   7.240   9.301   0.921  0.2933  0.7443  0.6306
11284SOL    HW136744   7.200   9.299   1.008 -0.5204 -1.0076  0.2625
11284SOL    HW236745   7.311   9.237   0.926  0.1794  0.5592  0.0030
11285SOL     OW36746   7.549   6.980   5.364 -0.0755  0.0053  0.5821
11285SOL    HW136747   7.528   6.978   5.270 -0.9417 -1.5540  0.7851
11285SOL    HW236748   7.609   6.907   5.377 -1.5751 -1.1006  1.5843
11286SOL     OW36749   3.848   4.260   4.212  0.4461 -0.0110 -0.0472
11286SOL    HW136750   3.836   4.345   4.255 -0.6645 -1.1331  2.0249
11286SOL    HW236751   3.940   4.240   4.224  0.6097  0.6818 -0.1112
11287SOL     OW36752   8.326   5.908   6.056  0.4063 -0.0752 -0.3813
11287SOL    HW136753   8.262   5.884   5.988 -0.1459  1.0737 -0.2820
11287SOL    HW236754   8.405   5.931   6.008 -0.0043  0.8039 -0.6546
11288SOL     OW36755   0.213   4.041   7.346  0.0996  0.2565 -0.4059
11288SOL    HW136756   0.265   3.982   7.291  0.1498 -0.8903  0.8159
11288SOL    HW236757   0.259   4.125   7.341  0.0732  0.2106 -2.1238
11289SOL     OW36758   0.695   5.276   3.669 -0.0438  0.2597  0.1888
11289SOL    HW136759   0.692   5.371   3.660 -1.7286  0.0981 -1.3805
11289SOL    HW236760   0.777   5.250   3.626  0.4754  0.9869  0.7204
11290SOL     OW36761   6.995   3.083   5.149 -0.2221  0.0381 -0.1254
11290SOL    HW136762   6.927   3.101   5.084  1.0050  0.3581 -1.3736
11290SOL    HW236763   6.957   3.112   5.232 -1.2816  1.0142 -0.9130
11291SOL     OW36764   4.565   1.197   5.488 -0.0109  0.4559  0.7616
11291SOL    HW136765   4.479   1.237   5.497 -0.5270 -0.5761  0.6106
11291SOL    HW236766   4.573   1.180   5.394  0.6951  1.2481  0.6700
11292SOL     OW36767   6.602   0.845   5.884  0.2704 -0.4869 -0.0243
11292SOL    HW136768   6.582   0.771   5.940  0.6534 -0.4104  0.2137
11292SOL    HW236769   6.521   0.860   5.835 -0.3520  0.0074  1.1346
11293SOL     OW36770   9.574   4.140   5.018  0.3507  0.5224  0.2332
11293SOL    HW136771   9.613   4.066   5.064 -2.1983  0.1346  1.9329
11293SOL    HW236772   9.587   4.214   5.077  1.5395  1.1758 -0.7854
11294SOL     OW36773   7.786   7.483   6.068 -0.0650  0.1280 -0.3163
11294SOL    HW136774   7.797   7.505   6.160 -0.4651 -0.6994 -0.0561
11294SOL    HW236775   7.854   7.419   6.050  0.0247  0.3024 -0.5986
11295SOL     OW36776   2.109   6.258   3.331 -0.2046 -0.5762 -0.3353
11295SOL    HW136777   2.096   6.182   3.388 -0.2476  0.0181  0.4634
11295SOL    HW236778   2.059   6.329   3.373 -1.0451 -0.3656 -1.6322
11296SOL     OW36779   2.274   5.343   1.142 -0.6249  0.0512  0.1292
11296SOL    HW136780   2.206   5.284   1.174  0.8532 -2.4662 -1.1186
11296SOL    HW236781   2.352   5.319   1.191  0.3485 -0.0308 -1.4090
11297SOL     OW36782   0.233   9.186   5.243  0.4044 -0.4260  0.4046
11297SOL    HW136783   0.287   9.179   5.322 -0.4896  0.0103  1.0791
11297SOL    HW236784   0.284   9.240   5.183  0.6773  0.0678  1.0726
11298SOL     OW36785   0.522   8.459   1.558  0.3442  0.3594  0.3011
11298SOL    HW136786   0.478   8.391   1.508  1.2199  0.6556 -0.9103
11298SOL    HW236787   0.614   8.450   1.536  0.6572  1.0151  1.2551
11299SOL     OW36788   1.440   5.215   1.518  0.4080  0.1410 -0.3558
11299SOL    HW136789   1.451   5.120   1.528 -0.3541  0.1524  0.7448
11299SOL    HW236790   1.445   5.249   1.607 -1.5737  0.8765 -0.4787
11300SOL     OW36791   6.747   7.754   4.862 -0.0933  0.2511  0.5015
11300SOL    HW136792   6.719   7.815   4.931 -1.2609  0.4719 -0.1431
11300SOL    HW236793   6.725   7.667   4.897 -0.4376  0.3443  0.5207
11301SOL     OW36794   8.038   0.830   6.793  0.0894  0.1026  0.4668
11301SOL    HW136795   8.116   0.871   6.757 -0.7018  0.4698 -0.8926
11301SOL    HW236796   7.977   0.902   6.808  0.9976  0.2760  4.4586
11302SOL     OW36797   3.188   0.435   5.284 -0.0678  0.1373  0.0494
11302SOL    HW136798   3.223   0.366   5.340 -0.3861  0.9147  1.2316
11302SOL    HW236799   3.238   0.513   5.307 -0.3904  0.5351 -0.5596
11303SOL     OW36800   3.714   5.906   1.742  0.5450  0.1403 -0.0231
11303SOL    HW136801   3.644   5.951   1.694  0.6107 -0.4738 -0.7130
11303SOL    HW236802   3.794   5.931   1.696  0.7560  0.6148  0.5912
11304SOL     OW36803   2.721   1.464   6.516  0.3299 -0.3505 -0.0413
11304SOL    HW136804   2.744   1.557   6.512  0.5217 -0.4092 -0.3567
11304SOL    HW236805   2.799   1.420   6.550  0.4752 -0.4737 -0.5221
11305SOL     OW36806   6.643   2.470   3.978  0.8422  0.1422  0.0579
11305SOL    HW136807   6.611   2.412   4.047 -1.5715  0.5578 -0.6333
11305SOL    HW236808   6.727   2.432   3.952  0.1103 -2.1098  0.7431
11306SOL     OW36809   8.404   3.354   9.637  0.1716  0.1718  0.1531
11306SOL    HW136810   8.411   3.390   9.548  1.2983 -0.5657 -0.0668
11306SOL    HW236811   8.336   3.287   9.630 -0.4676  0.8112  0.0935
11307SOL     OW36812   3.379   3.241   1.369  0.2236  0.0728 -0.4205
11307SOL    HW136813   3.307   3.285   1.324 -1.0978 -0.6322  0.9107
11307SOL    HW236814   3.427   3.196   1.300 -1.0436 -0.0419 -1.2600
11308SOL     OW36815   0.177   1.102   5.846  0.2363 -0.3520  0.2365
11308SOL    HW136816   0.207   1.012   5.855  0.3465 -0.2844  0.5481
11308SOL    HW236817   0.086   1.094   5.816  0.6672 -0.5542 -1.0860
11309SOL     OW36818   7.200   6.017   2.374  0.3095  0.0141 -0.0671
11309SOL    HW136819   7.176   6.108   2.358  1.4321  0.0426 -1.9222
11309SOL    HW236820   7.288   6.008   2.338  0.6974 -1.5191  1.1671
11310SOL     OW36821   6.459   3.018   1.103 -0.0742  0.0595  0.6440
11310SOL    HW136822   6.430   2.935   1.141 -1.5357  1.4719  2.8568
11310SOL    HW236823   6.384   3.048   1.052 -0.0313  0.5829  0.8781
11311SOL     OW36824   3.266   7.722   6.000  0.4923  0.3293 -0.3449
11311SOL    HW136825   3.223   7.803   5.973  1.6132  0.2292 -2.7140
11311SOL    HW236826   3.330   7.749   6.066 -0.9231  0.9304  0.8407
11312SOL     OW36827   1.037   7.348   2.303 -0.0295 -0.2128  0.0672
11312SOL    HW136828   0.985   7.357   2.223  0.9584  2.6434 -0.3734
11312SOL    HW236829   0.971   7.339   2.373 -1.1074  1.3539 -0.6782
11313SOL     OW36830   4.464   0.443   4.275  0.6776  0.0403  0.4707
11313SOL    HW136831   4.410   0.374   4.313  1.3377  0.3938  2.1438
11313SOL    HW236832   4.466   0.512   4.342  0.8100  1.2817 -0.7674
11314SOL     OW36833   0.476   4.547   7.960  0.3264  0.3947 -0.0956
11314SOL    HW136834   0.451   4.501   7.879  0.7906 -1.0719  0.5570
11314SOL    HW236835   0.568   4.523   7.973  0.0209 -0.0573  1.3013
11315SOL     OW36836   6.555   0.295   4.112  0.2682 -0.1972 -0.1400
11315SOL    HW136837   6.501   0.220   4.090  1.6709 -0.7998 -1.7129
11315SOL    HW236838   6.492   0.366   4.129 -1.1066 -1.7705  1.8856
11316SOL     OW36839   7.392   4.282   6.457 -0.7883  0.4713 -0.0586
11316SOL    HW136840   7.383   4.373   6.485 -0.4541  0.6121 -0.4015
11316SOL    HW236841   7.343   4.232   6.522 -2.2265  1.0239 -0.6929
11317SOL     OW36842   8.369   7.882   3.000 -0.5810  0.0733  0.1019
11317SOL    HW136843   8.430   7.831   2.947 -1.0060 -1.7944  1.3149
11317SOL    HW236844   8.283   7.847   2.978 -0.8175 -0.3047  1.5289
11318SOL     OW36845   8.613   0.854   6.147 -0.2859 -0.3948  0.1760
11318SOL    HW136846   8.692   0.802   6.136 -0.4446 -0.8439  1.1201
11318SOL    HW236847   8.587   0.841   6.238 -0.7026  0.8147  0.2486
11319SOL     OW36848   2.780   4.521   0.504  0.1213 -0.0988 -0.1621
11319SOL    HW136849   2.815   4.587   0.564  0.8543 -0.6512  0.0314
11319SOL    HW236850   2.735   4.572   0.436 -1.2540  0.5206  1.1573
11320SOL     OW36851   5.197   9.434   3.185  0.0906 -0.1814  0.3949
11320SOL    HW136852   5.146   9.405   3.261 -1.2349  0.3377 -0.2506
11320SOL    HW236853   5.135   9.429   3.112  0.5887  1.6269 -0.2130
11321SOL     OW36854   9.175   1.859   2.507  0.1845  0.0632 -0.0522
11321SOL    HW136855   9.246   1.894   2.563 -0.1483  0.1042  0.3541
11321SOL    HW236856   9.156   1.773   2.544  0.0022  0.0643 -0.1455
11322SOL     OW36857   5.479   3.160   6.833  0.3026  0.1679 -0.2019
11322SOL    HW136858   5.397   3.132   6.792 -1.6672  0.4953  3.1278
11322SOL    HW236859   5.514   3.080   6.873  1.6801  0.0292 -1.6003
11323SOL     OW36860   3.477   0.668   6.247 -0.6391  0.2096 -0.0132
11323SOL    HW136861   3.458   0.634   6.335  0.1209 -0.7418 -0.1937
11323SOL    HW236862   3.533   0.745   6.263 -0.2539 -0.1377  0.3369
11324SOL     OW36863   3.141   8.792   4.658  0.4282 -0.0032 -0.4189
11324SOL    HW136864   3.134   8.882   4.691 -0.2532 -0.0885 -0.3104
11324SOL    HW236865   3.065   8.747   4.696  0.7313 -0.6114 -0.5200
11325SOL     OW36866   7.424   6.429   1.192 -0.1775 -0.2044 -0.6339
11325SOL    HW136867   7.467   6.507   1.156  0.5773 -0.0536  0.5424
11325SOL    HW236868   7.405   6.452   1.282 -0.7410 -1.0807 -0.5169
11326SOL     OW36869   4.853   7.643   1.978 -0.2646 -0.3159  0.0959
11326SOL    HW136870   4.816   7.657   2.065 -0.8774  4.1420 -0.6919
11326SOL    HW236871   4.945   7.667   1.987  0.5659 -3.1320  0.1241
11327SOL     OW36872   7.966   3.995   2.926 -0.0678 -0.8073  0.0166
11327SOL    HW136873   8.054   3.967   2.902  0.1654 -0.7949  0.8345
11327SOL    HW236874   7.909   3.949   2.864  0.5838  0.2203 -1.3828
11328SOL     OW36875   3.379   3.456   2.252  0.2457  0.6362 -0.2014
11328SOL    HW136876   3.389   3.424   2.162 -1.3339 -2.4093  0.5572
11328SOL    HW236877   3.287   3.438   2.273  1.2764 -1.7527  2.9795
11329SOL     OW36878   1.071   8.175   1.695  0.6309  0.2037  0.1887
11329SOL    HW136879   0.979   8.163   1.670 -0.2183  0.3960  2.9545
11329SOL    HW236880   1.082   8.119   1.772  3.0413 -0.2843 -0.4295
11330SOL     OW36881   3.035   5.562   4.345  0.3771 -0.1068 -0.1946
11330SOL    HW136882   2.984   5.642   4.333  0.1602 -0.1719  0.2505
11330SOL    HW236883   3.087   5.554   4.265  2.5300  2.0043  0.8667
11331SOL     OW36884   1.012   2.588   7.210  0.2267  0.0549  0.0605
11331SOL    HW136885   0.932   2.637   7.193 -0.5791 -1.4320 -0.6356
11331SOL    HW236886   0.987   2.496   7.201  2.2672 -0.4341 -1.3408
11332SOL     OW36887   5.083   0.947   0.672  0.1773 -0.4189 -0.3543
11332SOL    HW136888   5.102   1.033   0.710 -0.4737 -0.3016 -0.2794
11332SOL    HW236889   4.991   0.931   0.695 -0.8501  0.4623 -3.3645
11333SOL     OW36890   2.223   2.232   4.050 -0.2618 -0.1271  0.3442
11333SOL    HW136891   2.282   2.307   4.056  2.1091 -1.9226  1.0034
11333SOL    HW236892   2.192   2.233   3.959 -1.1292  2.1601  0.5950
11334SOL     OW36893   0.879   8.727   9.063  0.0708  0.5064  0.0159
11334SOL    HW136894   0.861   8.714   8.970 -1.0520 -0.7569  0.3903
11334SOL    HW236895   0.974   8.718   9.070  0.1387  0.3189 -0.9518
11335SOL     OW36896   2.930   0.241   5.249  0.2015  0.1365  0.1516
11335SOL    HW136897   2.837   0.231   5.268  0.2635  0.2907  0.5498
11335SOL    HW236898   2.969   0.159   5.278  0.2427  0.2210  0.3355
11336SOL     OW36899   9.362   3.324   4.497  0.2215  0.4095  0.1486
11336SOL    HW136900   9.331   3.404   4.538 -0.1939 -0.4116  1.5224
11336SOL    HW236901   9.447   3.308   4.539  0.0388 -0.1541  0.3163
11337SOL     OW36902   4.025   4.091   4.516  0.6818 -0.3334  0.5925
11337SOL    HW136903   3.957   4.135   4.566  0.8303  0.4660  0.0932
11337SOL    HW236904   4.097   4.080   4.578  0.3600 -0.5736  0.9294
11338SOL     OW36905   9.434   0.954   5.420  0.0382 -0.1080 -0.2575
11338SOL    HW136906   9.510   0.897   5.425 -0.9671 -1.4331  0.5880
11338SOL    HW236907   9.394   0.934   5.336  0.0737 -0.1383 -0.2673
11339SOL     OW36908   4.250   9.326   3.698 -0.2972  0.1298 -0.3650
11339SOL    HW136909   4.234   9.238   3.733 -0.6509  0.7169  1.0095
11339SOL    HW236910   4.168   9.373   3.715  0.0218  0.8258 -0.7549
11340SOL     OW36911   3.205   4.269   6.206  0.9608  0.2223 -0.4352
11340SOL    HW136912   3.173   4.354   6.178  1.5846  1.9383  3.4227
11340SOL    HW236913   3.125   4.218   6.223  0.5381  0.7319 -0.8415
11341SOL     OW36914   0.155   1.639   4.163  0.4763  0.2957  0.4361
11341SOL    HW136915   0.210   1.560   4.170 -0.4685 -0.5563 -1.1752
11341SOL    HW236916   0.160   1.679   4.250  1.6474 -1.0836  1.0554
11342SOL     OW36917   8.662   8.125   2.679 -0.1274  0.1466  0.1848
11342SOL    HW136918   8.658   8.162   2.591  1.1984 -1.1696 -0.4844
11342SOL    HW236919   8.728   8.178   2.724  0.1410  0.0196 -0.0521
11343SOL     OW36920   4.473   1.084   6.564 -0.2318  0.1977 -0.2901
11343SOL    HW136921   4.426   1.012   6.522 -1.8460 -0.1441  1.9633
11343SOL    HW236922   4.468   1.156   6.500 -0.1700 -1.0779 -1.8020
11344SOL     OW36923   1.901   9.301   4.848 -0.1051 -0.1523  0.5585
11344SOL    HW136924   1.873   9.325   4.936  0.6761  1.6021  0.3586
11344SOL    HW236925   1.848   9.355   4.790  0.1112 -0.5437 -0.0190
11345SOL     OW36926   4.574   5.032   6.438  0.7416  0.3779 -0.1847
11345SOL    HW136927   4.670   5.028   6.437  0.7198 -0.1484 -0.6116
11345SOL    HW236928   4.547   4.941   6.453  0.3150  0.6472  0.7430
11346SOL     OW36929   7.260   1.620   2.922  0.2511  0.0284  0.3055
11346SOL    HW136930   7.188   1.630   2.984  1.8756 -0.8557  2.4736
11346SOL    HW236931   7.324   1.686   2.948  1.5184 -1.2088  0.4843
11347SOL     OW36932   8.717   6.431   0.472  0.1734  0.0616  0.4498
11347SOL    HW136933   8.759   6.353   0.437  0.7252 -0.0632  1.3662
11347SOL    HW236934   8.719   6.494   0.400 -0.9525 -0.9894 -0.5590
11348SOL     OW36935   7.266   8.449   7.829  0.0917  0.4277 -0.4585
11348SOL    HW136936   7.308   8.535   7.830 -0.7832  0.8735 -0.8716
11348SOL    HW236937   7.333   8.390   7.795  0.4884  1.0653 -0.8049
11349SOL     OW36938   0.342   0.411   4.653  0.6176 -0.2844  0.1916
11349SOL    HW136939   0.421   0.463   4.670 -1.0222  2.2031  0.6601
11349SOL    HW236940   0.372   0.320   4.658  3.3484  0.5509  0.7815
11350SOL     OW36941   0.329   1.060   0.744  0.2318 -0.1644  0.1788
11350SOL    HW136942   0.314   0.990   0.680 -1.2184 -0.3466  0.6715
11350SOL    HW236943   0.353   1.014   0.825 -0.8087 -0.1367  0.5275
11351SOL     OW36944   6.716   7.024   1.526  0.0288  0.6722 -0.4443
11351SOL    HW136945   6.636   7.076   1.523 -0.8762 -0.2909  2.5714
11351SOL    HW236946   6.685   6.933   1.531  1.3526  0.1909 -0.5850
11352SOL     OW36947   4.656   1.959   9.083 -0.3338  0.2375 -0.2749
11352SOL    HW136948   4.677   1.988   8.995  0.1774  2.2502  0.4440
11352SOL    HW236949   4.729   1.903   9.109 -0.1802  0.1488 -0.9004
11353SOL     OW36950   1.707   2.312   1.300  0.2605 -0.0131  0.2341
11353SOL    HW136951   1.773   2.382   1.308  0.2661  0.0286 -0.1610
11353SOL    HW236952   1.625   2.359   1.284  0.4320 -0.1204 -1.0940
11354SOL     OW36953   7.291   4.899   7.232 -0.5116 -0.0201 -0.3026
11354SOL    HW136954   7.226   4.909   7.302 -0.1237  0.0076  0.0583
11354SOL    HW236955   7.373   4.930   7.271 -0.2949  0.0140 -0.7780
11355SOL     OW36956   3.629   2.796   3.466 -0.1093 -0.3650 -0.3680
11355SOL    HW136957   3.684   2.721   3.445  0.4552 -0.0047 -0.1855
11355SOL    HW236958   3.664   2.867   3.412 -1.7553 -0.6466 -1.9191
11356SOL     OW36959   5.055   4.998   0.855 -0.4875 -0.1769 -0.0170
11356SOL    HW136960   4.975   4.947   0.865 -0.4350 -0.2967 -0.1933
11356SOL    HW236961   5.043   5.046   0.773 -0.7280  0.4507  0.3861
11357SOL     OW36962   0.414   0.621   9.387 -0.2734  0.3262 -0.4796
11357SOL    HW136963   0.460   0.545   9.423 -0.6578  0.0925 -0.4756
11357SOL    HW236964   0.460   0.641   9.306  0.7293  0.9792  0.2272
11358SOL     OW36965   1.820   2.130   5.739 -0.4987 -0.4892 -0.3219
11358SOL    HW136966   1.866   2.046   5.741  1.1824  0.3505 -1.5886
11358SOL    HW236967   1.783   2.135   5.651  2.6874  1.6761 -1.7241
11359SOL     OW36968   5.444   6.838   5.980  0.2199 -0.1051 -0.0531
11359SOL    HW136969   5.432   6.743   5.989  0.0768 -0.0130  0.8583
11359SOL    HW236970   5.530   6.848   5.941  1.4931 -0.5826  2.3998
11360SOL     OW36971   6.508   6.663   9.628 -0.1751 -0.1354 -0.0514
11360SOL    HW136972   6.575   6.633   9.566 -0.2786 -0.7780  0.1439
11360SOL    HW236973   6.525   6.757   9.637 -0.0609 -0.0616 -0.9303
11361SOL     OW36974   1.280   3.189   3.348 -0.3703  0.0874 -0.6256
11361SOL    HW136975   1.354   3.202   3.407 -0.5022 -0.0323 -0.4313
11361SOL    HW236976   1.219   3.259   3.370 -0.5235 -0.0976 -0.4559
11362SOL     OW36977   8.030   8.490   9.016  0.0025 -0.5710  0.1702
11362SOL    HW136978   8.088   8.416   9.003 -1.2723 -1.6091  0.1140
11362SOL    HW236979   7.994   8.508   8.929 -0.0841 -0.2308  0.2762
11363SOL     OW36980   0.944   6.229   6.220 -0.4763 -0.2356 -0.1418
11363SOL    HW136981   0.989   6.314   6.216 -0.0208 -0.5163 -1.6625
11363SOL    HW236982   0.948   6.204   6.313  1.7307  0.1741 -0.0683
11364SOL     OW36983   7.440   4.623   0.043 -0.4633  0.2701 -0.7454
11364SOL    HW136984   7.372   4.645   0.107  1.0253  1.0081  0.6519
11364SOL    HW236985   7.475   4.708   0.015 -1.1758 -0.0178 -2.7288
11365SOL     OW36986   0.785   0.420   1.825  0.0833 -0.2962 -0.1156
11365SOL    HW136987   0.785   0.515   1.811  1.7989 -0.3662 -0.8195
11365SOL    HW236988   0.711   0.388   1.774  1.1001  0.4097 -2.1627
11366SOL     OW36989   6.427   3.326   8.370  0.4934 -0.4942  0.0387
11366SOL    HW136990   6.408   3.237   8.341  0.7975 -0.9848  1.2734
11366SOL    HW236991   6.361   3.343   8.438  1.2097 -0.2554  0.6811
11367SOL     OW36992   4.709   5.370   6.392  0.0627 -0.4114  0.2664
11367SOL    HW136993   4.628   5.358   6.442  1.1020 -3.1319  1.4582
11367SOL    HW236994   4.779   5.348   6.453  1.5619 -0.7470 -1.4969
11368SOL     OW36995   1.056   7.215   3.100  0.7261 -0.0897 -0.2409
11368SOL    HW136996   1.060   7.311   3.093 -0.3838 -0.1047 -1.7122
11368SOL    HW236997   1.097   7.195   3.183  0.9092  1.6848  0.1372
11369SOL     OW36998   5.918   3.167   6.297  0.0372 -0.5091  0.0544
11369SOL    HW136999   5.907   3.074   6.316  0.1487  0.0945  3.8083
11369SOL    HW237000   5.976   3.168   6.221  0.3904 -3.5119  0.1322
11370SOL     OW37001   1.165   8.552   8.604  0.0568  0.2283  0.3905
11370SOL    HW137002   1.180   8.611   8.679 -1.3796  0.5861  0.4400
11370SOL    HW237003   1.075   8.571   8.577  0.2943 -0.4424 -0.9625
11371SOL     OW37004   3.846   7.208   7.406  0.2739 -0.6417  0.4703
11371SOL    HW137005   3.751   7.194   7.397  0.2552  0.7393 -2.5051
11371SOL    HW237006   3.858   7.230   7.499 -1.9708 -2.8183  1.4117
11372SOL     OW37007   9.505   6.234   4.838  0.2125 -0.0302 -0.1428
11372SOL    HW137008   9.474   6.292   4.907 -1.8762 -0.9723 -0.2005
11372SOL    HW237009   9.599   6.227   4.851 -0.0278  0.4428  2.1159
11373SOL     OW37010   2.138   9.550   2.556 -0.1667 -0.3023  0.3302
11373SOL    HW137011   2.083   9.528   2.631  0.8662  0.0088  1.2171
11373SOL    HW237012   2.094   9.511   2.481 -1.4986 -0.1720  1.0272
11374SOL     OW37013   8.401   6.115   4.191  0.3281  0.2676  0.6467
11374SOL    HW137014   8.345   6.058   4.243 -0.1691  0.6461  0.5266
11374SOL    HW237015   8.358   6.200   4.193  0.3393  0.3106 -0.3162
11375SOL     OW37016   2.954   8.194   9.537  0.4168 -0.0826  0.5569
11375SOL    HW137017   3.023   8.231   9.592  2.6456 -1.5003 -1.1069
11375SOL    HW237018   2.935   8.109   9.577  0.6134 -0.2676  0.2586
11376SOL     OW37019   0.175   2.193   0.279  0.0331  0.2361 -0.8082
11376SOL    HW137020   0.228   2.272   0.294  1.0862 -0.4762 -0.6621
11376SOL    HW237021   0.221   2.124   0.326 -2.6617  0.1150  1.9391
11377SOL     OW37022   2.530   0.486   1.318  0.2644  0.0842  0.7056
11377SOL    HW137023   2.532   0.453   1.408 -0.3774  2.0860  1.5151
11377SOL    HW237024   2.563   0.576   1.325 -0.8808  0.6684 -0.8475
11378SOL     OW37025   7.322   7.165   0.792  0.3116 -0.2593 -0.3014
11378SOL    HW137026   7.396   7.105   0.793  0.3681 -0.1822  0.3898
11378SOL    HW237027   7.310   7.187   0.699  0.1283 -1.5123 -0.5911
11379SOL     OW37028   7.502   8.229   4.705 -0.0708  0.0122 -0.1553
11379SOL    HW137029   7.467   8.267   4.624 -0.8568 -0.0877  0.1361
11379SOL    HW237030   7.473   8.288   4.774  2.8785  1.6632 -0.1529
11380SOL     OW37031   5.452   4.716   1.068 -0.2733  0.5530 -0.3608
11380SOL    HW137032   5.406   4.781   1.014  0.9661 -0.1664 -2.3772
11380SOL    HW237033   5.467   4.761   1.151 -1.2309  2.1177 -0.9800
11381SOL     OW37034   7.657   8.762   4.397 -0.4046 -0.3637 -0.1383
11381SOL    HW137035   7.690   8.794   4.313 -0.7727  0.0130 -0.1446
11381SOL    HW237036   7.675   8.833   4.458 -2.0042  0.2529 -0.3248
11382SOL     OW37037   4.534   7.240   1.423 -0.0708 -0.2538 -0.0612
11382SOL    HW137038   4.515   7.290   1.502  0.3241 -0.9137  0.4616
11382SOL    HW237039   4.476   7.277   1.356  0.8931  1.5386  0.0469
11383SOL     OW37040   2.170   3.763   3.469 -0.6833  0.6258 -0.0920
11383SOL    HW137041   2.111   3.825   3.427 -0.8760  0.1903 -0.4705
11383SOL    HW237042   2.240   3.749   3.405  0.2624  1.7413  0.6605
11384SOL     OW37043   3.857   1.081   7.267  0.3242 -0.1712 -0.0180
11384SOL    HW137044   3.763   1.081   7.248  0.5380 -0.7903 -1.1634
11384SOL    HW237045   3.862   1.079   7.363 -0.8169  0.4924  0.0772
11385SOL     OW37046   2.779   3.215   5.737  0.1093  0.1949 -0.3540
11385SOL    HW137047   2.800   3.176   5.652  0.7026  1.4775 -0.8237
11385SOL    HW237048   2.712   3.157   5.774  0.7492 -1.0782 -1.1302
11386SOL     OW37049   0.610   9.626   4.860  0.1190 -0.4238 -0.1623
11386SOL    HW137050   0.544   9.608   4.927  0.1828  0.4800  0.1603
11386SOL    HW237051   0.614   9.546   4.808 -2.4114  0.0402 -1.2052
11387SOL     OW37052   4.972   2.842   4.052 -0.8540  0.0558 -0.2569
11387SOL    HW137053   5.004   2.904   4.117  0.4726 -0.1160 -0.7177
11387SOL    HW237054   4.912   2.785   4.100  0.2198 -0.1702  0.8498
11388SOL     OW37055   1.842   7.942   4.953 -0.6792 -0.2065 -0.0300
11388SOL    HW137056   1.814   8.014   5.010  0.6562  0.2130  0.1286
11388SOL    HW237057   1.793   7.866   4.983 -0.6421  0.2120  1.1057
11389SOL     OW37058   8.184   8.856   4.286  0.4879 -0.1509  0.6276
11389SOL    HW137059   8.160   8.888   4.373 -1.0746 -1.1869  0.6018
11389SOL    HW237060   8.188   8.934   4.232  1.0662  0.4600  1.5245
11390SOL     OW37061   5.036   7.912   4.097 -0.1539 -0.4481 -0.8498
11390SOL    HW137062   5.020   8.006   4.087  0.5074 -0.3842 -1.3849
11390SOL    HW237063   4.995   7.871   4.021 -1.1590 -0.6836 -0.1906
11391SOL     OW37064   7.398   8.395   2.296  0.1973 -0.4748  0.0789
11391SOL    HW137065   7.370   8.326   2.356 -1.0270 -2.2219 -2.3519
11391SOL    HW237066   7.319   8.446   2.279  0.8209  0.8224  0.8779
11392SOL     OW37067   3.980   6.878   6.716 -0.0636  0.9322 -0.0101
11392SOL    HW137068   4.017   6.854   6.801 -0.6720  0.7590  0.2101
11392SOL    HW237069   3.893   6.913   6.736  0.6589  3.0436 -0.3589
11393SOL     OW37070   6.523   6.490   3.726 -0.0996 -0.4294 -0.1634
11393SOL    HW137071   6.460   6.505   3.655 -0.3578 -0.5855  0.0301
11393SOL    HW237072   6.480   6.524   3.804 -0.0160 -0.6948  0.0012
11394SOL     OW37073   3.428   7.598   1.227  0.2361  0.2821  0.1844
11394SOL    HW137074   3.431   7.529   1.161  0.7750  0.7166 -0.2607
11394SOL    HW237075   3.442   7.552   1.310 -0.6874 -0.2999  0.0323
11395SOL     OW37076   1.034   7.640   1.111  0.4523  0.0528 -0.2883
11395SOL    HW137077   1.003   7.632   1.021  0.8937 -0.1262 -0.4305
11395SOL    HW237078   1.075   7.726   1.114 -0.0388  0.2815 -0.1061
11396SOL     OW37079   3.258   2.526   3.479  0.1609  0.1693 -0.1589
11396SOL    HW137080   3.269   2.461   3.409  1.3171  1.0304 -0.8028
11396SOL    HW237081   3.165   2.548   3.476 -0.3493 -1.6827  0.3158
11397SOL     OW37082   6.753   6.915   1.207  0.3943 -0.2470  0.6413
11397SOL    HW137083   6.735   6.944   1.118 -0.8880  0.7694  1.1859
11397SOL    HW237084   6.845   6.938   1.222  0.7274 -0.7849 -0.5346
11398SOL     OW37085   4.399   3.962   4.462  0.7008 -0.1968  0.0160
11398SOL    HW137086   4.401   3.969   4.366 -0.8097  0.2349 -0.0060
11398SOL    HW237087   4.359   3.877   4.479 -0.0265  0.1930  0.2601
11399SOL     OW37088   2.255   7.305   5.924 -0.2811 -0.1187  0.4909
11399SOL    HW137089   2.243   7.377   5.862  0.0742 -0.6109 -0.1658
11399SOL    HW237090   2.249   7.226   5.870 -2.1144 -0.6556  1.4122
11400SOL     OW37091   8.462   5.573   7.239 -0.4652  0.7162 -0.1591
11400SOL    HW137092   8.545   5.530   7.219 -1.4127 -0.8520 -0.8464
11400SOL    HW237093   8.472   5.603   7.329  0.7321  0.2811 -0.1299
11401SOL     OW37094   5.678   1.085   1.262  0.5741  0.1477  0.4286
11401SOL    HW137095   5.641   1.006   1.301  0.9112 -0.0436  0.3700
11401SOL    HW237096   5.750   1.052   1.207  0.2184  0.4226 -0.2100
11402SOL     OW37097   8.193   7.602   7.936  0.2375  0.1956 -0.1615
11402SOL    HW137098   8.195   7.696   7.952 -0.9024  0.0779  0.8216
11402SOL    HW237099   8.196   7.594   7.841  0.9348  1.1980 -0.2363
11403SOL     OW37100   0.793   3.298   1.252  0.4244  0.2512 -0.3295
11403SOL    HW137101   0.845   3.257   1.183  0.8030 -0.6123  0.4607
11403SOL    HW237102   0.705   3.306   1.214  0.5869 -0.3765 -0.8556
11404SOL     OW37103   0.471   1.214   0.413 -0.4096  0.2608  0.0250
11404SOL    HW137104   0.425   1.144   0.366  0.0854 -0.7211  0.9627
11404SOL    HW237105   0.425   1.220   0.497  0.9507 -0.5133  0.8472
11405SOL     OW37106   6.880   8.369   7.861 -0.2103 -0.4701  0.4827
11405SOL    HW137107   6.891   8.419   7.780 -0.2766 -1.1410  0.0541
11405SOL    HW237108   6.811   8.307   7.842  0.0897 -0.9447  0.9051
11406SOL     OW37109   9.288   1.992   4.214 -0.0222 -0.8465  0.0794
11406SOL    HW137110   9.326   2.061   4.269 -3.8765  0.2615  1.6919
11406SOL    HW237111   9.287   2.030   4.126  1.2217 -0.4023  0.2308
11407SOL     OW37112   6.444   7.477   1.701 -0.7720 -0.0607  0.0694
11407SOL    HW137113   6.451   7.382   1.713 -0.0520  0.0910  0.9161
11407SOL    HW237114   6.534   7.508   1.702 -0.9740  0.5774 -0.7489
11408SOL     OW37115   3.394   5.783   2.031 -0.1526 -0.2102 -0.2710
11408SOL    HW137116   3.380   5.816   1.942 -1.1808 -0.1591 -0.1005
11408SOL    HW237117   3.424   5.859   2.081  0.1718 -0.1790 -0.5078
11409SOL     OW37118   6.217   1.961   8.610  0.4178 -0.1640 -0.0229
11409SOL    HW137119   6.164   2.010   8.672  0.4295 -1.2520  0.8802
11409SOL    HW237120   6.300   2.009   8.606  0.0919  0.4130  0.1164
11410SOL     OW37121   7.455   5.275   2.209  0.1265  0.0429  0.4154
11410SOL    HW137122   7.403   5.355   2.223 -0.9335 -0.7803  1.3230
11410SOL    HW237123   7.461   5.235   2.295  0.4181 -1.0051 -0.0777
11411SOL     OW37124   1.968   4.374   7.634  0.2590 -0.3532  0.5640
11411SOL    HW137125   2.046   4.429   7.625  0.7267 -1.1250 -0.2489
11411SOL    HW237126   1.999   4.285   7.617 -1.0873 -0.4973 -1.5275
11412SOL     OW37127   9.324   5.568   2.976  0.2269 -0.3157 -0.1627
11412SOL    HW137128   9.239   5.579   3.019  0.9449 -0.4273  1.3615
11412SOL    HW237129   9.354   5.481   3.004  0.1114 -1.0135 -2.0585
11413SOL     OW37130   5.211   0.657   8.817 -0.3183  0.8983 -0.0585
11413SOL    HW137131   5.123   0.691   8.799 -0.7124  0.7119  1.3479
11413SOL    HW237132   5.252   0.725   8.871  0.2520  0.7988 -0.3575
11414SOL     OW37133   0.123   0.259   7.566 -0.2397 -0.7063 -0.2067
11414SOL    HW137134   0.050   0.258   7.504 -0.0286 -0.2883 -0.4643
11414SOL    HW237135   0.084   0.283   7.650 -0.4915 -1.0584 -0.2209
11415SOL     OW37136   2.471   1.664   6.966 -0.3606 -0.4942 -0.6872
11415SOL    HW137137   2.503   1.600   6.902 -0.4189 -0.6182 -0.5946
11415SOL    HW237138   2.377   1.645   6.973  0.1286 -2.6539  1.8056
11416SOL     OW37139   9.132   8.689   6.571 -0.1942  0.0249  0.3806
11416SOL    HW137140   9.150   8.783   6.582 -1.7415  0.3532  0.2364
11416SOL    HW237141   9.162   8.669   6.483  3.0918 -0.3901  1.4263
11417SOL     OW37142   7.947   7.642   8.635  0.1773  0.4367  0.1394
11417SOL    HW137143   7.859   7.669   8.608 -0.4215 -1.2769  0.2061
11417SOL    HW237144   7.977   7.584   8.564  0.3770 -0.6279  1.0582
11418SOL     OW37145   2.561   4.091   5.960 -0.2917  0.0865  0.6245
11418SOL    HW137146   2.638   4.066   6.011 -0.9100 -1.8831  0.6697
11418SOL    HW237147   2.595   4.147   5.890  1.3461 -1.4895  0.0847
11419SOL     OW37148   3.131   2.212   7.575  0.2490 -0.5976 -0.0457
11419SOL    HW137149   3.133   2.304   7.601  1.3762 -0.7176  0.3125
11419SOL    HW237150   3.181   2.166   7.643  0.0152 -1.4293 -0.4192
11420SOL     OW37151   0.673   1.621   7.949 -0.1698  0.2051  0.2022
11420SOL    HW137152   0.621   1.585   7.876 -2.5555 -0.4076  2.0781
11420SOL    HW237153   0.754   1.569   7.948 -0.7182 -0.7071 -1.1825
11421SOL     OW37154   2.706   5.024   7.015  0.5893 -0.0600  0.3861
11421SOL    HW137155   2.747   5.009   7.101  0.3644  0.0650  0.5159
11421SOL    HW237156   2.630   5.079   7.034  0.1958 -0.5185  0.1895
11422SOL     OW37157   3.300   1.644   9.480  0.7830  0.0023 -0.7254
11422SOL    HW137158   3.250   1.722   9.503  2.4553  1.3520 -1.4098
11422SOL    HW237159   3.334   1.612   9.563 -0.6565 -0.5617 -0.3346
11423SOL     OW37160   1.403   0.236   7.505 -0.5199 -0.1601 -0.8752
11423SOL    HW137161   1.362   0.238   7.591 -0.0878 -0.5784 -0.6591
11423SOL    HW237162   1.377   0.320   7.465  0.7382  0.8645  0.3459
11424SOL     OW37163   8.333   3.918   1.918 -0.2191  0.0551  0.3627
11424SOL    HW137164   8.366   3.848   1.975 -0.7282 -0.6697 -0.2201
11424SOL    HW237165   8.412   3.956   1.879  0.0613 -0.2049  0.6676
11425SOL     OW37166   5.801   8.985   6.752 -0.3417  0.1002  0.3702
11425SOL    HW137167   5.756   9.004   6.670 -0.4570  0.9262  0.6159
11425SOL    HW237168   5.766   9.049   6.814  0.0362 -0.2571  0.9647
11426SOL     OW37169   5.869   5.843   6.009  0.1886 -0.3545  0.0316
11426SOL    HW137170   5.942   5.792   6.044  0.5392  0.6388  0.7892
11426SOL    HW237171   5.888   5.853   5.916  0.7944 -0.4692  0.1412
11427SOL     OW37172   7.648   1.981   8.273  0.2680 -0.5736  0.3306
11427SOL    HW137173   7.711   1.919   8.311  0.7129  0.0002  0.5435
11427SOL    HW237174   7.679   2.067   8.302  0.9204 -0.0700 -1.7000
11428SOL     OW37175   6.682   0.489   9.080  0.1923  0.0247 -0.0668
11428SOL    HW137176   6.730   0.569   9.062 -0.2062  0.3106  0.1251
11428SOL    HW237177   6.731   0.420   9.035  0.5900  0.3602 -0.1463
11429SOL     OW37178   3.433   1.514   6.115 -0.3169 -0.3774 -0.3795
11429SOL    HW137179   3.503   1.534   6.054  0.0824 -1.0830 -0.1663
11429SOL    HW237180   3.390   1.598   6.133 -0.3783 -0.1501 -1.5509
11430SOL     OW37181   8.821   5.716   5.885 -0.4247 -0.3450  0.0909
11430SOL    HW137182   8.906   5.671   5.875 -0.0301  0.4999 -0.4728
11430SOL    HW237183   8.840   5.791   5.941 -0.6237  0.2863 -0.6655
11431SOL     OW37184   1.036   2.052   6.392 -0.4521  1.0350  0.8203
11431SOL    HW137185   1.090   2.106   6.334  1.8329 -0.9030  0.9582
11431SOL    HW237186   0.957   2.034   6.342  0.9941  0.2691 -1.3815
11432SOL     OW37187   5.527   0.088   5.389  0.1231 -0.1643 -0.0086
11432SOL    HW137188   5.454   0.145   5.414 -0.8151 -0.5894 -1.6209
11432SOL    HW237189   5.596   0.149   5.362  0.6658  0.2571  2.1284
11433SOL     OW37190   8.682   5.852   6.914  0.4865  0.5037 -0.0424
11433SOL    HW137191   8.624   5.822   6.844 -0.6096  0.0992  0.9932
11433SOL    HW237192   8.763   5.802   6.903  0.4985  0.7801 -1.2739
11434SOL     OW37193   8.703   8.868   3.258 -0.5218  0.4693 -0.1690
11434SOL    HW137194   8.740   8.953   3.278  1.5780 -0.0595 -1.4691
11434SOL    HW237195   8.770   8.824   3.206 -1.4612 -2.0488  0.5853
11435SOL     OW37196   7.290   5.568   8.672 -0.6028 -0.3773  0.1883
11435SOL    HW137197   7.321   5.483   8.701 -0.6105 -0.5369 -0.2555
11435SOL    HW237198   7.202   5.552   8.639 -0.2194 -0.4190 -0.8858
11436SOL     OW37199   2.301   0.849   5.335  0.1919 -0.8632 -0.5861
11436SOL    HW137200   2.371   0.788   5.358  0.0291 -1.1661 -0.8979
11436SOL    HW237201   2.244   0.800   5.276 -0.2506 -0.5968 -0.3858
11437SOL     OW37202   6.851   4.665   1.512 -0.1623 -0.0626  0.1092
11437SOL    HW137203   6.811   4.719   1.444  1.8506 -1.4575 -2.3539
11437SOL    HW237204   6.788   4.595   1.528 -0.3478 -0.1441 -0.9136
11438SOL     OW37205   9.043   2.616   6.659  0.2561 -0.3722  0.3643
11438SOL    HW137206   9.044   2.700   6.614 -1.7326 -0.2610  0.4033
11438SOL    HW237207   9.068   2.552   6.593 -1.6294 -0.0987 -0.6963
11439SOL     OW37208   3.527   7.943   3.844  0.4978 -0.4087 -0.1489
11439SOL    HW137209   3.475   7.971   3.769  0.7709 -1.2778 -0.6870
11439SOL    HW237210   3.612   7.919   3.806  1.1157  0.4708  0.6352
11440SOL     OW37211   4.388   8.841   6.169 -0.4113  0.2350  0.1309
11440SOL    HW137212   4.382   8.936   6.154  0.2506  0.3379  0.4813
11440SOL    HW237213   4.445   8.832   6.245 -1.1085 -0.4197  0.5854
11441SOL     OW37214   5.910   5.218   2.916 -0.1615 -0.1985 -0.7792
11441SOL    HW137215   5.965   5.196   2.992 -0.3699  0.9837 -0.2689
11441SOL    HW237216   5.924   5.145   2.855 -0.7498 -1.6753  0.7770
11442SOL     OW37217   3.833   6.504   5.351 -0.0412  0.4098  0.1247
11442SOL    HW137218   3.858   6.536   5.264 -2.4147  1.7960 -0.1226
11442SOL    HW237219   3.812   6.411   5.336  0.1951  0.4691 -0.6544
11443SOL     OW37220   2.910   7.951   0.015 -0.2000 -0.2548 -0.2797
11443SOL    HW137221   2.912   7.998   0.099 -0.4846  0.7250 -0.8001
11443SOL    HW237222   2.911   7.859   0.039 -0.6494  0.0086  0.8133
11444SOL     OW37223   7.552   0.747   9.118  0.1398 -0.8863 -0.3090
11444SOL    HW137224   7.630   0.714   9.074  1.6427  0.9146  0.8748
11444SOL    HW237225   7.532   0.829   9.072  0.1478 -0.3288  0.6696
11445SOL     OW37226   3.934   8.732   5.339 -0.2483  0.4307 -0.2950
11445SOL    HW137227   3.990   8.804   5.366 -0.4980  0.0329  1.3687
11445SOL    HW237228   3.931   8.673   5.415  0.7625 -1.8642 -1.9077
11446SOL     OW37229   5.367   9.312   0.658  0.0866  0.0998  0.1287
11446SOL    HW137230   5.425   9.304   0.582  0.6716 -0.8728  0.6545
11446SOL    HW237231   5.358   9.406   0.671 -0.0535  0.2872 -1.1613
11447SOL     OW37232   6.893   1.413   9.548  0.5456  0.1490 -0.5097
11447SOL    HW137233   6.943   1.333   9.534 -0.4361 -0.5921  0.0269
11447SOL    HW237234   6.837   1.421   9.471  1.7495  1.2181 -1.3216
11448SOL     OW37235   7.507   9.279   2.918  0.6005  0.1545  0.5344
11448SOL    HW137236   7.518   9.208   2.855  0.1709 -0.8681  1.5812
11448SOL    HW237237   7.566   9.348   2.888  0.5303 -0.3774 -0.8788
11449SOL     OW37238   6.479   1.152   8.697  0.3705  0.1205  0.5181
11449SOL    HW137239   6.509   1.214   8.764  1.6848 -0.6905  0.7143
11449SOL    HW237240   6.390   1.180   8.677  1.3123  2.8987 -0.3153
11450SOL     OW37241   8.485   6.576   8.285 -0.4589  0.1503 -0.6945
11450SOL    HW137242   8.560   6.535   8.329 -0.3122  0.7421 -0.3783
11450SOL    HW237243   8.523   6.625   8.213 -0.3905  1.5072  0.2378
11451SOL     OW37244   7.459   5.159   8.388 -0.1269  0.0935 -0.0098
11451SOL    HW137245   7.498   5.207   8.315  1.8945 -1.2511  0.1031
11451SOL    HW237246   7.427   5.078   8.349 -1.5319  0.5268  0.1739
11452SOL     OW37247   9.460   8.667   0.635 -0.0734  0.3863  0.5293
11452SOL    HW137248   9.432   8.605   0.703  2.1244 -0.5921  0.6083
11452SOL    HW237249   9.542   8.703   0.668  0.6230  0.5086 -1.2512
11453SOL     OW37250   4.364   1.485   6.662  0.2860  0.1682 -0.4606
11453SOL    HW137251   4.283   1.471   6.712 -0.3251  0.8831 -1.2039
11453SOL    HW237252   4.352   1.431   6.584  1.6646 -1.7263  0.5583
11454SOL     OW37253   5.160   0.267   9.034 -0.8323  0.3799 -0.0923
11454SOL    HW137254   5.100   0.197   9.009  0.7985 -0.5553 -1.6514
11454SOL    HW237255   5.188   0.245   9.123  1.1161 -2.1166 -1.2139
11455SOL     OW37256   3.374   2.202   5.839  0.4372  0.4130  0.0358
11455SOL    HW137257   3.286   2.216   5.874 -0.9276 -0.6931 -2.6549
11455SOL    HW237258   3.406   2.290   5.818 -0.9182  0.7315 -0.8300
11456SOL     OW37259   5.703   4.224   3.338  0.0677 -0.1854  0.1637
11456SOL    HW137260   5.624   4.170   3.339  1.7884 -2.9403 -0.0687
11456SOL    HW237261   5.725   4.236   3.430  0.5895 -1.4370  0.2237
11457SOL     OW37262   4.296   2.495   6.056  0.0789  0.2948  0.0853
11457SOL    HW137263   4.257   2.476   5.971  0.7995  2.4502 -0.8039
11457SOL    HW237264   4.389   2.509   6.038  0.0206  2.1966  0.9081
11458SOL     OW37265   8.930   1.206   5.455  0.6730 -0.3810  0.0820
11458SOL    HW137266   8.988   1.131   5.470  1.3098  0.0600 -0.1157
11458SOL    HW237267   8.847   1.167   5.428  1.5422 -0.9814 -1.8902
11459SOL     OW37268   2.618   0.867   6.971 -0.1220 -0.1837 -0.0761
11459SOL    HW137269   2.608   0.780   6.931 -2.4087 -0.1404  0.2582
11459SOL    HW237270   2.614   0.851   7.065 -0.9902  0.2938 -0.0182
11460SOL     OW37271   4.947   3.545   6.363  0.1200  0.1662 -0.1479
11460SOL    HW137272   4.989   3.630   6.368 -1.0004  0.7812 -0.7687
11460SOL    HW237273   4.956   3.518   6.272  0.8124 -0.5685  0.1289
11461SOL     OW37274   5.180   2.514   3.123 -0.1240 -0.0489 -0.1709
11461SOL    HW137275   5.180   2.580   3.053 -2.5592 -0.5238 -0.7072
11461SOL    HW237276   5.176   2.565   3.204  1.3383  0.4775 -0.3972
11462SOL     OW37277   4.872   4.501   0.156 -0.3817  0.0765  0.1170
11462SOL    HW137278   4.889   4.410   0.181 -0.3530 -0.1062 -0.5378
11462SOL    HW237279   4.950   4.549   0.183 -1.7277  0.6074  3.6930
11463SOL     OW37280   7.395   2.137   4.622  0.1548 -0.1099 -0.3197
11463SOL    HW137281   7.369   2.124   4.531  1.3444  0.1055 -0.7016
11463SOL    HW237282   7.422   2.049   4.652  0.1643 -0.1019 -0.3045
11464SOL     OW37283   5.388   8.592   0.509  0.3877  0.7050  0.1559
11464SOL    HW137284   5.346   8.678   0.500 -1.2061  0.2440  2.2747
11464SOL    HW237285   5.473   8.611   0.548 -1.2775  1.2905  3.9875
11465SOL     OW37286   0.108   6.308   5.159 -0.2215  0.1708  0.0022
11465SOL    HW137287   0.114   6.235   5.221 -1.0975  0.6821  0.7176
11465SOL    HW237288   0.055   6.273   5.087  0.2237 -0.2181 -0.1375
11466SOL     OW37289   3.712   0.930   2.301 -0.1712  0.2873 -0.3878
11466SOL    HW137290   3.796   0.889   2.280 -0.0977  0.3086 -0.1491
11466SOL    HW237291   3.734   0.991   2.372 -0.0469  1.6249 -1.5348
11467SOL     OW37292   6.861   3.024   5.607  0.7514 -0.1221  0.7140
11467SOL    HW137293   6.906   2.948   5.642  1.1529  0.8479  2.4025
11467SOL    HW237294   6.846   3.081   5.682 -0.8339  0.8370 -0.2631
11468SOL     OW37295   0.557   0.613   5.865  0.3590 -0.4949  0.3719
11468SOL    HW137296   0.502   0.544   5.828 -1.1549  0.0319  1.5382
11468SOL    HW237297   0.625   0.566   5.913 -1.0513 -1.2207  1.7293
11469SOL     OW37298   2.790   8.040   6.058 -0.6468  0.2675  0.3288
11469SOL    HW137299   2.761   8.042   5.967  1.1816  0.1381 -0.3027
11469SOL    HW237300   2.786   8.132   6.086 -2.7213  0.1087  0.6658
11470SOL     OW37301   3.940   3.341   7.636  0.4371  0.3124 -0.3635
11470SOL    HW137302   3.894   3.400   7.696 -0.7819  1.0190 -1.9291
11470SOL    HW237303   3.924   3.378   7.549  0.7083 -1.6310 -1.2930
11471SOL     OW37304   6.494   0.027   8.664 -0.2675 -0.3937  0.4765
11471SOL    HW137305   6.586   0.008   8.644 -0.0439  1.5065 -0.5311
11471SOL    HW237306   6.445  -0.042   8.619  0.6600 -2.8446  2.9266
11472SOL     OW37307   8.864   4.824   4.507  0.1145  0.0461  0.3531
11472SOL    HW137308   8.823   4.904   4.539 -2.0167 -0.4952 -0.8361
11472SOL    HW237309   8.944   4.854   4.464 -0.1424  1.4034  0.7655
11473SOL     OW37310   0.213   6.153   4.376  0.9615  0.0470 -0.2763
11473SOL    HW137311   0.214   6.085   4.308 -0.4952 -1.7647  1.3689
11473SOL    HW237312   0.249   6.109   4.453  0.1121  1.1981  0.8059
11474SOL     OW37313   0.679   4.094   1.954  0.2170  0.2537  0.0570
11474SOL    HW137314   0.614   4.160   1.930  1.2169  1.6979  1.1627
11474SOL    HW237315   0.629   4.012   1.958 -0.8951  0.7579 -2.1184
11475SOL     OW37316   5.006   2.472   8.310  0.2114 -0.4283  0.0595
11475SOL    HW137317   4.924   2.432   8.339 -0.1227 -0.6820 -1.1599
11475SOL    HW237318   5.069   2.451   8.379 -0.2793 -1.9378  0.0912
11476SOL     OW37319   6.632   3.761   3.884  0.2152 -0.5887 -0.2225
11476SOL    HW137320   6.541   3.769   3.911  0.4631  1.0901  0.1864
11476SOL    HW237321   6.654   3.847   3.848  1.1034 -1.5211 -2.0280
11477SOL     OW37322   3.406   3.340   4.139  0.0849 -0.0422  0.6701
11477SOL    HW137323   3.392   3.369   4.229  2.2439  1.0176  0.7196
11477SOL    HW237324   3.458   3.259   4.147 -1.4730 -1.1186  0.3848
11478SOL     OW37325   2.701   4.695   0.294  0.3640  0.4363 -0.5717
11478SOL    HW137326   2.727   4.656   0.210  1.6882  1.6012 -0.7446
11478SOL    HW237327   2.771   4.757   0.314 -1.1899  2.0431  0.1521
11479SOL     OW37328   0.307   1.921   4.988 -0.0430 -0.2840  0.1764
11479SOL    HW137329   0.255   1.996   4.959  1.9171  1.0481 -0.0281
11479SOL    HW237330   0.257   1.884   5.061 -1.6219  0.4768 -0.4808
11480SOL     OW37331   4.229   1.275   2.762  0.3761  0.3791 -0.0793
11480SOL    HW137332   4.165   1.204   2.762  0.2275  0.4936  1.2481
11480SOL    HW237333   4.255   1.285   2.854  1.7493  0.8367 -0.4860
11481SOL     OW37334   2.215   2.522   1.236  0.1231  0.6028 -0.4066
11481SOL    HW137335   2.268   2.599   1.216  0.0322  0.7459 -0.1185
11481SOL    HW237336   2.140   2.529   1.178 -1.2192  2.1576  1.3630
11482SOL     OW37337   6.369   2.134   6.722  0.0030  0.0091 -0.0515
11482SOL    HW137338   6.361   2.215   6.672 -0.2277  0.1560  0.2163
11482SOL    HW237339   6.326   2.154   6.806  0.8182 -0.0744  0.3977
11483SOL     OW37340   4.480   1.559   8.677 -0.4500  0.4994  0.0861
11483SOL    HW137341   4.430   1.492   8.722 -1.1156  1.6493  1.1275
11483SOL    HW237342   4.486   1.631   8.740 -2.2865  2.5890 -1.9469
11484SOL     OW37343   4.314   7.730   8.205 -0.4931  0.0586  0.1706
11484SOL    HW137344   4.281   7.660   8.149 -1.8479  0.4498  0.4477
11484SOL    HW237345   4.407   7.737   8.182  0.0970 -2.8799  1.2706
11485SOL     OW37346   8.958   2.093   0.356  0.1637 -0.0481 -0.0271
11485SOL    HW137347   8.866   2.065   0.352 -0.3093  1.4989 -0.6782
11485SOL    HW237348   9.004   2.031   0.299 -0.5556 -0.5230 -0.1141
11486SOL     OW37349   5.721   5.462   0.676 -0.0594 -0.5765 -0.3558
11486SOL    HW137350   5.816   5.462   0.681 -0.0741 -0.6891 -0.0437
11486SOL    HW237351   5.699   5.392   0.614  0.0855 -0.0625 -0.9975
11487SOL     OW37352   2.542   7.329   5.317  0.0475  0.1205  0.0508
11487SOL    HW137353   2.626   7.347   5.275  0.4756 -0.7150  0.5147
11487SOL    HW237354   2.541   7.234   5.328 -0.6629  0.1925  0.6625
11488SOL     OW37355   8.474   5.486   3.534 -0.4532 -0.2057  0.5634
11488SOL    HW137356   8.440   5.459   3.620 -1.7983 -0.7228 -0.1133
11488SOL    HW237357   8.483   5.404   3.485 -0.0776  0.1302  0.0651
11489SOL     OW37358   2.763   4.087   6.550 -0.4032  0.5576  0.1574
11489SOL    HW137359   2.825   4.039   6.605  0.2524  0.6542 -0.4805
11489SOL    HW237360   2.677   4.057   6.579 -0.0316 -0.4063  0.3140
11490SOL     OW37361   7.396   8.719   4.591  0.0864  0.0485 -0.0661
11490SOL    HW137362   7.395   8.623   4.589 -2.8306 -0.0085 -0.5625
11490SOL    HW237363   7.359   8.745   4.506 -0.0605  1.5700  0.4396
11491SOL     OW37364   9.507   2.775   2.802  0.1530 -0.4294  0.2228
11491SOL    HW137365   9.450   2.705   2.772  1.3416 -0.3940 -2.4609
11491SOL    HW237366   9.455   2.855   2.791 -0.2143 -0.6392  0.4480
11492SOL     OW37367   8.087   5.590   5.702 -0.2442 -0.2592  0.0949
11492SOL    HW137368   8.108   5.626   5.615 -1.4001  0.6804  0.1856
11492SOL    HW237369   8.171   5.558   5.735  0.2184 -0.6321 -1.3656
11493SOL     OW37370   5.039   4.386   3.938  0.9239  0.0616  0.3719
11493SOL    HW137371   5.087   4.337   4.004  1.3422 -1.8296 -1.2212
11493SOL    HW237372   4.947   4.365   3.955  0.8665  1.1091  1.4645
11494SOL     OW37373   3.488   1.802   3.102 -0.0225 -0.4332  0.4735
11494SOL    HW137374   3.509   1.888   3.065 -0.4014  0.7969  2.8794
11494SOL    HW237375   3.394   1.806   3.120  0.0048 -1.2398  0.8364
11495SOL     OW37376   2.113   1.791   8.104  0.4237 -0.4664  0.2804
11495SOL    HW137377   2.112   1.869   8.159 -0.6007  0.2913 -0.7524
11495SOL    HW237378   2.202   1.757   8.112  0.5551  0.1372  1.6523
11496SOL     OW37379   8.026   6.319   2.256 -0.5340 -0.2105  0.1690
11496SOL    HW137380   8.054   6.237   2.216 -1.0242 -0.4144  0.2414
11496SOL    HW237381   7.968   6.359   2.190 -0.8621 -0.2584  0.4325
11497SOL     OW37382   5.696   0.839   6.281  0.4750  0.4876  0.4247
11497SOL    HW137383   5.601   0.837   6.296  0.1616  1.2842 -1.2749
11497SOL    HW237384   5.729   0.899   6.347 -0.1220 -0.1617  1.3423
11498SOL     OW37385   0.073   0.411   9.035 -0.3179 -0.0813  0.0519
11498SOL    HW137386  -0.017   0.404   9.003  0.1730  0.0370 -1.4460
11498SOL    HW237387   0.125   0.364   8.970  0.6327 -0.8541  1.3237
11499SOL     OW37388   7.477   6.525   8.916  0.6369 -0.5346 -0.6663
11499SOL    HW137389   7.443   6.463   8.851  2.8424 -1.8467 -0.6742
11499SOL    HW237390   7.572   6.518   8.908  0.9683  1.9885  0.2155
11500SOL     OW37391   4.917   7.076   0.795  0.0851 -0.2034 -0.5473
11500SOL    HW137392   4.982   7.021   0.839  0.0492 -0.7521 -1.1605
11500SOL    HW237393   4.914   7.157   0.847 -0.2574 -0.9862  0.7075
11501SOL     OW37394   4.220   7.218   0.764 -0.1788  0.4343 -0.3013
11501SOL    HW137395   4.209   7.269   0.844  0.6540  0.4834 -0.2109
11501SOL    HW237396   4.201   7.128   0.790 -0.6782  0.5515 -0.2375
11502SOL     OW37397   4.284   6.599   5.277  0.0045  0.2412 -0.1644
11502SOL    HW137398   4.267   6.507   5.299  1.3556 -0.0447 -0.2065
11502SOL    HW237399   4.338   6.631   5.350  1.0059  0.4816 -0.9890
11503SOL     OW37400   6.283   3.647   8.683  0.1218  0.2107 -0.3114
11503SOL    HW137401   6.272   3.564   8.638 -1.1362 -0.5760  1.3460
11503SOL    HW237402   6.226   3.708   8.635 -0.4758 -0.3784 -0.3569
11504SOL     OW37403   1.718   3.132   0.463 -0.3415  0.4648  0.1023
11504SOL    HW137404   1.714   3.227   0.452 -2.1482  0.4078 -0.0093
11504SOL    HW237405   1.629   3.101   0.443  0.7612 -1.5338 -2.2283
11505SOL     OW37406   0.498   7.400   1.296  0.2976 -0.1332  0.3459
11505SOL    HW137407   0.591   7.422   1.297  0.0339  1.2571  3.1960
11505SOL    HW237408   0.482   7.356   1.379 -1.6253 -0.3439 -0.0826
11506SOL     OW37409   8.158   7.103   3.553 -0.6492  0.1966  0.9978
11506SOL    HW137410   8.065   7.086   3.571 -0.8136  0.9929  0.9294
11506SOL    HW237411   8.202   7.023   3.582 -1.1555  0.5067  2.7742
11507SOL     OW37412   9.127   7.603   2.654  0.0044 -0.3121  0.0888
11507SOL    HW137413   9.166   7.567   2.574  0.0328 -1.1903  0.4860
11507SOL    HW237414   9.094   7.526   2.701  2.0776 -0.0840  2.0533
11508SOL     OW37415   2.782   1.683   1.047  0.5398 -0.0796  0.2007
11508SOL    HW137416   2.723   1.688   1.123  1.0806  0.6250  0.5839
11508SOL    HW237417   2.837   1.761   1.054 -0.1185  0.5980 -1.5231
11509SOL     OW37418   6.208   7.299   5.603 -0.2018 -0.0098 -0.3503
11509SOL    HW137419   6.126   7.323   5.560 -0.6782 -2.5121 -0.9559
11509SOL    HW237420   6.183   7.279   5.693 -0.2391 -0.6291 -0.4969
11510SOL     OW37421   2.149   3.440   5.046 -0.5482  0.0584  0.4508
11510SOL    HW137422   2.138   3.345   5.046 -0.5884  0.0384 -1.1328
11510SOL    HW237423   2.235   3.455   5.007  0.2189  0.6488  2.2319
11511SOL     OW37424   3.328   3.543   6.622  0.0796 -0.1760  0.7373
11511SOL    HW137425   3.265   3.578   6.685 -0.5957 -0.9727  0.5163
11511SOL    HW237426   3.314   3.449   6.623  0.5468 -0.2661 -0.0903
11512SOL     OW37427   6.422   5.148   3.908 -0.6139 -0.1573 -0.0929
11512SOL    HW137428   6.377   5.197   3.976  1.6154 -0.1595  1.4875
11512SOL    HW237429   6.457   5.215   3.849  0.1395  0.0283  0.5551
11513SOL     OW37430   7.193   2.900   2.994  1.0705  0.4656  0.0027
11513SOL    HW137431   7.127   2.919   3.060  1.6055  0.7568  0.4631
11513SOL    HW237432   7.154   2.930   2.912  0.6242  0.6129  0.2643
11514SOL     OW37433   6.568   5.405   4.628 -0.7300  0.4219  0.3511
11514SOL    HW137434   6.591   5.315   4.649 -1.2157  0.5342  1.4231
11514SOL    HW237435   6.650   5.454   4.635 -0.1754 -0.1229 -1.5557
11515SOL     OW37436   3.756   6.066   0.028 -0.4340 -0.2323 -0.5422
11515SOL    HW137437   3.702   6.044   0.104  0.0893 -0.3725 -0.2034
11515SOL    HW237438   3.701   6.045  -0.047 -1.6553  1.6442 -0.2217
11516SOL     OW37439   0.099   6.212   1.551  0.0846 -0.0188  0.6700
11516SOL    HW137440   0.008   6.183   1.552 -0.5333  1.6199 -1.0377
11516SOL    HW237441   0.135   6.172   1.471  0.3386  0.7257  0.4056
11517SOL     OW37442   3.804   9.545   1.974  0.2540 -0.3626  0.1437
11517SOL    HW137443   3.783   9.610   2.042  0.2075  1.8153 -1.8147
11517SOL    HW237444   3.720   9.513   1.944  0.2147 -0.2035  0.0848
11518SOL     OW37445   8.439   3.158   2.255 -0.6879 -0.3185  0.0748
11518SOL    HW137446   8.376   3.224   2.284 -1.8058 -0.8706 -1.0179
11518SOL    HW237447   8.419   3.082   2.310 -1.7371 -0.8412 -0.9731
11519SOL     OW37448   7.714   3.854   4.381  0.3539  0.1857  0.0812
11519SOL    HW137449   7.803   3.841   4.414  0.0981 -1.4752  0.1911
11519SOL    HW237450   7.658   3.834   4.456 -0.1227  1.0816 -0.0284
11520SOL     OW37451   2.824   9.494   2.790  0.2153  0.2517 -0.0978
11520SOL    HW137452   2.761   9.479   2.719 -0.1217  1.6260 -0.1121
11520SOL    HW237453   2.812   9.586   2.814  1.2435  0.1552  0.8609
11521SOL     OW37454   4.825   8.577   6.957 -0.3153 -0.7540  0.4955
11521SOL    HW137455   4.882   8.651   6.936 -1.7273  0.9356  2.2733
11521SOL    HW237456   4.879   8.520   7.011  1.0602 -1.5457 -1.5802
11522SOL     OW37457   9.539   7.458   0.703  0.3802  0.4433 -0.0931
11522SOL    HW137458   9.573   7.404   0.631 -0.1739  0.5331 -0.4282
11522SOL    HW237459   9.455   7.489   0.671 -0.2144 -0.1200  0.8830
11523SOL     OW37460   4.397   2.369   0.072  0.1295 -0.3908 -0.3013
11523SOL    HW137461   4.447   2.369  -0.009 -0.2857 -1.7188 -0.5889
11523SOL    HW237462   4.391   2.277   0.097  0.4917 -0.0004  1.3991
11524SOL     OW37463   8.029   6.003   5.682 -0.7586 -0.3239  0.8405
11524SOL    HW137464   8.079   6.068   5.634 -1.1157 -0.2786  0.5232
11524SOL    HW237465   8.002   6.047   5.762 -1.9605  0.3046  0.1236
11525SOL     OW37466   4.457   7.654   6.085  0.2543  1.0445 -0.6927
11525SOL    HW137467   4.547   7.630   6.064  0.8046  0.8632  1.6739
11525SOL    HW237468   4.408   7.572   6.081  0.6964  0.7177  0.3704
11526SOL     OW37469   4.528   5.791   1.782 -0.2176 -0.2288 -0.1505
11526SOL    HW137470   4.474   5.715   1.760 -1.9479  1.6672 -3.2709
11526SOL    HW237471   4.470   5.848   1.832  0.0623  0.2723 -0.3861
11527SOL     OW37472   3.663   7.020   7.575 -0.0141  0.1719 -0.2023
11527SOL    HW137473   3.739   6.966   7.550 -0.4826 -0.4825 -0.2298
11527SOL    HW237474   3.630   7.053   7.492 -0.2950 -0.2758 -0.2726
11528SOL     OW37475   6.906   7.427   8.036 -0.1562 -0.4433 -0.4288
11528SOL    HW137476   6.950   7.472   7.964 -0.3795 -0.5633 -0.6402
11528SOL    HW237477   6.878   7.498   8.094  1.4542 -0.4193  0.3767
11529SOL     OW37478   3.423   8.788   8.619 -0.1130 -0.0986 -0.0065
11529SOL    HW137479   3.458   8.853   8.679  0.8608  1.6858 -2.3543
11529SOL    HW237480   3.500   8.744   8.583 -0.6354 -0.7237 -0.3956
11530SOL     OW37481   7.295   2.194   4.877  0.3472 -0.1852  0.1004
11530SOL    HW137482   7.323   2.134   4.809  0.9623 -0.3957  0.5283
11530SOL    HW237483   7.224   2.245   4.837  0.8337 -0.1618 -0.7552
11531SOL     OW37484   6.622   6.110   3.213  0.0713 -0.5149 -0.7722
11531SOL    HW137485   6.687   6.108   3.282  0.3672  2.3334 -0.8662
11531SOL    HW237486   6.539   6.090   3.257  0.1301  2.0391  0.6333
11532SOL     OW37487   6.148   7.797   5.863  0.5177  0.4355  0.0626
11532SOL    HW137488   6.191   7.883   5.853 -1.9896  1.7143 -0.5646
11532SOL    HW237489   6.073   7.815   5.920 -0.0159 -1.3760 -0.0242
11533SOL     OW37490   1.279   2.210   9.428 -0.3452 -0.1543 -0.7317
11533SOL    HW137491   1.226   2.276   9.474 -0.1559  0.8509 -1.8889
11533SOL    HW237492   1.279   2.239   9.337  1.1812 -0.8071 -0.9695
11534SOL     OW37493   2.486   3.902   4.436 -0.5628  0.1401  0.0906
11534SOL    HW137494   2.525   3.824   4.476 -0.5446 -0.2109 -0.5973
11534SOL    HW237495   2.532   3.976   4.478 -1.0532 -0.1861  1.2313
11535SOL     OW37496   3.071   8.723   5.930  0.2535 -0.5245 -0.4116
11535SOL    HW137497   3.003   8.674   5.975  0.3674 -1.0675 -0.8254
11535SOL    HW237498   3.148   8.666   5.932  0.9446  0.4137  0.7700
11536SOL     OW37499   7.547   1.297   7.601  0.2297 -0.3619  0.0207
11536SOL    HW137500   7.614   1.288   7.533 -0.3035 -1.6752 -0.3491
11536SOL    HW237501   7.470   1.329   7.554 -0.2900 -1.7440 -0.1103
11537SOL     OW37502   7.243   5.025   8.802 -1.2278  0.3910  0.2235
11537SOL    HW137503   7.318   5.012   8.859 -0.7505 -0.2508 -0.5311
11537SOL    HW237504   7.197   4.942   8.804 -0.1536 -0.3146 -1.7922
11538SOL     OW37505   6.470   3.799   7.518  0.1055 -0.2683  0.0739
11538SOL    HW137506   6.548   3.839   7.480  0.2104 -1.8834 -1.5819
11538SOL    HW237507   6.398   3.855   7.488  0.2276 -1.2594 -2.3313
11539SOL     OW37508   4.939   3.128   1.677  0.1654  0.3398 -0.4600
11539SOL    HW137509   4.876   3.187   1.718  1.5715  1.7872 -0.2920
11539SOL    HW237510   4.949   3.056   1.739 -2.8433 -1.0723 -1.4113
11540SOL     OW37511   5.377   7.340   3.272  0.3893 -0.2604 -0.0896
11540SOL    HW137512   5.375   7.277   3.343  2.9057 -2.6301 -1.9095
11540SOL    HW237513   5.300   7.319   3.219 -0.1944 -0.0227  0.6420
11541SOL     OW37514   2.434   2.109   8.863  0.2561  0.2850  0.2617
11541SOL    HW137515   2.465   2.197   8.886  2.3785 -0.4025  0.2312
11541SOL    HW237516   2.502   2.050   8.897 -2.6927 -1.6673  3.4215
11542SOL     OW37517   4.174   6.288   5.912 -0.3366 -0.1349  0.0606
11542SOL    HW137518   4.153   6.365   5.965 -1.4623 -0.3111 -0.0937
11542SOL    HW237519   4.197   6.323   5.826 -1.3484  0.0276 -0.1615
11543SOL     OW37520   0.374   8.209   3.006 -0.1175  0.7508 -0.5836
11543SOL    HW137521   0.309   8.168   2.949  0.6615 -0.5945 -0.5284
11543SOL    HW237522   0.456   8.163   2.988 -0.2048 -1.2057  3.0720
11544SOL     OW37523   0.096   0.044   5.215  0.0622  0.2633 -0.0369
11544SOL    HW137524   0.177   0.091   5.237 -0.1444  0.4571  0.3286
11544SOL    HW237525   0.063   0.013   5.300  1.0355 -1.9698 -0.4060
11545SOL     OW37526   7.281   6.410   3.169 -0.1728  0.1352 -0.0255
11545SOL    HW137527   7.215   6.370   3.112 -0.5519  0.2207  0.3454
11545SOL    HW237528   7.298   6.342   3.235 -0.4701  0.4078  0.3332
11546SOL     OW37529   3.811   9.057   4.474  0.7757 -0.1276  0.2539
11546SOL    HW137530   3.833   9.101   4.556  1.5147 -1.4667  0.7969
11546SOL    HW237531   3.758   8.982   4.501 -0.3376  0.2993 -0.6470
11547SOL     OW37532   0.286   3.318   5.176 -0.2229 -0.6268 -0.0709
11547SOL    HW137533   0.196   3.336   5.147  0.7129  2.9392 -1.3649
11547SOL    HW237534   0.335   3.305   5.095  0.7051 -0.9322  0.5263
11548SOL     OW37535   5.374   7.164   2.386 -0.2181 -0.3427  0.3722
11548SOL    HW137536   5.341   7.237   2.438 -0.0963 -0.7860  1.0943
11548SOL    HW237537   5.316   7.159   2.310  1.7301  2.6574 -1.5615
11549SOL     OW37538   0.258   7.081   2.839  0.0303  0.4140 -0.9840
11549SOL    HW137539   0.192   7.013   2.850 -0.6346  0.8598 -2.0790
11549SOL    HW237540   0.264   7.095   2.745  0.9129  1.1437 -0.8458
11550SOL     OW37541   4.108   8.925   3.971 -0.3252 -0.3854  0.1510
11550SOL    HW137542   4.065   8.894   3.891 -0.0663 -0.5554  0.0752
11550SOL    HW237543   4.040   8.922   4.038 -0.5333 -0.2807 -0.0529
11551SOL     OW37544   8.031   4.616   9.192  0.1272  0.2053 -0.5266
11551SOL    HW137545   7.938   4.632   9.172  0.1450 -0.5401 -1.2478
11551SOL    HW237546   8.030   4.570   9.276 -0.1918 -0.3259 -0.8189
11552SOL     OW37547   9.170   4.861   0.686  0.4030 -0.0358 -0.0314
11552SOL    HW137548   9.183   4.944   0.732  0.7554 -0.5294  0.7648
11552SOL    HW237549   9.212   4.795   0.741 -1.6275 -1.0551  0.4058
11553SOL     OW37550   5.613   4.552   9.084  0.0609  0.0685 -0.0534
11553SOL    HW137551   5.626   4.469   9.037 -0.1109  1.6076 -3.0270
11553SOL    HW237552   5.577   4.526   9.168  1.9996 -3.0028 -0.0184
11554SOL     OW37553   3.470   7.043   4.570 -0.3678  0.0161 -0.0751
11554SOL    HW137554   3.404   7.108   4.594 -1.7482 -1.2666 -0.2438
11554SOL    HW237555   3.520   7.085   4.500 -0.1760  1.4795  0.8919
11555SOL     OW37556   9.542   2.584   4.178  0.2599  0.6349 -0.3256
11555SOL    HW137557   9.459   2.631   4.187  0.7348  1.5157 -0.4256
11555SOL    HW237558   9.583   2.621   4.100  0.6788  0.0950 -0.3721
11556SOL     OW37559   5.449   3.059   5.610 -0.6068 -0.7022  0.0264
11556SOL    HW137560   5.471   3.122   5.678 -0.4866 -0.6421 -0.0665
11556SOL    HW237561   5.450   3.111   5.529 -0.3588 -0.8558 -0.0697
11557SOL     OW37562   1.981   2.035   6.047  0.3403  0.0668 -0.5770
11557SOL    HW137563   2.072   2.016   6.070 -0.3293 -1.4141  1.0526
11557SOL    HW237564   1.965   1.983   5.968  0.7023 -0.2058 -0.4728
11558SOL     OW37565   7.040   3.496   6.748 -0.3048 -0.0705  0.1623
11558SOL    HW137566   6.974   3.509   6.681 -0.7948  0.0125  0.6489
11558SOL    HW237567   7.123   3.518   6.706 -0.4405 -1.3678 -0.8157
11559SOL     OW37568   5.925   5.760   5.191  0.2556 -0.2193 -0.0745
11559SOL    HW137569   5.958   5.848   5.206 -1.2445  0.6046 -1.3024
11559SOL    HW237570   5.941   5.744   5.098 -0.1888 -0.9190 -0.0391
11560SOL     OW37571   3.547   9.046   2.486  0.2282 -0.0815  0.5527
11560SOL    HW137572   3.521   9.087   2.568 -0.1214  1.2635 -0.1946
11560SOL    HW237573   3.471   9.058   2.428  0.6901 -0.4710 -0.1455
11561SOL     OW37574   0.776   5.381   1.888  0.0570  0.1604  0.6361
11561SOL    HW137575   0.767   5.417   1.800  3.3238  2.2640  0.9749
11561SOL    HW237576   0.804   5.291   1.874  1.6921  0.8094 -0.5827
11562SOL     OW37577   1.359   2.652   0.082 -0.8277  0.3689  0.2490
11562SOL    HW137578   1.361   2.587   0.152 -1.8209  1.0589  0.9357
11562SOL    HW237579   1.441   2.700   0.091 -1.3393  1.0257  1.5009
11563SOL     OW37580   2.014   2.262   7.487  0.3211 -0.2264  0.3080
11563SOL    HW137581   2.088   2.292   7.541 -0.2311  0.5628  0.6378
11563SOL    HW237582   2.047   2.268   7.397  0.6631  0.1278  0.4503
11564SOL     OW37583   3.152   9.192   1.965 -0.0630  0.2001 -0.1979
11564SOL    HW137584   3.076   9.134   1.958  0.0064  0.1261 -0.3530
11564SOL    HW237585   3.228   9.134   1.961  0.0096  0.3051 -0.4411
11565SOL     OW37586   7.864   9.394   2.078 -0.5446  0.3712  0.4873
11565SOL    HW137587   7.881   9.309   2.038 -1.4380  1.6314 -2.8711
11565SOL    HW237588   7.951   9.431   2.092 -0.1330 -1.0791  2.2035
11566SOL     OW37589   5.840   7.083   2.253 -0.7575 -0.5604  0.7658
11566SOL    HW137590   5.909   7.074   2.319  0.1492  1.3240  0.1373
11566SOL    HW237591   5.814   7.175   2.257 -2.0694 -0.8506 -0.1824
11567SOL     OW37592   6.136   8.532   7.442 -0.5302 -0.0128 -0.3035
11567SOL    HW137593   6.109   8.467   7.507 -0.3042 -0.7336 -0.9130
11567SOL    HW237594   6.054   8.557   7.398 -0.7892  1.0149  0.7204
11568SOL     OW37595   8.474   9.259   9.341 -0.3301  0.7376 -0.0717
11568SOL    HW137596   8.566   9.261   9.314 -0.4352 -1.3690 -0.7647
11568SOL    HW237597   8.444   9.349   9.331  1.7935  1.6039  0.7178
11569SOL     OW37598   6.942   0.985   4.395  0.3935  0.1972 -0.1019
11569SOL    HW137599   6.996   0.919   4.438  1.4164  0.8705 -0.3213
11569SOL    HW237600   6.890   0.936   4.332  0.9430 -0.4353 -0.0731
11570SOL     OW37601   9.456   4.070   9.325 -0.0234 -0.2757 -0.8849
11570SOL    HW137602   9.463   3.988   9.276 -1.2372 -1.2805  0.5080
11570SOL    HW237603   9.542   4.082   9.365  0.0262 -1.1709 -0.6925
11571SOL     OW37604   1.281   4.872   4.375 -0.5869  0.1543  0.1698
11571SOL    HW137605   1.258   4.823   4.454  0.8758  0.9019  1.1061
11571SOL    HW237606   1.373   4.895   4.388 -0.6233  1.2099 -1.2816
11572SOL     OW37607   5.867   4.566   4.589  0.5330 -0.1192 -0.4962
11572SOL    HW137608   5.927   4.632   4.626 -1.3331  1.4727 -0.1531
11572SOL    HW237609   5.811   4.541   4.663 -0.2941 -0.3250 -1.1808
11573SOL     OW37610   7.013   4.528   0.989 -0.1373 -0.7821  0.2421
11573SOL    HW137611   7.022   4.606   1.044  0.3798  0.0194 -0.9400
11573SOL    HW237612   7.063   4.549   0.910  0.4652 -2.5437  0.1275
11574SOL     OW37613   0.114   0.330   7.091  0.3233  0.3582  0.3864
11574SOL    HW137614   0.110   0.377   7.175 -0.8310  0.5177  0.2478
11574SOL    HW237615   0.042   0.366   7.040  0.1032 -0.7945 -0.1311
11575SOL     OW37616   0.700   4.157   4.114 -0.1923 -0.5174  0.0505
11575SOL    HW137617   0.626   4.166   4.054 -0.6501 -1.4845  0.4518
11575SOL    HW237618   0.774   4.137   4.057 -0.4501 -0.5901 -0.2618
11576SOL     OW37619   6.426   0.483   2.966 -0.7863 -0.2381  0.1307
11576SOL    HW137620   6.453   0.461   3.055  1.0939 -0.6330 -0.4746
11576SOL    HW237621   6.503   0.461   2.912 -1.7440  0.3183 -1.5383
11577SOL     OW37622   2.736   3.516   5.761  0.1114  0.1254  0.3807
11577SOL    HW137623   2.812   3.559   5.722 -0.7035  0.3343 -1.0427
11577SOL    HW237624   2.755   3.422   5.753 -0.4679  0.1347 -1.4764
11578SOL     OW37625   9.582   0.853   2.861 -0.3272  0.0414  0.2686
11578SOL    HW137626   9.672   0.866   2.832  0.0370 -0.4086  1.1422
11578SOL    HW237627   9.528   0.895   2.794  0.4698 -0.7046 -0.8675
11579SOL     OW37628   1.468   7.307   2.101  0.5015 -0.4489 -0.1471
11579SOL    HW137629   1.542   7.297   2.161 -0.3591  3.4713  1.9286
11579SOL    HW237630   1.508   7.318   2.015  2.3838  1.2359  0.8647
11580SOL     OW37631   1.429   0.755   5.312 -0.2978  0.4616 -0.0322
11580SOL    HW137632   1.519   0.763   5.344 -0.5777  0.5534  0.7508
11580SOL    HW237633   1.434   0.691   5.241  0.3684  0.4003  0.0641
11581SOL     OW37634   9.009   0.107   6.769 -0.5911 -0.1335  0.4806
11581SOL    HW137635   9.037   0.016   6.760  2.5416  0.6927  0.6727
11581SOL    HW237636   9.010   0.142   6.680  0.5190  0.2742  0.6392
11582SOL     OW37637   1.073   8.859   6.486  0.1148  0.2119  0.1631
11582SOL    HW137638   0.978   8.869   6.483 -0.0156 -1.0239 -0.4439
11582SOL    HW237639   1.086   8.769   6.515  1.1289  0.8750  1.8744
11583SOL     OW37640   0.394   3.130   4.094  0.4687 -0.5854 -0.2953
11583SOL    HW137641   0.461   3.197   4.107  0.6290 -0.4655 -1.6505
11583SOL    HW237642   0.420   3.059   4.153  0.5095  0.3630  0.8703
11584SOL     OW37643   7.000   3.994   6.314 -0.5562  0.4508 -0.2125
11584SOL    HW137644   7.058   3.929   6.353 -1.9990 -0.0016  1.2636
11584SOL    HW237645   7.050   4.076   6.319  1.0037 -0.3456 -1.4749
11585SOL     OW37646   4.589   6.480   5.320 -0.7695  0.4627  0.5867
11585SOL    HW137647   4.680   6.512   5.323 -0.5843 -0.0484  0.5801
11585SOL    HW237648   4.540   6.542   5.374 -0.3576  0.5631  0.8532
11586SOL     OW37649   5.975   2.299   9.459  0.4935 -0.1385  0.0875
11586SOL    HW137650   5.917   2.265   9.391 -0.4157 -0.4708  1.0113
11586SOL    HW237651   6.062   2.267   9.434  0.3273  0.4423 -1.3606
11587SOL     OW37652   5.646   2.874   0.153  0.3311  0.2941  0.2561
11587SOL    HW137653   5.642   2.916   0.067  0.8191  0.5192  0.3455
11587SOL    HW237654   5.736   2.845   0.162 -0.0127 -0.8496  0.1619
11588SOL     OW37655   8.509   2.479   3.139  0.1011 -0.6425  0.1353
11588SOL    HW137656   8.575   2.496   3.206  0.3273  0.6889 -0.3933
11588SOL    HW237657   8.527   2.389   3.110  1.0787 -0.6314  0.6526
11589SOL     OW37658   2.789   3.948   7.954  0.0064 -0.5060 -0.9552
11589SOL    HW137659   2.798   3.869   8.008 -2.0034  0.4950  1.0297
11589SOL    HW237660   2.879   3.974   7.935  0.7641 -1.9933  0.3378
11590SOL     OW37661   6.992   2.202   1.226 -0.1635  0.0400  0.0071
11590SOL    HW137662   6.957   2.210   1.137 -0.4771 -0.8025  0.0471
11590SOL    HW237663   7.067   2.262   1.228 -0.5848  0.6015 -0.6001
11591SOL     OW37664   9.383   6.802   3.328 -0.7481 -0.3378  0.1780
11591SOL    HW137665   9.468   6.796   3.372  0.4847 -0.3346 -2.0732
11591SOL    HW237666   9.352   6.890   3.350  0.3558  0.0862  0.1335
11592SOL     OW37667   2.965   6.477   3.372  0.0338 -0.1368  0.5335
11592SOL    HW137668   2.967   6.423   3.293  0.9729  0.0832  0.3937
11592SOL    HW237669   2.902   6.434   3.429  0.0741 -0.8566  0.0524
11593SOL     OW37670   1.000   1.349   3.076  0.3042  0.3518 -0.2146
11593SOL    HW137671   1.056   1.283   3.117 -0.3248  0.1897  0.4176
11593SOL    HW237672   1.050   1.381   3.001  1.2563  0.2476  0.3629
11594SOL     OW37673   5.698   5.391   3.238 -0.0892 -0.8853  0.3734
11594SOL    HW137674   5.623   5.349   3.280 -0.3879 -0.3322  0.4018
11594SOL    HW237675   5.662   5.471   3.200  0.5187 -0.5388  0.5183
11595SOL     OW37676   3.636   8.027   1.409 -0.0900  0.5341  0.1468
11595SOL    HW137677   3.657   8.102   1.465  1.9361  2.1160 -2.4722
11595SOL    HW237678   3.589   8.066   1.335 -0.2930 -1.0210 -0.5684
11596SOL     OW37679   3.801   0.204   5.729  0.4794  0.0605 -0.4795
11596SOL    HW137680   3.819   0.232   5.819  2.2016  0.6853 -0.9781
11596SOL    HW237681   3.846   0.120   5.720 -0.6105 -0.5399 -0.4466
11597SOL     OW37682   5.396   2.109   9.278 -0.3961  0.5948 -0.0106
11597SOL    HW137683   5.384   2.167   9.354  0.0448 -0.8078  1.1784
11597SOL    HW237684   5.466   2.049   9.304 -0.8974 -0.5371 -1.1561
11598SOL     OW37685   4.310   5.657   3.534  0.1361  0.1819  0.4917
11598SOL    HW137686   4.289   5.565   3.518 -1.6664  0.4248  1.2085
11598SOL    HW237687   4.404   5.658   3.550  0.3608 -1.3839 -0.5007
11599SOL     OW37688   9.297   1.844   8.883  0.2270  0.6197  0.6896
11599SOL    HW137689   9.209   1.820   8.911  0.6511 -1.3195  0.5035
11599SOL    HW237690   9.348   1.849   8.963  0.8109 -2.2603  0.6283
11600SOL     OW37691   9.136   7.701   3.786  0.0705  0.0832  0.1576
11600SOL    HW137692   9.104   7.620   3.745 -0.5201 -0.1993  1.1412
11600SOL    HW237693   9.062   7.732   3.838  0.7694  0.4791  0.9339
11601SOL     OW37694   0.956   2.868   0.775  0.0408  0.3398  0.2733
11601SOL    HW137695   0.883   2.921   0.743 -0.9484 -0.7087  0.7160
11601SOL    HW237696   0.992   2.828   0.697  0.0161  0.7159  0.0680
11602SOL     OW37697   2.982   5.145   3.646 -0.4261  0.0990  0.3211
11602SOL    HW137698   2.989   5.219   3.706 -0.2744 -0.0138  0.4447
11602SOL    HW237699   2.992   5.183   3.558 -1.7632  0.4212  0.2920
11603SOL     OW37700   2.544   0.532   3.907  0.0788 -0.1410  0.1525
11603SOL    HW137701   2.491   0.463   3.867 -0.0894  0.2304 -0.2762
11603SOL    HW237702   2.482   0.604   3.923  0.4337  0.2672 -0.2792
11604SOL     OW37703   2.396   8.082   4.346 -0.0332 -0.4942  0.3644
11604SOL    HW137704   2.435   7.998   4.320  1.7213  0.4033 -0.0029
11604SOL    HW237705   2.339   8.059   4.420  1.8698 -1.7771  1.5390
11605SOL     OW37706   6.911   7.723   1.514  0.4646 -0.2471 -0.1348
11605SOL    HW137707   6.893   7.629   1.521 -0.9259  0.0776  1.4797
11605SOL    HW237708   6.966   7.731   1.436  2.7909 -2.6914  1.0541
11606SOL     OW37709   1.011   5.660   1.820 -0.0425  0.1050 -0.2014
11606SOL    HW137710   0.926   5.656   1.864 -1.4574 -0.8532 -2.8223
11606SOL    HW237711   1.023   5.752   1.800  0.2543  0.4451  1.3919
11607SOL     OW37712   5.197   1.160   3.864 -0.6006 -0.2135  0.4549
11607SOL    HW137713   5.194   1.161   3.769  0.1851 -2.2814  0.3603
11607SOL    HW237714   5.283   1.194   3.886 -1.2113  1.3748  0.5157
11608SOL     OW37715   6.362   0.380   8.163 -0.0367  0.5696 -0.0982
11608SOL    HW137716   6.355   0.421   8.249 -0.9391  0.3368 -0.0549
11608SOL    HW237717   6.332   0.290   8.177  0.7903  0.2214 -0.4453
11609SOL     OW37718   3.396   5.029   6.850 -0.1099  0.4237 -0.2252
11609SOL    HW137719   3.329   5.090   6.821  0.8071  0.6098 -2.1472
11609SOL    HW237720   3.478   5.078   6.844  0.2317  0.3166  2.4059
11610SOL     OW37721   2.363   8.872   6.873  0.3827  0.6979 -0.6891
11610SOL    HW137722   2.281   8.869   6.825  0.3203  0.0939 -0.5511
11610SOL    HW237723   2.373   8.784   6.910  0.9586  0.8413 -0.4874
11611SOL     OW37724   2.819   6.490   5.260  0.7370 -0.2981  0.3642
11611SOL    HW137725   2.807   6.472   5.167  0.7094  0.1869  0.2675
11611SOL    HW237726   2.765   6.425   5.305 -0.4250  0.3861  0.0031
11612SOL     OW37727   5.779   6.643   5.512  0.6253 -0.6680 -0.4203
11612SOL    HW137728   5.709   6.606   5.566  0.9466  2.1604  2.1525
11612SOL    HW237729   5.735   6.668   5.431 -1.4710  1.0661  1.1307
11613SOL     OW37730   2.239   5.103   5.867  0.2348  0.2454  0.0030
11613SOL    HW137731   2.184   5.131   5.940 -0.0700 -0.0653 -0.1013
11613SOL    HW237732   2.328   5.109   5.900  0.0501 -1.2287  0.8890
11614SOL     OW37733   1.553   9.161   4.915  0.1439 -0.7602  0.0249
11614SOL    HW137734   1.593   9.106   4.848 -0.4506 -1.9580  0.6206
11614SOL    HW237735   1.573   9.251   4.888  0.5723 -1.2427 -1.3204
11615SOL     OW37736   4.097   1.469   6.243  0.1509 -0.2062  0.6430
11615SOL    HW137737   4.041   1.392   6.251 -1.6689  0.9974  0.1789
11615SOL    HW237738   4.077   1.504   6.156  0.2966  1.2552  1.1682
11616SOL     OW37739   5.085   5.198   8.363 -0.2517  0.9480 -0.3115
11616SOL    HW137740   5.139   5.161   8.292  0.5121  4.0969 -1.5132
11616SOL    HW237741   5.148   5.217   8.433 -0.6454  0.1020  0.2985
11617SOL     OW37742   4.389   0.733   0.974 -0.1940  0.2654  0.1271
11617SOL    HW137743   4.369   0.692   1.058 -1.3710 -0.6286 -0.5634
11617SOL    HW237744   4.361   0.824   0.985  0.0965  0.2773  0.8458
11618SOL     OW37745   8.358   4.517   0.877 -0.3138 -0.6736 -0.1219
11618SOL    HW137746   8.390   4.467   0.802 -1.6744  0.6018 -1.6341
11618SOL    HW237747   8.276   4.556   0.846  0.0680  1.4737  1.3683
11619SOL     OW37748   7.507   2.253   7.514 -0.0379 -0.1621 -0.4510
11619SOL    HW137749   7.534   2.248   7.422 -0.1670  0.5427 -0.5320
11619SOL    HW237750   7.568   2.316   7.553  0.9485 -1.5226  0.3008
11620SOL     OW37751   3.012   8.002   6.710 -0.2118 -0.1210  0.5513
11620SOL    HW137752   2.942   8.028   6.650  1.1701  0.5739 -0.8410
11620SOL    HW237753   2.969   7.946   6.774 -1.8737 -0.4604 -0.7775
11621SOL     OW37754   8.256   6.634   1.121 -0.2763 -0.2892 -0.5675
11621SOL    HW137755   8.302   6.657   1.202 -1.3931 -0.1970  0.0611
11621SOL    HW237756   8.260   6.714   1.068 -0.1197 -0.1425 -0.3373
11622SOL     OW37757   0.559   5.789   2.358 -0.1240  0.5327 -0.0540
11622SOL    HW137758   0.644   5.771   2.318  0.8034  1.9298  1.1888
11622SOL    HW237759   0.519   5.854   2.300 -0.7417 -0.7219 -1.0856
11623SOL     OW37760   6.873   7.467   5.274  0.1005  0.0270 -0.0466
11623SOL    HW137761   6.784   7.502   5.269 -0.5821 -1.4872  0.8787
11623SOL    HW237762   6.864   7.385   5.323  1.5143 -1.7752 -2.5630
11624SOL     OW37763   5.008   7.447   7.410 -0.3740 -0.1495 -0.0737
11624SOL    HW137764   5.084   7.392   7.429  0.3607  1.0703  0.6627
11624SOL    HW237765   5.023   7.480   7.322 -0.6544 -0.8399 -0.3898
11625SOL     OW37766   4.697   3.135   6.870  1.0897 -0.2698 -0.0753
11625SOL    HW137767   4.615   3.102   6.834  1.2946 -0.1014 -0.7092
11625SOL    HW237768   4.759   3.063   6.858  1.0340 -0.4017  0.4137
11626SOL     OW37769   7.015   1.142   4.829  0.6077 -0.2359 -0.4050
11626SOL    HW137770   7.084   1.077   4.819 -0.2918 -1.3423  0.3823
11626SOL    HW237771   7.002   1.177   4.741  1.5423 -0.6653 -0.7209
11627SOL     OW37772   0.605   2.046   1.609  0.1085 -0.0215 -0.5791
11627SOL    HW137773   0.645   2.133   1.606  0.2348 -0.0167  0.7492
11627SOL    HW237774   0.654   2.000   1.677 -0.8734 -0.6651 -0.2945
11628SOL     OW37775   5.212   9.371   4.743 -0.4919  0.3789  0.8524
11628SOL    HW137776   5.244   9.344   4.657 -0.3428  2.3103  0.2687
11628SOL    HW237777   5.274   9.333   4.805 -0.3951 -0.7229  0.0995
11629SOL     OW37778   8.646   9.116   6.688 -0.0973 -0.4604 -0.8425
11629SOL    HW137779   8.613   9.206   6.682 -1.2602 -0.8093 -0.0411
11629SOL    HW237780   8.693   9.102   6.606 -1.7820  0.1553 -1.9685
11630SOL     OW37781   1.854   6.313   3.684 -0.0840 -0.2677 -0.5065
11630SOL    HW137782   1.807   6.382   3.638  0.9963 -0.0145 -1.2860
11630SOL    HW237783   1.789   6.245   3.701 -1.2489  1.0680  0.5876
11631SOL     OW37784   7.823   5.195   7.996 -0.2480 -0.0472 -0.2603
11631SOL    HW137785   7.868   5.141   8.062 -0.3562  0.3120  0.1056
11631SOL    HW237786   7.767   5.253   8.046 -2.1072 -1.3387 -0.7541
11632SOL     OW37787   0.492   7.899   0.055 -0.4726 -0.5565  0.5773
11632SOL    HW137788   0.450   7.842  -0.009  2.2112 -1.9033 -0.0947
11632SOL    HW237789   0.489   7.849   0.137 -0.0495 -0.7279  0.4896
11633SOL     OW37790   6.549   1.423   8.981  0.2833  0.1143 -0.4243
11633SOL    HW137791   6.491   1.487   9.022 -1.4179 -0.8660 -1.1665
11633SOL    HW237792   6.567   1.458   8.894  1.6337  0.8741  0.1358
11634SOL     OW37793   2.203   2.990   9.286  0.8591 -0.0145  0.2117
11634SOL    HW137794   2.284   2.970   9.241  1.3546  1.1137  0.5597
11634SOL    HW237795   2.227   3.056   9.351 -0.0176 -0.8774  1.4730
11635SOL     OW37796   4.373   6.115   3.148 -0.6219 -0.1003  0.2952
11635SOL    HW137797   4.456   6.069   3.155 -0.9370 -1.6595 -3.6629
11635SOL    HW237798   4.396   6.207   3.162  1.3080 -0.6797  1.3820
11636SOL     OW37799   1.640   4.161   2.186 -0.5098  0.2782 -0.9022
11636SOL    HW137800   1.684   4.198   2.109  0.6317  0.5404 -0.1375
11636SOL    HW237801   1.669   4.216   2.259 -1.0955 -0.3513 -0.1791
11637SOL     OW37802   8.120   1.894   3.005 -0.0672  0.1687 -0.2738
11637SOL    HW137803   8.044   1.952   3.011  1.0645  1.5797  1.1870
11637SOL    HW237804   8.118   1.844   3.087  1.0667  0.8914  0.2172
11638SOL     OW37805   5.154   1.036   8.429 -0.1351 -0.3344 -0.0137
11638SOL    HW137806   5.200   1.076   8.503  0.3141 -3.2273  1.4229
11638SOL    HW237807   5.069   1.010   8.465  0.7142 -3.2907  0.1358
11639SOL     OW37808   1.018   0.016   5.501  0.5635 -0.1887 -0.1776
11639SOL    HW137809   1.074  -0.021   5.432  3.1528  0.3017  1.5241
11639SOL    HW237810   0.968  -0.059   5.533  0.3221 -0.6928 -1.6541
11640SOL     OW37811   8.590   6.119   0.275  0.4128  0.4682 -0.3843
11640SOL    HW137812   8.508   6.143   0.319  0.0592 -3.0774  1.2966
11640SOL    HW237813   8.656   6.124   0.344  0.4885 -1.9265 -0.1843
11641SOL     OW37814   6.479   1.535   5.745  0.3664 -0.1904 -0.0956
11641SOL    HW137815   6.405   1.553   5.802  0.5709  0.3916 -0.0127
11641SOL    HW237816   6.502   1.620   5.708  0.2902 -0.5417 -0.9811
11642SOL     OW37817   6.652   4.581   8.830  0.7429  0.9568 -0.2018
11642SOL    HW137818   6.716   4.527   8.877 -3.0684 -2.4499  1.7309
11642SOL    HW237819   6.651   4.546   8.741 -0.7120 -1.4401  0.6748
11643SOL     OW37820   7.224   5.485   4.418 -0.2669 -0.3470 -0.6940
11643SOL    HW137821   7.199   5.526   4.335 -0.5491 -1.6117 -1.2611
11643SOL    HW237822   7.144   5.442   4.448  0.2932 -1.3873 -0.6687
11644SOL     OW37823   2.468   8.262   4.877  0.1883 -0.0317 -0.1053
11644SOL    HW137824   2.384   8.306   4.861  0.0605  0.0611  0.7479
11644SOL    HW237825   2.498   8.299   4.961  0.5087 -0.9264  0.1811
11645SOL     OW37826   6.807   0.272   8.952 -0.0792  0.2336  0.5225
11645SOL    HW137827   6.816   0.182   8.983 -0.9927  0.6593  2.1363
11645SOL    HW237828   6.768   0.263   8.865  1.1151 -0.9495  0.0616
11646SOL     OW37829   7.377   7.323   5.015  0.3309 -0.1511 -0.2897
11646SOL    HW137830   7.324   7.256   5.057 -0.6600  0.4741 -0.5039
11646SOL    HW237831   7.393   7.291   4.927 -0.8870  0.2674 -0.6815
11647SOL     OW37832   4.874   5.827   6.082  0.2357  0.1708  0.7115
11647SOL    HW137833   4.786   5.819   6.119 -0.1295 -0.4857 -0.2906
11647SOL    HW237834   4.863   5.815   5.988  1.1525  1.8833  0.3432
11648SOL     OW37835   2.195   4.888   0.813  0.2843 -0.2637  0.0875
11648SOL    HW137836   2.114   4.938   0.827 -1.7007 -3.1217 -0.2836
11648SOL    HW237837   2.183   4.846   0.728  1.0130 -2.6955  1.0957
11649SOL     OW37838   1.296   7.205   7.347 -0.0789 -0.4665 -0.2775
11649SOL    HW137839   1.266   7.137   7.408  1.4721 -0.2351  0.8166
11649SOL    HW237840   1.368   7.248   7.394 -0.7643  1.6752 -1.0991
11650SOL     OW37841   2.538   0.526   9.291 -0.0340  0.4570  0.0030
11650SOL    HW137842   2.451   0.548   9.256  0.3844  1.0613 -0.6795
11650SOL    HW237843   2.579   0.475   9.221  0.1893  0.2376  0.2926
11651SOL     OW37844   6.780   6.678   6.740  0.1955  0.1542 -0.6788
11651SOL    HW137845   6.686   6.661   6.734 -0.3246  2.8204 -1.1800
11651SOL    HW237846   6.790   6.727   6.822  0.9234  1.0893 -1.3193
11652SOL     OW37847   1.552   0.080   8.425 -0.6534 -0.5458 -0.0115
11652SOL    HW137848   1.569   0.044   8.338 -0.4704  0.2664 -0.3226
11652SOL    HW237849   1.621   0.145   8.437 -2.5731  1.7707 -0.6838
11653SOL     OW37850   7.869   4.957   0.819 -0.5462 -0.0930  0.2878
11653SOL    HW137851   7.790   4.904   0.815  0.1568 -1.1974  0.6364
11653SOL    HW237852   7.941   4.894   0.811  0.3443  0.6692  1.7935
11654SOL     OW37853   0.403   1.871   7.001  0.2548 -0.1521  0.0432
11654SOL    HW137854   0.347   1.795   7.015  1.7007 -1.5061 -1.1292
11654SOL    HW237855   0.344   1.938   6.966 -0.6445 -1.6087 -1.4150
11655SOL     OW37856   5.658   4.037   5.696 -0.4062 -0.1785  0.5283
11655SOL    HW137857   5.724   4.035   5.766 -0.7335  2.2375  0.9852
11655SOL    HW237858   5.701   4.083   5.624 -1.4219  1.0763  0.6893
11656SOL     OW37859   2.966   2.988   6.488 -0.0813 -0.0109  0.0753
11656SOL    HW137860   3.006   3.074   6.489  2.7744 -1.2028 -0.7668
11656SOL    HW237861   3.006   2.941   6.561 -1.1884 -0.8064  0.2064
11657SOL     OW37862   8.346   3.530   4.718 -0.4117  0.1491 -0.0504
11657SOL    HW137863   8.380   3.616   4.742  0.7998  0.2065 -1.7649
11657SOL    HW237864   8.416   3.491   4.666 -1.2428 -1.5848  0.0657
11658SOL     OW37865   1.144   5.180   3.195  0.0537  0.4387 -0.3594
11658SOL    HW137866   1.057   5.220   3.188 -0.3459 -0.5245 -1.1987
11658SOL    HW237867   1.160   5.173   3.289 -1.7419 -1.3175 -0.1149
11659SOL     OW37868   0.382   8.940   4.176  0.1581  0.0630  0.4353
11659SOL    HW137869   0.459   8.909   4.128  0.5454 -0.0830  1.1433
11659SOL    HW237870   0.313   8.944   4.110  0.4888 -0.8577  0.0249
11660SOL     OW37871   0.674   2.985   5.897  0.2789  0.2341  0.0428
11660SOL    HW137872   0.646   3.064   5.850  0.7573  0.6565  0.4574
11660SOL    HW237873   0.740   3.016   5.959  1.7327 -0.7358 -0.9491
11661SOL     OW37874   4.858   7.285   8.662 -0.3608 -0.2491  0.3345
11661SOL    HW137875   4.834   7.195   8.638  2.7360 -1.8103  2.4329
11661SOL    HW237876   4.862   7.284   8.757 -0.5273  2.2432  0.4130
11662SOL     OW37877   5.072   8.222   6.717 -0.1948 -0.3065 -0.4300
11662SOL    HW137878   5.141   8.288   6.710 -1.1877  1.0476  1.4582
11662SOL    HW237879   5.119   8.140   6.732  1.0922  0.7326  1.9576
11663SOL     OW37880   3.502   1.695   1.783  0.7825  0.4525  0.2330
11663SOL    HW137881   3.460   1.660   1.861  0.8783 -2.0158 -0.7131
11663SOL    HW237882   3.594   1.669   1.792  0.5506 -1.1031 -1.2462
11664SOL     OW37883   3.494   6.628   5.058 -0.8296 -0.3351 -0.0833
11664SOL    HW137884   3.590   6.626   5.056 -0.8425 -2.2752 -0.2228
11664SOL    HW237885   3.471   6.573   5.133 -1.8368  0.5791  0.2912
11665SOL     OW37886   7.834   2.385   8.852 -0.2017 -0.1692 -0.0787
11665SOL    HW137887   7.795   2.305   8.816 -2.3696  0.9502 -0.3438
11665SOL    HW237888   7.876   2.356   8.933  0.9466 -1.9336 -1.2367
11666SOL     OW37889   1.233   4.906   5.611  0.5454 -0.5119 -0.2135
11666SOL    HW137890   1.250   4.998   5.633  1.0528 -0.8697  1.0138
11666SOL    HW237891   1.138   4.900   5.604  0.2163 -0.5116  2.9041
11667SOL     OW37892   0.249   5.116   0.582 -0.0762  0.1249 -0.1026
11667SOL    HW137893   0.289   5.181   0.523 -0.8351  0.5454 -0.1582
11667SOL    HW237894   0.208   5.052   0.524 -0.2693  0.1876 -0.0346
11668SOL     OW37895   9.052   0.210   5.859 -0.4213  0.4373 -0.4728
11668SOL    HW137896   9.071   0.123   5.823 -2.0300  0.0884 -0.5242
11668SOL    HW237897   9.081   0.270   5.791  1.4889  0.0160 -0.0967
11669SOL     OW37898   7.757   6.261   4.031 -0.2179 -0.6396 -0.3519
11669SOL    HW137899   7.799   6.277   3.946 -0.6444 -1.0271 -0.6421
11669SOL    HW237900   7.696   6.189   4.014 -0.5728 -0.4755  0.2013
11670SOL     OW37901   3.034   3.149   8.063  0.4918  0.0135  0.0727
11670SOL    HW137902   3.052   3.082   8.129 -0.4629 -1.7121 -1.3252
11670SOL    HW237903   2.965   3.203   8.102  0.6028 -0.3824  0.8489
11671SOL     OW37904   0.518   2.302   8.840 -0.0547 -0.4570  0.3911
11671SOL    HW137905   0.589   2.251   8.878 -1.3717 -1.2315  1.9325
11671SOL    HW237906   0.556   2.389   8.825  0.7142 -0.2703  3.0118
11672SOL     OW37907   1.443   6.141   4.776  0.0246  0.1086 -0.2899
11672SOL    HW137908   1.378   6.071   4.782  2.5002 -2.2822  0.2899
11672SOL    HW237909   1.427   6.195   4.854 -1.8887  0.2481 -0.7229
11673SOL     OW37910   5.114   8.319   4.332  0.9670 -0.8868 -0.0886
11673SOL    HW137911   5.099   8.409   4.361  1.7012 -1.2825  1.6740
11673SOL    HW237912   5.036   8.296   4.283 -0.3547 -0.0913  1.5371
11674SOL     OW37913   0.549   8.426   1.826 -0.0656  0.3674 -0.0276
11674SOL    HW137914   0.607   8.500   1.842 -0.7353  0.7856  0.4894
11674SOL    HW237915   0.551   8.414   1.731  1.0663  0.1979  0.0020
11675SOL     OW37916   7.470   7.064   2.395  0.3170  0.1127  0.6523
11675SOL    HW137917   7.528   7.131   2.430  0.2142  0.7537 -0.3701
11675SOL    HW237918   7.517   7.026   2.321  0.2941 -0.8339  1.0957
11676SOL     OW37919   4.489   3.845   6.589 -0.2564  0.3382  0.0622
11676SOL    HW137920   4.564   3.858   6.531  0.2145 -0.7289  0.4093
11676SOL    HW237921   4.414   3.834   6.530 -0.1289  1.3052 -0.2872
11677SOL     OW37922   9.263   2.686   0.252 -0.1937 -0.6048  0.5045
11677SOL    HW137923   9.253   2.707   0.345 -2.6248  0.8548 -0.0024
11677SOL    HW237924   9.177   2.652   0.226 -0.0003  0.3348 -1.4973
11678SOL     OW37925   4.591   7.620   3.812 -0.3285  0.0515  0.0259
11678SOL    HW137926   4.598   7.714   3.826 -0.7318 -0.0397  0.9027
11678SOL    HW237927   4.643   7.581   3.882 -2.9469 -0.4297  1.8259
11679SOL     OW37928   2.515   6.344   2.210  0.3836  0.0059  0.8580
11679SOL    HW137929   2.552   6.257   2.193 -0.3781 -0.0806 -0.4610
11679SOL    HW237930   2.592   6.399   2.229  1.2214 -0.2755 -1.3830
11680SOL     OW37931   6.049   8.197   3.495  0.1716  0.0521 -0.4996
11680SOL    HW137932   6.143   8.211   3.492  0.1298  0.7963  0.9867
11680SOL    HW237933   6.011   8.283   3.477 -0.2288 -0.1845 -0.8226
11681SOL     OW37934   2.834   1.540   3.570  0.4002 -1.1688  0.5357
11681SOL    HW137935   2.748   1.513   3.539 -0.5508  2.6080 -0.6592
11681SOL    HW237936   2.820   1.562   3.662 -1.3096  3.4381 -0.5338
11682SOL     OW37937   0.275   6.247   0.506  0.2809 -0.0246  0.2953
11682SOL    HW137938   0.285   6.204   0.591 -2.1227 -0.1524  0.5844
11682SOL    HW237939   0.283   6.177   0.442  1.3092 -0.0534  0.4391
11683SOL     OW37940   5.746   0.506   6.443 -0.2917 -0.5220 -0.5438
11683SOL    HW137941   5.692   0.568   6.491 -0.6620 -1.7286  0.6810
11683SOL    HW237942   5.756   0.432   6.503  0.1142 -1.6525 -1.9444
11684SOL     OW37943   8.091   7.995   1.057  0.0932  0.1481  0.5199
11684SOL    HW137944   8.084   7.998   1.153  0.4436  0.5581  0.5346
11684SOL    HW237945   8.184   8.007   1.039  0.0700 -0.2134  0.1328
11685SOL     OW37946   4.193   0.675   0.600  0.1602 -1.1587 -0.2893
11685SOL    HW137947   4.132   0.625   0.545 -3.8491 -0.0362  2.7453
11685SOL    HW237948   4.192   0.630   0.684 -0.1103  1.4755  1.2102
11686SOL     OW37949   5.144   2.412   2.271  0.6061  0.3051 -0.1408
11686SOL    HW137950   5.088   2.420   2.348 -0.7124 -1.8667 -0.8049
11686SOL    HW237951   5.090   2.442   2.198  1.5318  1.4723 -0.3794
11687SOL     OW37952   1.121   8.885   2.919 -0.7132  0.1829  0.3907
11687SOL    HW137953   1.139   8.811   2.978 -0.4218 -0.8622 -0.9439
11687SOL    HW237954   1.200   8.939   2.923  1.0209 -1.9320 -1.8876
11688SOL     OW37955   1.334   4.000   7.050 -0.0061 -0.4044  0.1412
11688SOL    HW137956   1.279   3.922   7.037  2.1780 -2.2124  1.0155
11688SOL    HW237957   1.308   4.060   6.980 -2.7239 -1.3084  0.2518
11689SOL     OW37958   1.739   3.923   9.272 -0.1540 -0.5328  0.5554
11689SOL    HW137959   1.721   4.000   9.218  0.7526 -1.8849 -1.8315
11689SOL    HW237960   1.673   3.859   9.247  0.4138 -1.2793  0.9186
11690SOL     OW37961   4.436   3.963   9.326 -0.2273 -0.3301  0.0363
11690SOL    HW137962   4.426   4.056   9.309 -0.0822 -0.1884  0.7071
11690SOL    HW237963   4.437   3.923   9.239 -1.6112  0.1466 -0.2372
11691SOL     OW37964   7.855   8.051   8.372 -0.4846  0.0995 -0.2045
11691SOL    HW137965   7.911   8.128   8.361  0.5506 -0.5034  0.6461
11691SOL    HW237966   7.829   8.053   8.464 -0.3032 -0.6698 -0.1319
11692SOL     OW37967   5.094   7.753   2.032 -0.3361  0.1004 -0.0986
11692SOL    HW137968   5.165   7.689   2.027 -0.8097 -0.4263 -0.1324
11692SOL    HW237969   5.127   7.830   1.985 -0.2794 -0.5958 -1.2312
11693SOL     OW37970   8.522   4.849   6.495  0.8878 -0.2592  0.0128
11693SOL    HW137971   8.448   4.909   6.489 -0.1365 -1.5360 -0.4206
11693SOL    HW237972   8.527   4.807   6.409  1.2628 -1.1632  0.4642
11694SOL     OW37973   1.722   4.664   4.574 -0.3410 -0.2142  0.0877
11694SOL    HW137974   1.716   4.651   4.669  0.1085 -2.6609 -0.1603
11694SOL    HW237975   1.632   4.681   4.547 -0.4950  0.3859  0.9249
11695SOL     OW37976   2.830   1.924   0.528  0.4833 -0.4801  0.4183
11695SOL    HW137977   2.889   1.999   0.532 -0.2620  0.0872  1.1177
11695SOL    HW237978   2.856   1.869   0.602 -0.2048  0.0470  1.0700
11696SOL     OW37979   0.427   7.018   1.325  0.1536  0.7854  0.0508
11696SOL    HW137980   0.395   7.003   1.236 -0.1767 -0.0483  0.3024
11696SOL    HW237981   0.521   7.002   1.319  0.0077 -0.0900  0.0208
11697SOL     OW37982   4.322   5.117   5.080 -0.0257  0.3344 -0.0210
11697SOL    HW137983   4.243   5.066   5.101  0.3380  0.1026  0.8345
11697SOL    HW237984   4.363   5.068   5.009 -0.5844  0.3829 -0.3837
11698SOL     OW37985   5.066   0.019   6.384  0.3378 -0.1428 -0.6356
11698SOL    HW137986   5.107   0.094   6.341  0.6239  0.4811  0.6731
11698SOL    HW237987   5.126  -0.054   6.367  0.4174  0.0750 -1.3167
11699SOL     OW37988   4.571   6.536   6.421 -0.0239  1.5233 -0.1278
11699SOL    HW137989   4.604   6.552   6.510  2.4727  0.9732 -0.8638
11699SOL    HW237990   4.558   6.623   6.384  1.9857  1.8592 -0.1980
11700SOL     OW37991   3.921   2.539   1.421  0.0392  0.2532 -0.1175
11700SOL    HW137992   3.951   2.458   1.461 -0.8887 -0.0896 -0.1067
11700SOL    HW237993   3.887   2.591   1.494 -0.7834  0.0126 -0.3174
11701SOL     OW37994   3.915   2.338   5.090 -0.2550  0.0770  0.1603
11701SOL    HW137995   3.899   2.403   5.159 -0.1050 -0.2086  0.4651
11701SOL    HW237996   3.968   2.271   5.132  0.3268  0.1856 -0.3898
11702SOL     OW37997   8.952   2.532   8.903  0.1842  0.0061  0.2562
11702SOL    HW137998   8.913   2.497   8.983 -0.6038  0.2602 -0.0081
11702SOL    HW237999   9.038   2.564   8.930 -0.6388  1.4232  1.3106
11703SOL     OW38000   9.285   2.860   4.760  0.0291  0.3007  0.0643
11703SOL    HW138001   9.204   2.902   4.788  0.9104  1.8860  0.3414
11703SOL    HW238002   9.312   2.808   4.835 -0.9081 -0.5476 -0.1642
11704SOL     OW38003   5.414   8.073   7.331 -0.0567 -0.2080  0.7292
11704SOL    HW138004   5.506   8.069   7.305 -0.2258  1.0808 -0.1691
11704SOL    HW238005   5.407   8.155   7.380 -0.7822 -0.1715  0.5664
11705SOL     OW38006   3.200   2.971   1.213  0.7069  0.2750 -0.0769
11705SOL    HW138007   3.127   2.928   1.168  0.4477  1.7444 -1.1217
11705SOL    HW238008   3.220   2.912   1.285 -0.2966 -1.0886 -0.8386
11706SOL     OW38009   4.307   0.368   3.902  0.5373  0.4308 -0.4258
11706SOL    HW138010   4.380   0.367   3.963  1.0744  1.1862 -1.0268
11706SOL    HW238011   4.289   0.461   3.888  0.4338  0.2798 -1.4035
11707SOL     OW38012   2.519   9.359   4.944  0.0759 -0.1674 -0.2604
11707SOL    HW138013   2.539   9.441   4.899 -1.2834  0.5472  0.3975
11707SOL    HW238014   2.513   9.382   5.036  1.5093 -1.3747  0.1714
11708SOL     OW38015   6.167   3.479   5.419 -0.0335 -0.2970  0.3653
11708SOL    HW138016   6.194   3.562   5.459  3.7043 -1.1987  0.0950
11708SOL    HW238017   6.088   3.501   5.369  0.0676  2.7626  1.3316
11709SOL     OW38018   6.555   6.966   9.348 -0.5352 -0.2081  0.1476
11709SOL    HW138019   6.626   7.022   9.316  0.2433 -1.2925 -0.1096
11709SOL    HW238020   6.581   6.944   9.438 -1.6373  1.0956  0.8168
11710SOL     OW38021   0.355   1.456   6.206  0.2192 -0.0000  0.0964
11710SOL    HW138022   0.320   1.422   6.123  0.3301 -0.2379  0.1471
11710SOL    HW238023   0.422   1.393   6.231 -0.9592 -0.8504  1.2414
11711SOL     OW38024   1.348   0.854   3.317  0.3506 -0.7262 -0.2729
11711SOL    HW138025   1.413   0.788   3.340 -0.9012 -1.9961 -0.2308
11711SOL    HW238026   1.275   0.838   3.377 -0.1312  0.4569 -0.5148
11712SOL     OW38027   8.480   2.088   5.904 -0.1285 -0.1107  0.2827
11712SOL    HW138028   8.415   2.122   5.966  1.3387 -0.4510  2.0950
11712SOL    HW238029   8.464   1.994   5.902 -1.4059  0.1070 -1.3952
11713SOL     OW38030   6.784   5.935   4.457  0.4558 -0.2631  0.7520
11713SOL    HW138031   6.802   6.009   4.398  1.4702 -0.1159  1.2243
11713SOL    HW238032   6.689   5.925   4.455  0.4700 -0.2204 -0.8530
11714SOL     OW38033   7.608   4.310   4.261  0.0202  0.2495  0.2919
11714SOL    HW138034   7.692   4.280   4.295  1.0686  1.4552 -1.1057
11714SOL    HW238035   7.553   4.232   4.262  1.8853 -1.1733 -0.8923
11715SOL     OW38036   7.948   8.434   5.068  0.2145  0.0726 -0.2263
11715SOL    HW138037   8.020   8.376   5.093  0.0440  0.2968  0.8474
11715SOL    HW238038   7.895   8.383   5.007  1.2027 -0.1385 -0.9232
11716SOL     OW38039   4.168   1.098   6.568 -0.9257  0.2198  0.0014
11716SOL    HW138040   4.164   1.056   6.482 -0.6283 -0.0092  0.0961
11716SOL    HW238041   4.210   1.182   6.552 -1.3853  0.4219 -0.1656
11717SOL     OW38042   1.061   2.220   4.209  0.5537 -0.0593  0.4927
11717SOL    HW138043   1.012   2.232   4.128  1.4434  0.7513  0.0617
11717SOL    HW238044   1.009   2.156   4.259  0.5153 -1.3339 -1.1180
11718SOL     OW38045   4.405   9.536   6.052 -0.0695  0.0413 -0.1611
11718SOL    HW138046   4.412   9.613   6.109  1.4611 -0.2498  0.0735
11718SOL    HW238047   4.313   9.537   6.023 -0.1068  1.9379 -0.1476
11719SOL     OW38048   4.673   9.193   3.530  0.4660  0.2653  0.0142
11719SOL    HW138049   4.766   9.205   3.546  0.2897 -0.9691  2.4974
11719SOL    HW238050   4.663   9.200   3.435  3.0148  0.7371 -0.2733
11720SOL     OW38051   2.123   6.880   2.282  0.5756  0.2706  0.1585
11720SOL    HW138052   2.111   6.921   2.368 -0.5324  0.2550  0.0283
11720SOL    HW238053   2.141   6.789   2.301 -1.7481 -0.2135  0.3830
11721SOL     OW38054   3.609   0.505   1.268  0.5747  0.5943 -0.4107
11721SOL    HW138055   3.610   0.451   1.347  0.8040  0.6712 -0.3628
11721SOL    HW238056   3.701   0.521   1.247  0.5112  1.1969 -0.2664
11722SOL     OW38057   1.808   5.083   3.989  0.3932  0.5600  0.1833
11722SOL    HW138058   1.716   5.074   3.967  0.7614 -0.9457 -0.9011
11722SOL    HW238059   1.853   5.087   3.904  1.4270 -0.1515  0.6765
11723SOL     OW38060   9.452   6.012   1.583 -0.2291 -0.2084 -0.1785
11723SOL    HW138061   9.363   6.046   1.581 -0.2683 -0.3234 -0.3330
11723SOL    HW238062   9.484   6.020   1.493  0.9600  2.5988  0.3807
11724SOL     OW38063   2.861   9.319   5.618 -0.1524 -0.2274 -0.0645
11724SOL    HW138064   2.930   9.361   5.670  0.5280  0.0978 -1.1907
11724SOL    HW238065   2.902   9.240   5.582  1.2854  2.1544 -4.4471
11725SOL     OW38066   4.743   0.389   4.476 -0.2248 -0.1106 -0.7630
11725SOL    HW138067   4.686   0.416   4.404 -2.7115 -0.7894  0.8235
11725SOL    HW238068   4.705   0.430   4.554  0.7737 -1.5389  0.5545
11726SOL     OW38069   0.028   8.970   9.372  0.4491  0.1393 -0.0549
11726SOL    HW138070   0.114   9.011   9.362  0.3777  0.1155 -0.7839
11726SOL    HW238071   0.038   8.884   9.332  0.4996 -0.4411  1.1605
11727SOL     OW38072   9.548   0.719   2.040  0.6861 -0.0402  0.6663
11727SOL    HW138073   9.456   0.739   2.057  0.7152 -1.9569  3.7487
11727SOL    HW238074   9.588   0.805   2.023 -1.4074  0.9382  0.3475
11728SOL     OW38075   6.413   3.022   2.600  0.2108 -0.2657  0.2438
11728SOL    HW138076   6.416   3.005   2.694 -0.3809 -1.2836  0.1037
11728SOL    HW238077   6.376   3.110   2.592 -0.0113 -0.2884  0.9617
11729SOL     OW38078   3.521   4.762   4.970 -0.5360 -0.3265  0.1908
11729SOL    HW138079   3.552   4.719   4.890 -1.3107 -0.7600  0.1149
11729SOL    HW238080   3.600   4.798   5.010 -0.1326 -0.1327 -0.7543
11730SOL     OW38081   8.792   4.079   5.262 -0.2992  0.1826  0.0449
11730SOL    HW138082   8.752   4.115   5.183  1.7402  0.7419 -0.7970
11730SOL    HW238083   8.781   3.984   5.253 -0.4773  0.2687 -0.6979
11731SOL     OW38084   6.689   1.528   4.660 -0.0841 -0.0087 -0.1642
11731SOL    HW138085   6.597   1.546   4.640 -0.2399 -0.4724  0.1228
11731SOL    HW238086   6.729   1.615   4.667 -0.1793  0.1978 -1.7172
11732SOL     OW38087   1.728   6.395   7.349  0.2637 -0.5101 -0.6848
11732SOL    HW138088   1.816   6.358   7.350  0.5483  0.1575 -0.6317
11732SOL    HW238089   1.691   6.371   7.434  1.7599  2.3895  0.9148
11733SOL     OW38090   8.583   0.562   3.975  0.1399  0.1165  0.4444
11733SOL    HW138091   8.604   0.635   3.917  0.1166 -0.5368 -0.4090
11733SOL    HW238092   8.655   0.500   3.963 -0.4246 -0.5152  0.2677
11734SOL     OW38093   0.331   2.857   3.594  0.7159 -0.0644  0.7117
11734SOL    HW138094   0.365   2.876   3.681  1.5528 -0.1296  0.4091
11734SOL    HW238095   0.409   2.853   3.538  0.4232 -2.2542  0.3623
11735SOL     OW38096   1.309   1.851   3.092  0.6199  0.2746  0.5606
11735SOL    HW138097   1.377   1.790   3.120 -0.0024 -0.0811  1.3269
11735SOL    HW238098   1.312   1.848   2.997  1.3899 -0.0540  0.5886
11736SOL     OW38099   0.671   3.064   9.507  0.3424  0.2805 -0.0572
11736SOL    HW138100   0.634   3.072   9.595 -0.9136 -0.8566 -0.4466
11736SOL    HW238101   0.720   3.145   9.495  0.0545  0.7241  1.4617
11737SOL     OW38102   8.000   9.452   6.295  0.0606  0.1020  0.2101
11737SOL    HW138103   7.981   9.467   6.388 -0.0333  0.3305  0.1555
11737SOL    HW238104   8.094   9.433   6.292 -0.2302 -1.5789  0.5512
11738SOL     OW38105   4.888   1.861   2.769 -0.4014 -0.1067  0.0775
11738SOL    HW138106   4.801   1.902   2.772 -1.1717 -1.7226  2.3366
11738SOL    HW238107   4.871   1.767   2.765  1.2622 -0.4325 -0.1997
11739SOL     OW38108   0.151   3.209   7.272 -0.4600  0.0523  0.3903
11739SOL    HW138109   0.143   3.235   7.181 -0.2752  0.0941  0.3847
11739SOL    HW238110   0.062   3.210   7.306 -0.4458  0.7999  0.4199
11740SOL     OW38111   8.818   8.916   2.507  0.1130 -0.0879 -0.1921
11740SOL    HW138112   8.804   8.992   2.564  0.4969  1.3034 -1.8818
11740SOL    HW238113   8.867   8.855   2.562 -2.6997 -0.4412  2.1735
11741SOL     OW38114   5.243   0.821   9.018 -0.6385 -0.0392 -0.1619
11741SOL    HW138115   5.274   0.746   9.069 -1.8293 -1.2153 -1.0793
11741SOL    HW238116   5.148   0.821   9.032 -0.6561  1.2891 -0.2079
11742SOL     OW38117   8.674   6.939   4.709 -0.0488  0.3743  0.3177
11742SOL    HW138118   8.701   6.854   4.744 -2.6306 -0.0634  1.5722
11742SOL    HW238119   8.720   7.003   4.763  0.9370 -0.2216  0.2104
11743SOL     OW38120   8.900   7.279   3.023  0.1765 -0.1515  0.1889
11743SOL    HW138121   8.964   7.232   3.076  1.3570  1.0305 -0.1245
11743SOL    HW238122   8.830   7.216   3.009  1.3907 -1.6002  0.3079
11744SOL     OW38123   7.130   8.167   7.084 -0.1506  0.0419 -0.1998
11744SOL    HW138124   7.223   8.160   7.065  0.2722 -0.2278  1.8366
11744SOL    HW238125   7.087   8.145   7.001  1.5658 -1.1239 -0.8198
11745SOL     OW38126   4.946   0.985   1.367 -0.2154 -0.1010  0.2257
11745SOL    HW138127   5.020   0.965   1.425 -1.8159 -2.4726  1.6389
11745SOL    HW238128   4.927   0.902   1.323  0.0838  1.2989 -2.8200
11746SOL     OW38129   7.622   2.747   4.656  0.0956  0.3269 -0.2999
11746SOL    HW138130   7.632   2.714   4.745  0.3235  1.3572  0.0757
11746SOL    HW238131   7.531   2.727   4.634 -0.4006  1.2939  0.7152
11747SOL     OW38132   1.769   0.966   3.492  0.7715 -0.0079  0.3050
11747SOL    HW138133   1.737   1.004   3.410 -0.5480 -0.3828  0.6077
11747SOL    HW238134   1.696   0.977   3.553  1.1054 -1.2251  0.9580
11748SOL     OW38135   3.794   5.058   3.120 -0.7720 -0.1258 -0.1532
11748SOL    HW138136   3.838   5.089   3.041 -1.1802 -1.4463 -0.9450
11748SOL    HW238137   3.702   5.048   3.093 -0.8499 -0.9148  0.3652
11749SOL     OW38138   4.504   4.804   2.773  0.4333  0.5882 -0.3976
11749SOL    HW138139   4.540   4.864   2.838  0.7265  2.5875 -2.2881
11749SOL    HW238140   4.552   4.824   2.692  0.1076 -1.8058 -1.2721
11750SOL     OW38141   9.540   7.542   4.474 -0.3590  0.0579 -0.5197
11750SOL    HW138142   9.618   7.496   4.442 -0.3449 -1.3307  1.3636
11750SOL    HW238143   9.483   7.548   4.397  1.2533  0.4409 -1.7650
11751SOL     OW38144   1.142   6.306   3.979  0.2783  0.1969  0.1770
11751SOL    HW138145   1.237   6.313   3.994  0.4546 -1.1055 -0.1833
11751SOL    HW238146   1.131   6.334   3.888 -0.0447  2.7110  0.9210
11752SOL     OW38147   1.694   0.678   2.463 -0.3138  0.7531 -0.2760
11752SOL    HW138148   1.762   0.665   2.397 -0.1796 -0.6452  0.1149
11752SOL    HW238149   1.625   0.616   2.440 -0.1318  0.0193  1.0516
11753SOL     OW38150   4.470   6.614   0.345 -0.1723 -0.1892  0.3362
11753SOL    HW138151   4.532   6.674   0.387  1.3676 -0.1286 -1.8114
11753SOL    HW238152   4.400   6.671   0.313 -0.4811 -0.0211  1.2821
11754SOL     OW38153   5.810   4.207   4.649 -0.2229  0.0943  0.1540
11754SOL    HW138154   5.861   4.226   4.571  2.6376 -0.3464  1.7874
11754SOL    HW238155   5.759   4.287   4.664 -0.3893  0.3923 -1.7929
11755SOL     OW38156   4.643   7.936   6.878  0.0959  0.0193 -0.2463
11755SOL    HW138157   4.644   7.842   6.890  0.2125 -0.0918 -1.0332
11755SOL    HW238158   4.561   7.966   6.916  0.7520 -0.1885  1.4105
11756SOL     OW38159   9.359   1.489   9.624  0.1359  0.1652 -0.4350
11756SOL    HW138160   9.417   1.442   9.565 -1.5091 -1.4412 -0.8689
11756SOL    HW238161   9.417   1.532   9.686  1.7876 -0.6760 -1.3435
11757SOL     OW38162   1.546   1.378   4.365 -0.0312 -0.3148 -0.4584
11757SOL    HW138163   1.510   1.433   4.434  0.6538 -1.6302  1.0070
11757SOL    HW238164   1.488   1.392   4.290 -0.8018  1.1391  0.3683
11758SOL     OW38165   7.413   5.481   9.475 -0.3520 -0.5491  0.0806
11758SOL    HW138166   7.502   5.494   9.442 -0.7118  1.8596 -0.0587
11758SOL    HW238167   7.421   5.489   9.570 -0.4070 -0.5224  0.0825
11759SOL     OW38168   0.093   5.605   1.607 -0.1267 -0.0541  0.6118
11759SOL    HW138169  -0.002   5.599   1.620 -1.0293  3.5003 -2.3500
11759SOL    HW238170   0.118   5.686   1.652  0.9204  0.3871 -0.6974
11760SOL     OW38171   3.027   7.075   5.558  0.4136 -0.2140 -0.4426
11760SOL    HW138172   3.065   7.163   5.559 -0.5341  0.2196  0.2670
11760SOL    HW238173   2.984   7.069   5.473 -2.2258  1.2984  0.6510
11761SOL     OW38174   7.942   4.642   1.298  0.0206  0.4145  0.0247
11761SOL    HW138175   7.975   4.554   1.314 -1.6197 -0.5830 -1.6862
11761SOL    HW238176   8.012   4.700   1.328  2.0552 -1.4978 -0.7782
11762SOL     OW38177   3.609   8.010   4.643 -0.5538  0.0879 -0.3542
11762SOL    HW138178   3.631   8.079   4.580  0.1538 -0.2039 -0.4339
11762SOL    HW238179   3.637   7.929   4.600 -2.9725 -0.4815 -1.0413
11763SOL     OW38180   7.281   7.117   9.617 -0.4594 -0.1345 -0.0397
11763SOL    HW138181   7.233   7.198   9.634  0.0124 -0.2089  2.0105
11763SOL    HW238182   7.338   7.137   9.543 -1.9281  0.6940 -0.9701
11764SOL     OW38183   6.794   4.000   1.176 -0.6028  0.0966 -0.1207
11764SOL    HW138184   6.722   3.984   1.238  0.7207 -0.1041  1.4348
11764SOL    HW238185   6.786   3.929   1.112 -0.9155 -0.7932  0.8752
11765SOL     OW38186   0.837   3.796   0.850  0.0015 -0.4828  0.2492
11765SOL    HW138187   0.905   3.794   0.917 -0.8075 -1.9447  1.0982
11765SOL    HW238188   0.773   3.860   0.883  0.6504  0.4525 -0.2600
11766SOL     OW38189   6.711   0.364   1.170  0.4902 -0.5210 -0.0359
11766SOL    HW138190   6.697   0.458   1.156  1.6186 -0.6037 -2.1651
11766SOL    HW238191   6.640   0.322   1.122  0.4383 -0.7757  0.2607
11767SOL     OW38192   4.558   3.686   4.935 -0.5350  0.2203 -0.2515
11767SOL    HW138193   4.577   3.618   4.999 -0.6553 -0.2165 -0.6790
11767SOL    HW238194   4.564   3.768   4.985  1.0228  0.0187 -0.0478
11768SOL     OW38195   3.547   2.243   1.997 -0.1489  0.0204 -0.3619
11768SOL    HW138196   3.628   2.293   1.991 -1.3303  2.3391  1.3674
11768SOL    HW238197   3.534   2.207   1.909  4.7099 -3.9441  0.1074
11769SOL     OW38198   4.058   3.690   3.564  0.0164  0.5829 -0.4490
11769SOL    HW138199   4.066   3.626   3.493  1.4803  0.4412 -0.1894
11769SOL    HW238200   3.972   3.673   3.602 -0.2823 -0.1501 -1.4155
11770SOL     OW38201   1.875   0.947   4.863 -0.2434  0.0444  0.1299
11770SOL    HW138202   1.863   0.979   4.953  2.0886  1.8875 -0.1096
11770SOL    HW238203   1.898   1.025   4.813  0.1409 -1.2048 -1.7420
11771SOL     OW38204   4.587   4.865   1.275 -0.3928  0.8071 -0.0025
11771SOL    HW138205   4.558   4.904   1.193 -0.6897  0.8582  0.1223
11771SOL    HW238206   4.525   4.898   1.340 -1.8993 -1.3787 -0.1966
11772SOL     OW38207   2.209   0.331   6.414 -0.0660 -0.0373 -0.2670
11772SOL    HW138208   2.260   0.402   6.375 -0.3320 -0.0460 -0.6411
11772SOL    HW238209   2.272   0.282   6.467  0.4225 -0.3296 -1.0997
11773SOL     OW38210   4.093   0.959   1.041 -0.2631 -0.4181  0.2841
11773SOL    HW138211   4.027   0.920   1.098  0.5325  0.9177  2.2487
11773SOL    HW238212   4.043   1.013   0.980 -1.1384 -1.9010 -0.3658
11774SOL     OW38213   2.390   2.551   0.467  0.1071  0.4460  0.2224
11774SOL    HW138214   2.462   2.495   0.436  0.9441  0.7542  1.5202
11774SOL    HW238215   2.312   2.515   0.425  1.0923  0.5840 -1.8700
11775SOL     OW38216   4.027   6.885   6.449  0.8591  0.1046 -0.5037
11775SOL    HW138217   3.985   6.803   6.424 -3.0490  2.0436 -1.0893
11775SOL    HW238218   3.987   6.908   6.533  1.2861  1.7513 -0.7104
11776SOL     OW38219   2.536   4.287   8.324 -0.7001 -0.3442 -0.6887
11776SOL    HW138220   2.596   4.224   8.284 -1.1250 -1.4869  0.4189
11776SOL    HW238221   2.502   4.242   8.402 -0.1359  1.6684  0.8057
11777SOL     OW38222   5.766   4.971   8.226  0.2709  0.1279 -0.0745
11777SOL    HW138223   5.757   4.956   8.320  1.8467  1.5787  0.3555
11777SOL    HW238224   5.860   4.961   8.209  0.2419  1.4479 -1.1797
11778SOL     OW38225   2.571   1.191   6.686  0.1848  0.2599  0.4447
11778SOL    HW138226   2.482   1.192   6.723  0.2131  0.9763  0.5059
11778SOL    HW238227   2.618   1.258   6.735  1.0619 -0.8094  1.1187
11779SOL     OW38228   0.265   1.727   0.192  0.4154 -0.3660  0.2590
11779SOL    HW138229   0.251   1.778   0.271  1.2930 -1.9734  1.5222
11779SOL    HW238230   0.228   1.641   0.212 -0.3497 -0.4987 -1.5153
11780SOL     OW38231   2.162   4.562   0.612 -0.0136  0.2311 -0.1715
11780SOL    HW138232   2.122   4.510   0.681 -1.6599  0.0160 -1.2497
11780SOL    HW238233   2.250   4.525   0.602  0.5552  0.7926  2.3275
11781SOL     OW38234   7.983   6.630   9.179 -0.1673  0.1729  0.0786
11781SOL    HW138235   7.923   6.597   9.247 -0.1649  1.3633  0.6905
11781SOL    HW238236   8.068   6.636   9.222  0.1673 -0.4364 -0.4684
11782SOL     OW38237   5.554   5.349   0.896  0.1523 -0.5788  0.1271
11782SOL    HW138238   5.589   5.395   0.973 -2.7564  3.3337 -0.5424
11782SOL    HW238239   5.618   5.366   0.827  0.3669  0.3303  0.5323
11783SOL     OW38240   4.671   8.651   2.906 -0.0160 -0.2918  0.1351
11783SOL    HW138241   4.729   8.698   2.846 -0.0173  1.3693  1.3837
11783SOL    HW238242   4.591   8.635   2.854  0.6357 -0.5007 -0.8394
11784SOL     OW38243   2.126   5.670   5.684  0.3186  0.1036  0.4812
11784SOL    HW138244   2.178   5.616   5.743 -0.8481 -0.1712  1.3081
11784SOL    HW238245   2.036   5.658   5.714 -0.4861 -0.9744 -2.1095
11785SOL     OW38246   2.702   4.329   3.934 -0.1641  0.1073 -0.2282
11785SOL    HW138247   2.766   4.395   3.906 -0.5236  2.2793  3.3076
11785SOL    HW238248   2.618   4.375   3.931 -0.8840 -1.1805 -0.4465
11786SOL     OW38249   4.246   8.703   4.444  0.0751  0.1241 -0.7936
11786SOL    HW138250   4.178   8.645   4.410  2.7089 -2.4380 -2.2200
11786SOL    HW238251   4.201   8.761   4.506 -3.3188 -1.3191 -1.7082
11787SOL     OW38252   7.202   5.970   3.618 -0.1647  0.8425 -0.3481
11787SOL    HW138253   7.263   5.928   3.679 -1.3645  0.1759  0.4208
11787SOL    HW238254   7.237   6.059   3.607  0.6368  0.6452  0.4970
11788SOL     OW38255   7.979   2.896   4.971  0.1309  0.7538 -0.2015
11788SOL    HW138256   8.000   2.865   4.883  0.6902 -1.5104  0.6843
11788SOL    HW238257   8.064   2.914   5.011  0.1892 -2.1719  1.1993
11789SOL     OW38258   8.843   5.616   2.642 -0.4577 -0.7842  0.0684
11789SOL    HW138259   8.919   5.610   2.699 -0.4944 -0.8538  0.1103
11789SOL    HW238260   8.856   5.697   2.593 -0.4771 -0.6723  0.2479
11790SOL     OW38261   3.770   8.229   2.702 -0.2650 -0.2862 -0.0217
11790SOL    HW138262   3.684   8.188   2.706  0.3549 -1.6349  0.1337
11790SOL    HW238263   3.831   8.155   2.704  0.9104  0.6739  0.7907
11791SOL     OW38264   1.113   0.286   8.450 -0.1155 -0.0050 -0.0574
11791SOL    HW138265   1.113   0.313   8.542  0.3982 -1.4025  0.3712
11791SOL    HW238266   1.192   0.234   8.441  0.1062  0.5446 -1.4358
11792SOL     OW38267   6.161   8.478   6.897 -0.1044 -0.0238  0.8428
11792SOL    HW138268   6.229   8.440   6.842 -0.4525 -1.3866  1.3255
11792SOL    HW238269   6.207   8.540   6.953  0.3536  0.8794 -0.4959
11793SOL     OW38270   3.364   5.404   4.400  0.1969 -0.2463 -0.0687
11793SOL    HW138271   3.313   5.379   4.476 -0.0384  1.3960  0.3417
11793SOL    HW238272   3.343   5.496   4.386 -0.8662 -0.8292 -2.9846
11794SOL     OW38273   1.205   0.042   4.124  0.1242 -0.4811 -0.4326
11794SOL    HW138274   1.219  -0.038   4.174 -0.7552 -0.4854 -0.1728
11794SOL    HW238275   1.162   0.012   4.043 -1.9504 -0.1209  0.4753
11795SOL     OW38276   7.020   2.685   1.154 -0.0883 -0.0611  0.4711
11795SOL    HW138277   7.049   2.659   1.242 -2.2199 -0.2635  1.1758
11795SOL    HW238278   7.077   2.758   1.130 -0.0515  0.6069  2.4213
11796SOL     OW38279   4.363   1.006   1.057  0.4250  0.1683 -0.2548
11796SOL    HW138280   4.361   1.050   1.141 -0.6843 -1.4037  0.6032
11796SOL    HW238281   4.273   0.973   1.045  1.1800 -1.8613 -0.7772
11797SOL     OW38282   3.839   6.122   2.549 -0.6423  0.1707  0.2463
11797SOL    HW138283   3.819   6.207   2.589  0.4772  0.2683  0.6232
11797SOL    HW238284   3.893   6.078   2.614 -0.0392 -0.2701 -0.5493
11798SOL     OW38285   2.312   1.396   3.039  0.2833 -0.8882 -0.3902
11798SOL    HW138286   2.329   1.330   3.106  1.5580 -2.1583 -1.8768
11798SOL    HW238287   2.303   1.478   3.088  3.8066 -1.2858  1.2376
11799SOL     OW38288   9.355   5.612   8.983 -0.2110 -0.2079 -0.7726
11799SOL    HW138289   9.262   5.629   8.965 -0.1583  1.1938  0.1293
11799SOL    HW238290   9.356   5.573   9.070  0.0062 -1.0095 -1.1208
11800SOL     OW38291   0.327   6.378   1.130  0.2322 -0.1161  0.3721
11800SOL    HW138292   0.321   6.290   1.091  0.0022  0.3096 -0.5754
11800SOL    HW238293   0.412   6.379   1.172 -0.2162 -1.1820  1.3680
11801SOL     OW38294   8.539   7.141   3.998  0.1761  0.1577  0.1813
11801SOL    HW138295   8.601   7.102   4.059 -0.1377  0.4539  0.6918
11801SOL    HW238296   8.472   7.074   3.985  1.2365 -0.6688 -1.3643
11802SOL     OW38297   6.259   8.027   0.314  0.3891 -0.1599  0.0281
11802SOL    HW138298   6.211   8.108   0.330  1.8945  0.5841  1.0273
11802SOL    HW238299   6.234   7.970   0.387  1.5202  0.4954  0.9639
11803SOL     OW38300   3.171   8.445   6.082 -0.2778 -0.2731  0.1181
11803SOL    HW138301   3.081   8.475   6.072  0.1134  0.7964 -0.2915
11803SOL    HW238302   3.187   8.393   6.002  0.0349  1.0475 -0.7082
11804SOL     OW38303   3.601   7.317   6.285  0.1271  0.0999  0.2581
11804SOL    HW138304   3.550   7.352   6.213 -0.8478  1.8413  1.7261
11804SOL    HW238305   3.583   7.375   6.358  1.0251 -1.6272  1.9474
11805SOL     OW38306   3.411   9.296   8.759 -0.5186 -0.3079  0.1981
11805SOL    HW138307   3.405   9.353   8.836 -1.9103 -0.3814  0.1627
11805SOL    HW238308   3.408   9.207   8.795 -0.9113 -0.3431  0.0821
11806SOL     OW38309   5.873   4.476   3.062  0.0651  0.1402 -0.2008
11806SOL    HW138310   5.900   4.458   3.151  0.2290 -0.0463 -0.2890
11806SOL    HW238311   5.844   4.391   3.028  0.5272  0.1041 -0.5064
11807SOL     OW38312   1.975   3.905   2.861  0.2872 -0.5615 -0.4839
11807SOL    HW138313   1.890   3.863   2.849 -0.4983  0.5073  0.9862
11807SOL    HW238314   2.035   3.834   2.883 -0.7518 -1.0757  0.8107
11808SOL     OW38315   3.855   4.126   6.424  0.3093  0.0406  0.3434
11808SOL    HW138316   3.892   4.062   6.362 -0.5421  0.6310 -0.8311
11808SOL    HW238317   3.782   4.080   6.465 -0.1435  0.1610 -0.3122
11809SOL     OW38318   6.284   7.531   3.523  0.6417  0.1844 -0.0573
11809SOL    HW138319   6.231   7.601   3.563 -0.0101  0.8081 -1.9240
11809SOL    HW238320   6.330   7.491   3.597 -0.9840  0.8710  1.3818
11810SOL     OW38321   2.002   9.407   3.862 -0.2533 -0.0574  0.0321
11810SOL    HW138322   2.029   9.315   3.861  2.2855  0.5541  1.6704
11810SOL    HW238323   2.013   9.436   3.772 -0.9168 -1.2869 -0.4697
11811SOL     OW38324   1.769   5.872   2.396 -0.1403 -0.2181 -0.1656
11811SOL    HW138325   1.834   5.858   2.466  0.6104 -2.2323 -1.1741
11811SOL    HW238326   1.817   5.851   2.315 -1.8984 -1.3404 -0.9752
11812SOL     OW38327   1.647   4.288   7.361 -0.5127  0.4262 -0.7393
11812SOL    HW138328   1.575   4.263   7.303  0.0333  0.6520 -1.5299
11812SOL    HW238329   1.711   4.330   7.303 -0.7030  2.2341  0.2818
11813SOL     OW38330   8.033   7.791   0.708  0.2447  0.1244 -0.4787
11813SOL    HW138331   8.067   7.878   0.729  1.6946 -0.5471  0.0546
11813SOL    HW238332   8.110   7.740   0.684 -0.1366 -1.7952  1.9473
11814SOL     OW38333   4.743   4.998   8.542  0.5033  0.2693 -0.1499
11814SOL    HW138334   4.816   4.987   8.481  0.3455  0.3073 -0.3463
11814SOL    HW238335   4.665   4.984   8.489  0.2657  2.3212 -0.4444
11815SOL     OW38336   4.303   1.954   5.432  0.1599 -0.5481 -0.1258
11815SOL    HW138337   4.340   2.042   5.439 -1.7322  0.6352 -3.3097
11815SOL    HW238338   4.379   1.898   5.414  1.0868  0.9149 -1.0202
11816SOL     OW38339   3.355   0.090   0.931 -0.3794 -0.2018 -0.1460
11816SOL    HW138340   3.404   0.105   0.850 -0.8476 -0.1901 -0.4359
11816SOL    HW238341   3.410   0.030   0.981  0.1859  0.2489 -0.2157
11817SOL     OW38342   3.675   8.662   4.787  0.2555  0.0853  0.3018
11817SOL    HW138343   3.712   8.689   4.871 -0.3932  0.5615  0.4437
11817SOL    HW238344   3.582   8.686   4.792  0.1330 -0.1917 -0.4193
11818SOL     OW38345   4.500   8.869   2.542 -0.2352 -0.0959  0.2253
11818SOL    HW138346   4.515   8.893   2.451 -2.8485  1.7506  0.1473
11818SOL    HW238347   4.419   8.818   2.541  0.2482 -0.9431  1.4285
11819SOL     OW38348   6.294   6.538   3.580 -0.1224 -0.1053  0.4172
11819SOL    HW138349   6.224   6.603   3.576  0.3044  0.3109 -0.5885
11819SOL    HW238350   6.262   6.465   3.528  1.3095  1.2428 -2.5982
11820SOL     OW38351   4.941   4.046   7.567  0.4938 -0.1958 -0.2822
11820SOL    HW138352   4.920   3.958   7.597 -0.5453 -0.0877 -0.6576
11820SOL    HW238353   5.008   4.077   7.629 -0.9327 -0.3142  1.4168
11821SOL     OW38354   7.678   7.954   4.354  0.2408 -0.5366 -0.1092
11821SOL    HW138355   7.593   7.998   4.358  0.5467  0.0934 -0.5236
11821SOL    HW238356   7.670   7.882   4.417 -0.1463  0.3070  0.8363
11822SOL     OW38357   5.450   6.817   8.640 -0.3532  0.8418 -0.1143
11822SOL    HW138358   5.500   6.873   8.698 -0.2898  0.7234 -0.0557
11822SOL    HW238359   5.359   6.831   8.666 -0.3788  1.3281 -0.4566
11823SOL     OW38360   9.146   4.693   5.140  0.1050 -0.3264  0.4379
11823SOL    HW138361   9.226   4.735   5.109  0.6199 -0.0079  2.0528
11823SOL    HW238362   9.088   4.691   5.064  1.0768  0.8571 -0.3733
11824SOL     OW38363   2.348   2.571   2.160 -0.1272  0.5870 -0.3808
11824SOL    HW138364   2.325   2.525   2.241 -1.0059  2.0871  0.2619
11824SOL    HW238365   2.439   2.547   2.144 -0.8771 -2.3539 -0.8052
11825SOL     OW38366   1.174   8.738   3.142 -0.3367  0.2543 -0.3354
11825SOL    HW138367   1.148   8.646   3.144  0.6484 -0.0918 -2.0981
11825SOL    HW238368   1.125   8.778   3.215 -1.1037 -1.5521  0.1909
11826SOL     OW38369   9.358   0.979   4.471 -0.5343  0.5572 -0.5114
11826SOL    HW138370   9.426   1.028   4.517  2.4377 -3.1665 -0.4251
11826SOL    HW238371   9.354   0.895   4.518 -2.8344 -0.6035 -2.5772
11827SOL     OW38372   1.027   7.864   2.914  0.3198 -0.0939 -0.1251
11827SOL    HW138373   1.105   7.882   2.862  0.7242 -0.8530  0.2015
11827SOL    HW238374   1.060   7.820   2.992 -0.4200 -0.2494  0.1043
11828SOL     OW38375   8.339   7.610   5.333 -0.3033 -0.3488  0.5636
11828SOL    HW138376   8.352   7.518   5.308 -0.2343 -0.0503 -0.5676
11828SOL    HW238377   8.303   7.606   5.421 -1.2540 -1.5008  0.1465
11829SOL     OW38378   2.812   3.189   0.386 -0.3489 -0.5728 -0.2294
11829SOL    HW138379   2.759   3.163   0.462  1.0827  1.6207  1.6698
11829SOL    HW238380   2.757   3.251   0.339 -0.6737 -0.7897 -0.1431
11830SOL     OW38381   6.531   1.761   7.887  0.3375  0.2983  0.1624
11830SOL    HW138382   6.562   1.823   7.954 -0.0916 -0.2934  0.9192
11830SOL    HW238383   6.513   1.681   7.935 -0.3734 -0.0121 -0.6021
11831SOL     OW38384   7.267   4.793   7.960 -0.4164  0.1689  0.3229
11831SOL    HW138385   7.250   4.715   7.908  1.3945 -0.8683  1.1789
11831SOL    HW238386   7.252   4.866   7.900  0.0330 -0.9252 -1.1721
11832SOL     OW38387   3.537   3.770   2.488  1.0263  0.4456  0.4156
11832SOL    HW138388   3.605   3.821   2.533 -0.1075  2.3865  0.0353
11832SOL    HW238389   3.467   3.833   2.470  0.6756 -0.6102 -2.5189
11833SOL     OW38390   8.136   4.298   9.352  0.6879  0.1863  0.3299
11833SOL    HW138391   8.065   4.360   9.373  2.1217  2.1290 -0.2205
11833SOL    HW238392   8.119   4.271   9.262  1.8432  2.5394 -0.6862
11834SOL     OW38393   8.351   3.184   7.509  0.1727 -0.2509 -0.0213
11834SOL    HW138394   8.349   3.163   7.602 -1.5467  1.1158  0.3006
11834SOL    HW238395   8.444   3.191   7.488  0.5832  0.0919  1.7689
11835SOL     OW38396   5.263   4.382   3.295 -0.3147  0.1583 -0.0162
11835SOL    HW138397   5.206   4.359   3.221 -1.6025  0.1668  0.9469
11835SOL    HW238398   5.343   4.416   3.254 -1.9142  2.4591 -1.4262
11836SOL     OW38399   2.133   3.948   9.066 -0.1350 -0.1822 -0.1609
11836SOL    HW138400   2.092   4.003   8.999  0.0284  1.0396  0.7008
11836SOL    HW238401   2.213   3.996   9.091  0.2621 -1.0477  0.2794
11837SOL     OW38402   7.373   1.783   4.007  0.1523 -0.0351  0.8102
11837SOL    HW138403   7.404   1.872   3.997  0.3258 -0.0798  0.9402
11837SOL    HW238404   7.278   1.789   3.998  0.3468 -0.3346 -2.8142
11838SOL     OW38405   4.831   6.142   2.417 -0.5232 -0.2934  0.1217
11838SOL    HW138406   4.818   6.085   2.341 -0.3484 -0.3781  0.1537
11838SOL    HW238407   4.743   6.158   2.450 -0.5169 -1.3834  0.7152
11839SOL     OW38408   1.129   5.055   9.355  0.3441  0.0371 -0.3225
11839SOL    HW138409   1.182   5.135   9.353  0.2460  0.0940 -1.1229
11839SOL    HW238410   1.147   5.012   9.271  0.1280 -0.6040 -0.0448
11840SOL     OW38411   2.665   1.636   2.187  0.3968 -0.3055  0.5185
11840SOL    HW138412   2.649   1.554   2.139 -0.8025  0.2962 -0.1624
11840SOL    HW238413   2.695   1.697   2.120  0.5483  0.0327  0.8905
11841SOL     OW38414   1.421   5.629   8.719  0.1540 -0.0581 -0.3941
11841SOL    HW138415   1.354   5.628   8.651 -0.2772  2.1156 -0.1013
11841SOL    HW238416   1.435   5.722   8.736  3.9601 -0.3773 -1.1080
11842SOL     OW38417   1.702   9.589   0.328  0.5340  0.1360 -0.0470
11842SOL    HW138418   1.752   9.588   0.247  0.6890  0.4490  0.0414
11842SOL    HW238419   1.615   9.558   0.303  0.6969 -0.1515 -0.2530
11843SOL     OW38420   6.889   0.909   3.246  0.2601 -0.2022 -0.2628
11843SOL    HW138421   6.961   0.904   3.309  0.7333  0.5063 -0.7523
11843SOL    HW238422   6.899   0.831   3.192  1.1934  0.3444 -0.8973
11844SOL     OW38423   7.691   6.707   2.419 -0.0730 -0.8732  0.1016
11844SOL    HW138424   7.767   6.697   2.476  1.3682  1.2473 -1.2627
11844SOL    HW238425   7.617   6.676   2.471  1.6273 -2.5615  1.6709
11845SOL     OW38426   7.581   7.487   7.354  0.1762  0.2220 -0.1787
11845SOL    HW138427   7.572   7.470   7.448  1.0802  0.0770 -0.1132
11845SOL    HW238428   7.673   7.512   7.343  0.0278  0.4159 -0.9965
11846SOL     OW38429   1.060   9.208   6.459  0.0997  0.7377  0.0697
11846SOL    HW138430   1.114   9.268   6.408  1.7103 -1.2466 -0.6990
11846SOL    HW238431   0.989   9.183   6.399  0.4561  0.4909 -0.2523
11847SOL     OW38432   1.647   7.324   4.215 -0.5909 -0.1989  0.9191
11847SOL    HW138433   1.585   7.251   4.216 -0.2470 -0.5251 -0.4634
11847SOL    HW238434   1.732   7.284   4.236 -0.6073  0.0292  1.4502
11848SOL     OW38435   0.767   3.298   9.192  0.3173  0.1831  0.8113
11848SOL    HW138436   0.682   3.259   9.174  0.4212  0.8661 -1.4631
11848SOL    HW238437   0.798   3.254   9.271 -2.5553  0.6357  2.3291
11849SOL     OW38438   9.183   5.950   2.182 -0.4294 -0.3517  0.5152
11849SOL    HW138439   9.143   6.009   2.246  0.3435  0.1099  0.5743
11849SOL    HW238440   9.188   6.002   2.102  1.5003  0.1366  0.9234
11850SOL     OW38441   2.564   5.825   8.572 -0.5852 -0.1865 -0.5500
11850SOL    HW138442   2.637   5.798   8.517  1.1018  0.8467  1.0745
11850SOL    HW238443   2.598   5.896   8.625 -2.8421  0.4654  0.1618
11851SOL     OW38444   0.566   0.328   6.493  0.1137  0.0759  0.3979
11851SOL    HW138445   0.515   0.314   6.572 -0.9586 -1.0306 -0.4558
11851SOL    HW238446   0.520   0.399   6.446 -0.5863 -0.8205 -0.3006
11852SOL     OW38447   6.319   8.680   2.217 -0.1263 -0.5592  0.7063
11852SOL    HW138448   6.356   8.594   2.196 -0.5276 -0.0720 -2.5149
11852SOL    HW238449   6.243   8.689   2.159 -0.9894  1.3975  2.0139
11853SOL     OW38450   5.685   1.582   8.920 -0.0532 -0.1367  0.1684
11853SOL    HW138451   5.642   1.557   8.838  0.7161 -1.6301  0.1958
11853SOL    HW238452   5.626   1.551   8.989 -1.2247  2.0558  0.2282
11854SOL     OW38453   5.518   9.321   6.088  0.1029  0.3097 -0.7972
11854SOL    HW138454   5.588   9.387   6.082  1.5417 -0.8230  1.6900
11854SOL    HW238455   5.555   9.243   6.049  0.7451 -0.5949  1.4566
11855SOL     OW38456   8.476   9.480   7.675  0.5227 -0.6999  0.0917
11855SOL    HW138457   8.483   9.521   7.761  0.2662 -0.7213  0.1250
11855SOL    HW238458   8.424   9.541   7.623 -0.2006 -1.1598  0.2594
11856SOL     OW38459   8.895   9.083   3.289 -0.2775 -0.3257 -0.0958
11856SOL    HW138460   8.989   9.094   3.297 -0.2246 -0.6696 -0.2235
11856SOL    HW238461   8.870   9.136   3.213 -0.4476  1.1574  0.9598
11857SOL     OW38462   0.220   6.934   3.136  0.2531  0.0838 -0.0233
11857SOL    HW138463   0.258   6.859   3.182 -0.6491  0.5358  1.5496
11857SOL    HW238464   0.267   7.009   3.171 -0.8235  0.4843  0.6091
11858SOL     OW38465   8.811   4.455   8.362  1.0870  0.1157 -0.0444
11858SOL    HW138466   8.874   4.514   8.403  3.2989 -4.0010  3.3159
11858SOL    HW238467   8.855   4.424   8.283  1.0495  0.9668 -0.4036
11859SOL     OW38468   6.345   4.783   1.098  1.0059 -0.1935  0.1459
11859SOL    HW138469   6.377   4.696   1.074 -0.3787 -0.9586  0.9278
11859SOL    HW238470   6.323   4.825   1.015  0.4139 -1.1267 -0.1871
11860SOL     OW38471   2.845   0.742   0.986 -0.8777 -0.1347  0.6353
11860SOL    HW138472   2.940   0.738   1.001 -0.4156 -0.8568 -1.9263
11860SOL    HW238473   2.826   0.836   0.979 -0.2991  0.0095  0.9472
11861SOL     OW38474   7.903   3.155   6.705 -0.1786  0.4532  0.3839
11861SOL    HW138475   7.859   3.148   6.620 -0.3114 -0.6522  0.5347
11861SOL    HW238476   7.990   3.118   6.689  0.2248  1.3615  0.4336
11862SOL     OW38477   0.095   5.488   6.285  0.4269  0.4880  0.0425
11862SOL    HW138478   0.148   5.501   6.206  0.9119 -1.3020  0.0339
11862SOL    HW238479   0.145   5.531   6.354  0.8888  0.5407 -0.3181
11863SOL     OW38480   4.264   0.111   4.809 -0.1852 -0.1549  0.1591
11863SOL    HW138481   4.338   0.162   4.777 -1.7040  1.4899 -0.9133
11863SOL    HW238482   4.230   0.162   4.882 -0.5102 -0.6939  0.3877
11864SOL     OW38483   7.577   3.356   4.876  1.0364  0.6086 -0.0433
11864SOL    HW138484   7.626   3.358   4.794 -0.0534  1.1107 -0.7040
11864SOL    HW238485   7.568   3.448   4.901 -0.7891  0.6552 -0.7107
11865SOL     OW38486   9.341   5.246   4.740  0.0101 -0.5965  0.2622
11865SOL    HW138487   9.407   5.299   4.785 -0.1484  0.4150 -0.6452
11865SOL    HW238488   9.379   5.230   4.653 -0.3023 -1.2950  0.2490
11866SOL     OW38489   6.366   8.998   4.713  0.5305  0.1474 -0.8023
11866SOL    HW138490   6.286   9.017   4.763  0.9596  0.1883 -0.1234
11866SOL    HW238491   6.398   9.084   4.686 -0.2241  0.0874 -2.0176
11867SOL     OW38492   5.628   4.805   6.093 -0.1313  0.1778  0.1231
11867SOL    HW138493   5.660   4.760   6.016  0.1735  1.2955 -0.4146
11867SOL    HW238494   5.560   4.747   6.128 -0.1671 -0.4067 -0.8909
11868SOL     OW38495   8.192   4.992   1.605  0.4333 -0.2698 -0.2331
11868SOL    HW138496   8.218   4.977   1.696 -1.4593  0.3828  0.4643
11868SOL    HW238497   8.131   5.065   1.610 -1.3558 -1.5781 -1.7496
11869SOL     OW38498   4.942   6.593   1.667  0.0222  0.1817  0.3531
11869SOL    HW138499   5.030   6.613   1.638  0.3016 -2.1344 -0.6089
11869SOL    HW238500   4.885   6.635   1.603  0.4550  0.5665  0.2135
11870SOL     OW38501   1.836   8.038   7.331 -0.3144 -0.6358  0.4983
11870SOL    HW138502   1.758   8.086   7.359  0.3014  0.5415  0.2386
11870SOL    HW238503   1.810   7.999   7.247 -0.3431  0.5209 -0.0479
11871SOL     OW38504   9.027   0.026   4.440 -0.3243 -0.1383 -0.3054
11871SOL    HW138505   8.976  -0.021   4.507  1.8694 -0.4028  1.3049
11871SOL    HW238506   9.080  -0.043   4.399  0.5533  0.4421 -0.1704
11872SOL     OW38507   9.395   4.937   3.901 -0.3040  0.5151 -0.7311
11872SOL    HW138508   9.460   5.000   3.870  0.0201  0.1565 -0.7987
11872SOL    HW238509   9.340   4.986   3.961  0.2328  0.7448 -0.4219
11873SOL     OW38510   5.882   9.530   8.064  0.0126 -0.0459 -0.5087
11873SOL    HW138511   5.815   9.593   8.093 -1.2799  0.0853 -3.4183
11873SOL    HW238512   5.873   9.529   7.969  1.2682 -3.2798 -0.6859
11874SOL     OW38513   4.136   9.237   9.277 -0.3180  0.4849  1.0617
11874SOL    HW138514   4.192   9.313   9.293  0.2290  0.4494 -0.5197
11874SOL    HW238515   4.193   9.162   9.293  0.5934  0.4408 -1.8615
11875SOL     OW38516   4.260   1.629   9.286 -0.1236 -0.7345 -0.2279
11875SOL    HW138517   4.276   1.605   9.377  2.3424  0.4853 -0.2715
11875SOL    HW238518   4.180   1.682   9.290  0.0094 -0.5908  1.2640
11876SOL     OW38519   3.323   2.796   2.057 -0.5128  0.2036  0.2173
11876SOL    HW138520   3.245   2.837   2.019 -0.5259 -0.4558 -0.4761
11876SOL    HW238521   3.373   2.870   2.094 -1.5433  0.6083  0.8354
11877SOL     OW38522   6.148   6.427   7.604  0.4367  0.2605 -0.0042
11877SOL    HW138523   6.218   6.473   7.650 -0.7027 -0.6036  2.8489
11877SOL    HW238524   6.089   6.496   7.575  0.8012  0.8258  0.5788
11878SOL     OW38525   7.679   4.566   5.846  0.7176 -0.1239 -0.3524
11878SOL    HW138526   7.672   4.482   5.892 -0.4650  0.3729  0.4048
11878SOL    HW238527   7.763   4.560   5.800  0.7550 -1.6354 -0.1523
11879SOL     OW38528   7.730   4.427   6.276  0.3490 -0.2077 -0.1667
11879SOL    HW138529   7.796   4.460   6.338 -0.6544 -0.8330  1.2768
11879SOL    HW238530   7.754   4.335   6.263 -0.2261 -0.4468  0.3904
11880SOL     OW38531   5.929   7.685   1.638  0.8921 -0.4063 -0.3309
11880SOL    HW138532   5.988   7.613   1.618  2.0174  0.5130 -0.4119
11880SOL    HW238533   5.873   7.651   1.709  1.9576 -1.0760  0.2198
11881SOL     OW38534   4.363   6.489   7.025 -0.6403 -0.8384 -0.1523
11881SOL    HW138535   4.351   6.405   7.069  0.8627 -0.1986  1.6758
11881SOL    HW238536   4.455   6.488   6.998 -0.8486 -0.1365 -0.8947
11882SOL     OW38537   6.605   5.088   5.992  0.3695  0.0843 -0.0314
11882SOL    HW138538   6.595   5.010   5.937  0.4520  1.2002 -1.6904
11882SOL    HW238539   6.518   5.127   5.995  0.3047 -0.1140  0.8891
11883SOL     OW38540   6.615   6.879   8.494 -0.6588 -0.8042  0.2556
11883SOL    HW138541   6.553   6.839   8.432 -0.5923  0.6262 -0.7742
11883SOL    HW238542   6.667   6.806   8.526 -0.8802 -1.6246 -1.1752
11884SOL     OW38543   3.554   4.120   9.498 -0.3869  0.1403 -0.7083
11884SOL    HW138544   3.615   4.193   9.492  1.0292 -0.7760  1.2551
11884SOL    HW238545   3.577   4.063   9.425  2.0571 -0.7954  0.6855
11885SOL     OW38546   0.110   4.452   8.345 -0.6475  0.0717  0.1478
11885SOL    HW138547   0.200   4.438   8.374 -1.1533  0.2412  1.9230
11885SOL    HW238548   0.105   4.406   8.261  0.8194 -0.7603  0.4767
11886SOL     OW38549   2.769   8.222   6.548  0.4128 -0.0929 -0.2375
11886SOL    HW138550   2.804   8.260   6.629  1.6607  0.2153 -0.9007
11886SOL    HW238551   2.779   8.292   6.483 -1.8393  0.1634 -0.4014
11887SOL     OW38552   5.558   0.673   5.919  0.8286  1.1524  0.4501
11887SOL    HW138553   5.488   0.733   5.944  0.6932  0.9397  0.5867
11887SOL    HW238554   5.576   0.624   5.999 -0.0896 -0.0322 -0.0597
11888SOL     OW38555   0.354   0.015   7.233 -0.6016  0.2080  0.1822
11888SOL    HW138556   0.411   0.065   7.292 -1.3409  1.4204 -0.0949
11888SOL    HW238557   0.272   0.004   7.282  0.2076 -2.6828  1.1184
11889SOL     OW38558   5.509   1.910   7.434 -0.1870  0.8904 -0.0687
11889SOL    HW138559   5.509   1.870   7.347 -0.7508  1.2890 -0.2555
11889SOL    HW238560   5.568   1.855   7.485 -0.7326 -0.0154 -0.3913
11890SOL     OW38561   3.633   5.002   4.222 -0.0497 -0.7146 -0.6249
11890SOL    HW138562   3.568   5.058   4.178  0.4062 -0.5079 -1.0391
11890SOL    HW238563   3.580   4.939   4.271 -0.6440  1.0511  1.1841
11891SOL     OW38564   4.821   9.544   9.190  0.5926  0.0996  0.7841
11891SOL    HW138565   4.875   9.621   9.204  0.3697  0.2698  0.7093
11891SOL    HW238566   4.777   9.559   9.107 -0.1024  0.2844  1.1730
11892SOL     OW38567   8.444   8.932   6.254  0.3432  0.1565 -0.2057
11892SOL    HW138568   8.402   9.012   6.221 -0.4574  0.1291  0.7075
11892SOL    HW238569   8.519   8.919   6.196 -1.2108 -0.1320 -2.2745
11893SOL     OW38570   7.364   0.691   3.266 -0.0533  0.0883  0.6195
11893SOL    HW138571   7.420   0.665   3.340 -0.8332 -0.0618  1.1716
11893SOL    HW238572   7.326   0.775   3.293 -1.8215 -0.8632  1.2388
11894SOL     OW38573   2.580   2.131   6.841  0.1543 -0.4325  0.1455
11894SOL    HW138574   2.513   2.128   6.909 -1.4077  1.8485 -1.1272
11894SOL    HW238575   2.575   2.221   6.808  2.7941 -0.6627 -1.0845
11895SOL     OW38576   5.282   5.306   0.925 -0.4576 -0.2177 -0.0100
11895SOL    HW138577   5.377   5.312   0.933 -0.6324  1.7438  1.3500
11895SOL    HW238578   5.258   5.231   0.980  0.1611  0.6516  1.5178
11896SOL     OW38579   5.792   3.164   3.814 -0.7028 -0.2371 -0.3242
11896SOL    HW138580   5.768   3.085   3.766 -1.3202  0.5017 -1.2537
11896SOL    HW238581   5.872   3.139   3.861  0.4592 -0.7373 -2.4269
11897SOL     OW38582   7.696   5.194   7.500  0.1076  0.1437 -0.1710
11897SOL    HW138583   7.607   5.167   7.522  0.3957 -0.3521  0.4554
11897SOL    HW238584   7.703   5.284   7.533 -0.4356  0.5057 -1.0301
11898SOL     OW38585   6.174   6.017   4.506  0.7388 -0.1004 -0.5519
11898SOL    HW138586   6.168   5.994   4.598  0.1256  0.5616 -0.4132
11898SOL    HW238587   6.267   6.019   4.487  0.8505 -0.7665 -0.0872
11899SOL     OW38588   4.748   7.699   1.060 -0.1871  0.1184  0.0117
11899SOL    HW138589   4.718   7.722   0.972  0.7757 -0.2483 -0.4300
11899SOL    HW238590   4.834   7.657   1.046 -0.7096 -1.3803  0.9765
11900SOL     OW38591   1.053   8.433   1.571 -0.2839 -0.9671  0.0863
11900SOL    HW138592   1.092   8.347   1.588  0.7181 -0.5769 -0.1538
11900SOL    HW238593   1.094   8.491   1.634 -0.6362 -0.5802 -0.0369
11901SOL     OW38594   3.053   7.332   6.898 -0.2760 -0.7391  0.3995
11901SOL    HW138595   3.125   7.380   6.939  0.8974 -0.6711 -1.5744
11901SOL    HW238596   3.003   7.399   6.851  1.3748 -1.2937 -2.3772
11902SOL     OW38597   9.408   3.793   5.212 -1.1743  0.2855 -0.2072
11902SOL    HW138598   9.382   3.756   5.297  0.8405 -0.1916  0.2475
11902SOL    HW238599   9.327   3.831   5.177 -2.0940  0.3860  1.8646
11903SOL     OW38600   5.382   8.491   7.578  0.0564  0.1335 -0.3618
11903SOL    HW138601   5.314   8.429   7.552 -0.7699 -0.1581  2.1835
11903SOL    HW238602   5.459   8.436   7.595 -0.7557 -0.3635  2.1700
11904SOL     OW38603   6.620   7.945   0.280  0.3505 -1.2712 -0.3059
11904SOL    HW138604   6.579   8.018   0.234  0.8436 -0.6632  0.1906
11904SOL    HW238605   6.665   7.986   0.354 -1.2062 -2.3068  1.2817
11905SOL     OW38606   5.038   5.542   7.165 -0.2560  0.4683  0.5080
11905SOL    HW138607   4.953   5.520   7.202 -0.3861 -2.3211 -1.1989
11905SOL    HW238608   5.018   5.580   7.080  0.2030  0.0572  0.2151
11906SOL     OW38609   0.762   8.164   1.427  0.5041 -0.1947 -0.0179
11906SOL    HW138610   0.706   8.086   1.437 -0.5738  0.5302 -0.2239
11906SOL    HW238611   0.841   8.131   1.384  1.8546 -1.9363  3.3653
11907SOL     OW38612   6.686   3.644   9.203 -0.3336  0.1568  0.0005
11907SOL    HW138613   6.656   3.638   9.112  0.0356 -1.3684 -0.0427
11907SOL    HW238614   6.677   3.555   9.237  2.0454  0.1184  0.6499
11908SOL     OW38615   2.930   5.790   5.963 -0.1373 -0.5661  0.1436
11908SOL    HW138616   2.915   5.884   5.953 -1.3326 -0.3307  3.2138
11908SOL    HW238617   2.842   5.751   5.967  0.3236 -1.6607  0.0909
11909SOL     OW38618   5.730   2.253   7.733  0.0018 -0.2957 -0.2906
11909SOL    HW138619   5.745   2.347   7.744 -0.0175 -0.2501 -0.6373
11909SOL    HW238620   5.801   2.224   7.676  1.2358 -0.9049  1.4538
11910SOL     OW38621   8.545   4.625   1.040 -0.0276 -0.4964  0.1747
11910SOL    HW138622   8.595   4.691   0.992  0.8378  0.0100  1.7325
11910SOL    HW238623   8.481   4.593   0.976  1.4017 -0.2168 -1.4679
11911SOL     OW38624   5.968   0.442   5.944 -0.1982 -0.1260 -0.1525
11911SOL    HW138625   5.988   0.478   6.030  1.4356  0.8556 -0.8884
11911SOL    HW238626   5.877   0.468   5.928 -0.3066  0.2483  1.0074
11912SOL     OW38627   0.189   6.558   1.438  0.3332  0.5552 -0.1996
11912SOL    HW138628   0.237   6.512   1.506  0.5763 -0.5928 -1.1349
11912SOL    HW238629   0.234   6.642   1.430  2.0034 -0.3680 -0.8352
11913SOL     OW38630   4.997   1.751   3.151 -0.6128  0.5371 -0.4282
11913SOL    HW138631   5.037   1.721   3.232 -0.8806  3.3771  0.8667
11913SOL    HW238632   5.070   1.758   3.089 -0.1604 -0.2609  0.0075
11914SOL     OW38633   5.416   0.472   8.418  0.2868  0.0212  0.3215
11914SOL    HW138634   5.430   0.565   8.438  0.0944  0.0243  0.4437
11914SOL    HW238635   5.496   0.429   8.447  0.6585  0.2362 -0.3502
11915SOL     OW38636   8.332   0.381   4.625  0.0164 -0.0768 -0.0835
11915SOL    HW138637   8.332   0.363   4.719 -0.0503  1.2922  0.1979
11915SOL    HW238638   8.373   0.303   4.586 -0.5198 -0.9361  1.0052
11916SOL     OW38639   5.761   2.196   0.190  0.1644 -0.5197  0.1732
11916SOL    HW138640   5.736   2.104   0.188 -0.7414 -0.2813 -1.9494
11916SOL    HW238641   5.779   2.218   0.099  0.2148  1.4566  0.6121
11917SOL     OW38642   0.661   8.258   0.679  0.0539 -0.0594  0.4202
11917SOL    HW138643   0.596   8.188   0.672 -1.2510  0.8845  2.2456
11917SOL    HW238644   0.648   8.293   0.767  1.7178  1.4748  0.0957
11918SOL     OW38645   3.418   7.766   5.162 -0.6914  0.4346 -0.8313
11918SOL    HW138646   3.446   7.711   5.235  0.8880 -0.2916 -1.9264
11918SOL    HW238647   3.453   7.853   5.183  1.3727 -0.1708 -1.5370
11919SOL     OW38648   6.252   2.541   2.781 -0.1256  0.3411 -0.2433
11919SOL    HW138649   6.271   2.449   2.798  0.8187  0.1433 -2.1899
11919SOL    HW238650   6.157   2.548   2.792  0.1467  0.1077  3.9765
11920SOL     OW38651   0.949   6.970   7.199 -0.2378  0.2454  0.1491
11920SOL    HW138652   0.962   6.940   7.289 -0.7604  1.0594  0.5009
11920SOL    HW238653   0.854   6.976   7.189 -0.1775  0.3617 -0.3917
11921SOL     OW38654   3.007   1.745   4.652 -0.2250  0.1547 -0.0843
11921SOL    HW138655   3.036   1.662   4.615 -0.7062 -0.5856  1.1419
11921SOL    HW238656   2.916   1.729   4.679 -0.0766  0.8261  0.8784
11922SOL     OW38657   3.203   7.048   0.875 -0.1573  0.3976  0.2053
11922SOL    HW138658   3.285   7.007   0.900 -0.3371 -0.2478 -0.2472
11922SOL    HW238659   3.151   6.978   0.836 -0.7428  0.8995  0.0547
11923SOL     OW38660   4.423   8.453   9.210  0.0184 -0.0070  0.0563
11923SOL    HW138661   4.457   8.472   9.297 -0.0029 -1.9244  0.5226
11923SOL    HW238662   4.476   8.508   9.152  1.1688  0.0726  1.1262
11924SOL     OW38663   7.501   0.652   3.504  0.1472  0.2304  0.2103
11924SOL    HW138664   7.576   0.702   3.534  1.4060 -2.7370  2.4699
11924SOL    HW238665   7.500   0.573   3.558 -3.9798 -0.4357 -0.4430
11925SOL     OW38666   1.189   3.737   5.826  0.0108  0.5948 -0.2530
11925SOL    HW138667   1.265   3.681   5.810 -0.8139 -0.6154  0.0084
11925SOL    HW238668   1.133   3.726   5.750 -1.5346 -1.2750  1.0570
11926SOL     OW38669   2.850   1.179   5.900 -0.1909  0.5619  0.3786
11926SOL    HW138670   2.914   1.200   5.967  1.7668 -2.5134 -0.3152
11926SOL    HW238671   2.820   1.091   5.923 -1.2154  0.3668 -1.4915
11927SOL     OW38672   8.271   1.016   2.373 -0.2887  0.2315  0.2526
11927SOL    HW138673   8.344   1.021   2.433 -0.4328 -0.5130  0.5056
11927SOL    HW238674   8.283   0.933   2.327 -1.0559  0.0139  0.4201
11928SOL     OW38675   5.390   7.960   1.788  0.5879 -0.5634  0.1526
11928SOL    HW138676   5.464   7.907   1.820  0.7702 -1.2362 -1.2728
11928SOL    HW238677   5.329   7.896   1.752  0.6808  0.1434 -1.3654
11929SOL     OW38678   1.251   3.069   9.576 -0.0044 -0.1763 -0.1131
11929SOL    HW138679   1.222   3.121   9.500  2.7209 -2.3119 -2.8322
11929SOL    HW238680   1.169   3.042   9.617 -1.6171  1.7127 -1.7849
11930SOL     OW38681   6.809   4.908   6.181 -0.4764 -0.3674 -0.1198
11930SOL    HW138682   6.722   4.869   6.194  0.3818 -1.7642  1.9159
11930SOL    HW238683   6.869   4.849   6.227  1.4394  1.1298 -0.5812
11931SOL     OW38684   1.596   0.134   4.562 -0.1207  0.0662 -0.1555
11931SOL    HW138685   1.511   0.172   4.539  0.2402  1.9859  1.3370
11931SOL    HW238686   1.604   0.150   4.657  2.9517  2.3386 -0.6302
11932SOL     OW38687   5.766   1.371   4.682 -0.2459  0.0452  0.2783
11932SOL    HW138688   5.795   1.288   4.646  0.3276 -0.4488  1.8116
11932SOL    HW238689   5.716   1.348   4.761 -0.9855  1.1039  0.1484
11933SOL     OW38690   6.879   8.642   0.131  0.0591 -0.1348 -0.8512
11933SOL    HW138691   6.919   8.670   0.213 -0.6702 -1.9008  0.1623
11933SOL    HW238692   6.913   8.554   0.117 -0.2012 -0.0354 -2.2188
11934SOL     OW38693   7.922   9.072   9.456  0.1436 -0.1549  0.1266
11934SOL    HW138694   7.994   9.131   9.433  0.9157 -1.4312 -0.8423
11934SOL    HW238695   7.948   9.035   9.541 -0.3683  0.8957  0.7649
11935SOL     OW38696   3.159   0.020   6.746  0.0472 -0.2310  0.0584
11935SOL    HW138697   3.129   0.038   6.835  2.8035  0.7358  0.9096
11935SOL    HW238698   3.187  -0.071   6.748  0.8306  0.0078  0.4483
11936SOL     OW38699   4.180   8.510   1.832 -0.1856 -0.0421  0.9626
11936SOL    HW138700   4.260   8.541   1.789 -0.3459  0.2288  0.8539
11936SOL    HW238701   4.197   8.418   1.851 -0.1175 -0.1700  0.3027
11937SOL     OW38702   0.353   9.122   4.398  0.4788 -0.0040  0.0693
11937SOL    HW138703   0.437   9.104   4.442  0.2875 -0.3718  0.2930
11937SOL    HW238704   0.365   9.088   4.309 -0.0224 -1.7044  0.6092
11938SOL     OW38705   9.594   5.773   6.741 -0.9095 -0.0708 -0.4742
11938SOL    HW138706   9.655   5.772   6.815  0.0078 -0.1669 -1.2329
11938SOL    HW238707   9.574   5.865   6.728  0.2146  0.0891 -1.1523
11939SOL     OW38708   3.821   3.069   0.330 -0.0182  0.1452  0.2896
11939SOL    HW138709   3.834   3.163   0.348  0.7362 -0.0563  0.8643
11939SOL    HW238710   3.864   3.025   0.403  2.9170 -0.7020 -1.7731
11940SOL     OW38711   4.916   4.289   5.435 -0.3271  0.0006  0.2345
11940SOL    HW138712   4.838   4.268   5.486 -0.2401 -3.3607 -0.7754
11940SOL    HW238713   4.989   4.266   5.492 -0.1163  0.4832  0.1680
11941SOL     OW38714   4.005   8.191   5.356  0.6499  0.1050  0.0520
11941SOL    HW138715   3.966   8.128   5.296  0.5443 -0.4385  0.6744
11941SOL    HW238716   3.991   8.276   5.314 -0.5673 -0.1420 -0.0956
11942SOL     OW38717   3.782   5.496   3.386  1.0891  0.0194  0.0923
11942SOL    HW138718   3.761   5.412   3.425  0.8277 -1.1091 -2.3449
11942SOL    HW238719   3.876   5.491   3.366  0.9934  0.1484 -0.4040
11943SOL     OW38720   1.326   7.383   1.339 -0.2996  0.6246  0.3314
11943SOL    HW138721   1.344   7.332   1.260 -1.9138 -1.7960  1.3993
11943SOL    HW238722   1.279   7.322   1.397  0.4435  2.4026  3.0052
11944SOL     OW38723   6.180   5.702   0.118 -0.5263  0.0214  0.4206
11944SOL    HW138724   6.210   5.767   0.181 -0.5863  1.4327 -0.9318
11944SOL    HW238725   6.235   5.625   0.133 -1.2500 -0.0862  2.8661
11945SOL     OW38726   1.388   3.439   0.542  0.2920 -0.2130 -0.3394
11945SOL    HW138727   1.377   3.428   0.447 -1.0938 -0.5756 -0.1565
11945SOL    HW238728   1.472   3.397   0.561  2.6855  3.2355 -1.9478
11946SOL     OW38729   5.189   1.253   5.365 -0.2105  0.4128 -0.3308
11946SOL    HW138730   5.180   1.322   5.430 -0.8059  0.6415 -0.6483
11946SOL    HW238731   5.101   1.242   5.330 -0.3803 -1.2676  0.4921
11947SOL     OW38732   8.429   3.137   7.795  0.3574  0.1216 -0.3154
11947SOL    HW138733   8.362   3.076   7.825  0.9931 -1.0012 -1.0959
11947SOL    HW238734   8.437   3.201   7.866  0.1905 -1.1256  0.8668
11948SOL     OW38735   9.180   8.547   2.737 -0.2189  0.5100 -0.1707
11948SOL    HW138736   9.180   8.627   2.686 -0.9050 -0.0228 -1.0259
11948SOL    HW238737   9.247   8.492   2.697  1.7145  1.3875  1.6613
11949SOL     OW38738   3.751   2.641   7.054  0.5939 -0.1805  0.6062
11949SOL    HW138739   3.828   2.627   6.999  0.7851  1.1257  0.5018
11949SOL    HW238740   3.753   2.569   7.118 -1.0122 -3.2766 -2.4889
11950SOL     OW38741   9.365   0.863   0.498  0.6729  0.2321  0.2098
11950SOL    HW138742   9.335   0.773   0.491 -0.1468  0.4785  0.5097
11950SOL    HW238743   9.403   0.869   0.585  1.3867 -0.0078 -0.0738
11951SOL     OW38744   3.134   5.466   0.708  0.1080 -0.0412  0.6865
11951SOL    HW138745   3.094   5.421   0.782  1.1885  0.1110  1.3911
11951SOL    HW238746   3.118   5.558   0.724 -0.9903 -0.0811 -0.0891
11952SOL     OW38747   4.353   5.397   2.543 -0.2376  0.3957 -0.1103
11952SOL    HW138748   4.360   5.491   2.527 -1.6150  0.2534 -1.9398
11952SOL    HW238749   4.408   5.357   2.475  1.5935 -0.1372  1.6103
11953SOL     OW38750   2.839   8.238   5.298 -0.0383  0.2251  0.0932
11953SOL    HW138751   2.833   8.153   5.342 -0.6024 -0.3749 -1.1150
11953SOL    HW238752   2.812   8.301   5.365  0.2388 -0.5456  0.9633
11954SOL     OW38753   7.383   8.705   4.867 -0.0958 -0.2728 -0.0679
11954SOL    HW138754   7.295   8.733   4.891  0.3244 -1.3884  3.2534
11954SOL    HW238755   7.385   8.711   4.771 -3.1740  1.3942 -0.1420
11955SOL     OW38756   1.946   6.228   0.769  0.1960 -0.4390  0.3620
11955SOL    HW138757   1.923   6.225   0.862 -0.0615  1.7408  0.4058
11955SOL    HW238758   1.895   6.300   0.734  1.9357  0.1846 -1.0142
11956SOL     OW38759   4.603   0.380   0.797  0.3421  1.0607 -0.1820
11956SOL    HW138760   4.625   0.344   0.883 -3.0267  1.1824  0.8692
11956SOL    HW238761   4.604   0.304   0.739 -0.9062  0.2763  0.7722
11957SOL     OW38762   0.865   3.038   1.783 -0.4344 -0.1592 -0.2530
11957SOL    HW138763   0.903   3.114   1.741 -3.6734  2.2910  0.8417
11957SOL    HW238764   0.912   3.029   1.866  0.0985  0.5374 -0.4829
11958SOL     OW38765   9.096   7.852   9.405  0.1784  0.4322 -0.0326
11958SOL    HW138766   9.142   7.823   9.326 -0.0643  1.4858 -0.5793
11958SOL    HW238767   9.164   7.888   9.461  0.3114 -0.0419  0.1152
11959SOL     OW38768   9.143   7.357   8.608  0.1722  0.2242 -0.5147
11959SOL    HW138769   9.132   7.303   8.530 -1.6652  0.1584 -0.2380
11959SOL    HW238770   9.064   7.411   8.611  0.6349  0.8594  0.8256
11960SOL     OW38771   2.815   7.001   7.528  0.0161 -0.0847 -0.2333
11960SOL    HW138772   2.734   6.996   7.478 -1.2037 -3.2780  1.7473
11960SOL    HW238773   2.797   7.065   7.597 -0.2698  0.2827 -0.6429
11961SOL     OW38774   5.816   6.118   4.059 -0.7828  0.2267 -0.0080
11961SOL    HW138775   5.903   6.149   4.036 -0.5445  1.2228  2.0683
11961SOL    HW238776   5.813   6.027   4.027  0.9042  0.2562 -0.3155
11962SOL     OW38777   5.559   4.479   9.365  0.0597  0.3221  0.1017
11962SOL    HW138778   5.653   4.462   9.360  0.1784  0.8019  0.6565
11962SOL    HW238779   5.546   4.518   9.451 -0.5578  0.8368 -0.2150
11963SOL     OW38780   3.397   2.486   9.510 -0.3587  0.2433  0.3704
11963SOL    HW138781   3.461   2.425   9.474 -0.2681  0.4946  0.1072
11963SOL    HW238782   3.406   2.476   9.605  0.2928  0.5038  0.3399
11964SOL     OW38783   4.974   2.768   7.903 -0.0768  0.7430  0.5555
11964SOL    HW138784   5.033   2.830   7.946 -0.5861  1.0737  0.7756
11964SOL    HW238785   4.890   2.780   7.947 -0.2392  0.0656  0.4374
11965SOL     OW38786   3.939   0.376   7.298  0.2541 -0.9476 -0.3473
11965SOL    HW138787   3.899   0.462   7.289  2.4193  0.2150  0.6103
11965SOL    HW238788   3.955   0.347   7.208  1.7794  0.8044 -0.6908
11966SOL     OW38789   6.574   2.080   0.181  0.0782  0.0913 -0.6899
11966SOL    HW138790   6.531   1.994   0.172 -2.2160  0.6839  2.6307
11966SOL    HW238791   6.649   2.063   0.239 -0.7235  0.3532  0.4586
11967SOL     OW38792   5.169   3.594   9.225  0.0253 -0.1987 -0.4953
11967SOL    HW138793   5.256   3.633   9.233 -0.0210 -0.0123 -0.8725
11967SOL    HW238794   5.167   3.526   9.292  0.4411 -0.1693 -0.4499
11968SOL     OW38795   6.667   7.191   4.427  0.4596  0.1126 -0.4270
11968SOL    HW138796   6.736   7.251   4.395 -0.8656  0.8868 -1.9953
11968SOL    HW238797   6.587   7.243   4.422  0.1186  0.7026  5.3205
11969SOL     OW38798   4.196   6.717   3.762  0.3210  0.3767 -0.1796
11969SOL    HW138799   4.114   6.745   3.722  0.9768  1.0303 -1.1175
11969SOL    HW238800   4.209   6.777   3.835 -1.7145 -1.8338  2.2064
11970SOL     OW38801   4.177   0.422   3.588  0.6195  0.0152 -0.1694
11970SOL    HW138802   4.136   0.508   3.590 -1.6589 -1.0161  0.5480
11970SOL    HW238803   4.225   0.420   3.505  0.8904  1.9978 -0.1161
11971SOL     OW38804   0.597   8.784   4.003  0.1414 -0.5623  0.4957
11971SOL    HW138805   0.626   8.807   3.915 -0.8558  1.7785  0.7020
11971SOL    HW238806   0.598   8.688   4.005  0.4063 -0.6618 -1.9636
11972SOL     OW38807   4.537   0.526   3.330  0.0681  0.2008 -0.0063
11972SOL    HW138808   4.524   0.576   3.410  0.4286 -1.3748  1.0954
11972SOL    HW238809   4.450   0.490   3.310 -0.2501  1.3969 -0.9460
11973SOL     OW38810   7.906   9.108   1.622  0.2075  0.5473 -0.1109
11973SOL    HW138811   7.888   9.176   1.557 -0.0622 -1.1565 -1.9032
11973SOL    HW238812   7.850   9.035   1.596 -0.1350 -0.1084  2.2592
11974SOL     OW38813   4.549   3.954   8.069 -0.7990  0.1848 -0.4140
11974SOL    HW138814   4.468   3.929   8.023 -1.5057 -0.4519  1.1245
11974SOL    HW238815   4.569   3.880   8.126 -0.5661  1.3669  1.1146
11975SOL     OW38816   1.220   6.079   9.392  0.4847 -0.1496 -0.0726
11975SOL    HW138817   1.148   6.019   9.373  2.2834 -2.5375  0.1510
11975SOL    HW238818   1.256   6.049   9.475  1.0810  1.6801  0.3857
11976SOL     OW38819   5.946   4.108   2.979 -0.0186  0.1947  0.1332
11976SOL    HW138820   5.868   4.160   2.960  0.4969  0.5832 -1.0157
11976SOL    HW238821   5.939   4.033   2.921  0.1783 -0.0569  0.4367
11977SOL     OW38822   5.582   6.598   6.124  0.0052 -0.1788 -0.0564
11977SOL    HW138823   5.603   6.591   6.217 -0.7389  1.9967  0.3263
11977SOL    HW238824   5.487   6.584   6.120  0.3055 -2.4008 -0.8117
11978SOL     OW38825   2.657   8.484   7.014 -0.9169 -0.3612  0.2700
11978SOL    HW138826   2.619   8.413   6.962  1.6709 -2.2644  0.7547
11978SOL    HW238827   2.583   8.522   7.061 -2.4879 -2.4547 -0.3699
11979SOL     OW38828   8.384   4.721   5.654 -0.6766 -0.0619 -0.0837
11979SOL    HW138829   8.374   4.816   5.662  1.4545  0.1036  1.7734
11979SOL    HW238830   8.425   4.695   5.736  0.4856 -2.3266 -1.2982
11980SOL     OW38831   2.441   6.513   8.058  0.3569 -0.0334 -0.5845
11980SOL    HW138832   2.371   6.549   8.004  0.8757  0.6496 -0.8170
11980SOL    HW238833   2.502   6.585   8.069  0.3331 -0.2087  0.8116
11981SOL     OW38834   3.186   5.934   4.756 -0.1083  0.1532  0.0535
11981SOL    HW138835   3.278   5.942   4.779 -0.2241  2.4674 -0.0322
11981SOL    HW238836   3.162   5.845   4.781  1.5097  0.3034  2.4117
11982SOL     OW38837   7.744   2.367   5.228 -0.6167 -0.0722 -0.1978
11982SOL    HW138838   7.689   2.296   5.259  0.8493 -0.8664  0.6461
11982SOL    HW238839   7.783   2.334   5.147 -0.8574  0.2267 -0.4365
11983SOL     OW38840   1.523   4.344   6.689 -0.1834  0.2408  0.2933
11983SOL    HW138841   1.585   4.415   6.702  1.9227 -1.6636  1.3364
11983SOL    HW238842   1.531   4.290   6.768 -1.1320 -1.5723 -0.7647
11984SOL     OW38843   6.051   4.994   4.011 -0.4224  0.7596  0.2359
11984SOL    HW138844   6.049   5.065   3.946  1.8299  0.3995 -0.3017
11984SOL    HW238845   5.959   4.974   4.027 -1.0672  1.9176 -1.6845
11985SOL     OW38846   8.032   2.540   3.738 -0.5363  0.2898 -0.0588
11985SOL    HW138847   8.034   2.632   3.713  0.3162 -0.2357 -2.1730
11985SOL    HW238848   7.995   2.539   3.826 -0.1130  2.6727  0.1928
11986SOL     OW38849   7.524   8.577   8.524  0.1531 -0.4936 -0.0858
11986SOL    HW138850   7.451   8.516   8.518 -0.2847  0.1180 -1.6106
11986SOL    HW238851   7.514   8.619   8.609 -0.8228 -0.9567  0.0394
11987SOL     OW38852   9.626   8.278   9.248 -0.6867  0.2965 -0.0197
11987SOL    HW138853   9.686   8.203   9.243 -0.9254  0.1515 -1.1118
11987SOL    HW238854   9.566   8.256   9.319 -0.5523 -0.4029 -0.1109
11988SOL     OW38855   0.514   2.370   6.825  0.6771  0.1756  0.1850
11988SOL    HW138856   0.483   2.297   6.771  0.6396 -0.8112  1.4902
11988SOL    HW238857   0.456   2.443   6.801 -0.9867 -0.9141  0.6713
11989SOL     OW38858   0.541   1.103   5.401 -0.0406 -0.1690 -0.2334
11989SOL    HW138859   0.562   1.073   5.489  0.1140 -0.0595 -0.2327
11989SOL    HW238860   0.445   1.108   5.400 -0.0470 -0.2550 -0.1005
11990SOL     OW38861   1.392   4.077   6.563 -0.3389 -0.3776  0.0538
11990SOL    HW138862   1.477   4.071   6.606 -0.6082  0.1960  0.6695
11990SOL    HW238863   1.393   4.161   6.519  0.2797 -1.3207 -1.8497
11991SOL     OW38864   7.333   4.611   1.197  0.5206  0.4654  0.4069
11991SOL    HW138865   7.388   4.673   1.245  1.1042  0.7497 -0.5949
11991SOL    HW238866   7.249   4.611   1.244  0.2021  2.6810 -0.0523
11992SOL     OW38867   2.125   4.985   1.511 -0.0571 -0.1992  0.3015
11992SOL    HW138868   2.100   5.061   1.562  0.6391  0.3943 -0.2270
11992SOL    HW238869   2.085   4.911   1.557  1.3930  0.1827  2.2961
11993SOL     OW38870   5.749   6.129   4.339  0.2116 -0.5337  0.5272
11993SOL    HW138871   5.757   6.123   4.243  1.7361 -0.7416  0.6378
11993SOL    HW238872   5.687   6.200   4.354 -0.7116 -1.0564 -0.6153
11994SOL     OW38873   9.307   0.726   2.951  0.2583  0.0927  0.0914
11994SOL    HW138874   9.297   0.817   2.922 -0.7728 -0.2591 -0.7121
11994SOL    HW238875   9.322   0.676   2.871 -2.9765 -0.9455 -0.0331
11995SOL     OW38876   4.447   8.438   2.043 -0.0446  0.0139  0.1061
11995SOL    HW138877   4.450   8.360   1.987 -1.5065  0.2425 -0.3457
11995SOL    HW238878   4.357   8.440   2.075  0.5384  0.3983  1.7714
11996SOL     OW38879   0.389   4.572   2.433  0.0095 -0.1406  0.1665
11996SOL    HW138880   0.307   4.562   2.481 -0.1585  0.2529 -0.0322
11996SOL    HW238881   0.415   4.483   2.409 -0.4016 -0.2565  0.1551
11997SOL     OW38882   8.332   8.960   7.235 -0.3096 -0.0906 -0.4534
11997SOL    HW138883   8.370   8.961   7.323 -0.7162  1.2976 -0.2781
11997SOL    HW238884   8.354   9.045   7.198 -2.6160  0.5296 -0.5815
11998SOL     OW38885   1.196   0.039   9.396 -0.4957 -0.4249  0.3483
11998SOL    HW138886   1.289   0.019   9.391 -0.0789  1.2881  0.4066
11998SOL    HW238887   1.175   0.033   9.490 -0.5985 -1.3700  0.2733
11999SOL     OW38888   3.598   5.109   2.806  0.1723  0.1723 -0.2699
11999SOL    HW138889   3.538   5.183   2.798  0.1007 -0.0432 -2.1527
11999SOL    HW238890   3.546   5.032   2.784  0.5766 -0.2997  0.3784
12000SOL     OW38891   0.095   1.808   0.446  0.4772 -0.1195  0.0423
12000SOL    HW138892   0.030   1.825   0.379  0.6684  0.6241  0.0358
12000SOL    HW238893   0.050   1.826   0.529 -0.0183 -1.8350  0.2021
12001SOL     OW38894   5.115   1.416   0.014 -0.4563 -0.2995  0.7212
12001SOL    HW138895   5.189   1.359  -0.006  1.1232  1.9833 -0.3536
12001SOL    HW238896   5.046   1.357   0.043  1.3625 -2.6344  0.5320
12002SOL     OW38897   6.662   4.455   8.560 -0.3766  0.1348 -0.5436
12002SOL    HW138898   6.745   4.479   8.519 -0.1917  0.3636 -0.0391
12002SOL    HW238899   6.671   4.362   8.580  0.1076  0.3651  0.3281
12003SOL     OW38900   6.775   6.428   8.942  0.5861  0.6370 -0.0862
12003SOL    HW138901   6.812   6.342   8.919  1.2208  0.2427  2.1408
12003SOL    HW238902   6.818   6.489   8.883  1.6939 -0.3339 -0.3292
12004SOL     OW38903   5.711   2.637   2.002 -0.9764  0.2906 -0.3468
12004SOL    HW138904   5.729   2.581   1.927 -1.8212  0.9672 -1.0831
12004SOL    HW238905   5.622   2.669   1.987 -1.3101  0.1360  1.1481
12005SOL     OW38906   1.558   1.993   8.174 -0.2454 -0.0462 -0.0045
12005SOL    HW138907   1.580   2.079   8.139  2.2640  0.2294  1.9386
12005SOL    HW238908   1.502   2.011   8.249 -0.2699 -0.1606  0.0058
12006SOL     OW38909   4.117   4.648   0.963  0.1559 -0.0870 -0.4688
12006SOL    HW138910   4.087   4.739   0.961 -0.7290 -0.3235  0.8841
12006SOL    HW238911   4.152   4.636   1.052 -1.2563 -1.5172 -0.0644
12007SOL     OW38912   9.006   6.146   6.891  0.1413 -0.6133  0.2688
12007SOL    HW138913   9.015   6.223   6.947 -0.3395 -1.2296  1.2160
12007SOL    HW238914   8.976   6.077   6.950 -0.6713 -1.2035 -0.7960
12008SOL     OW38915   7.377   0.260   1.331  0.3407 -0.9111 -0.5339
12008SOL    HW138916   7.470   0.247   1.312  0.8055 -1.5159  1.8813
12008SOL    HW238917   7.373   0.341   1.382 -0.2996 -1.4675  0.3369
12009SOL     OW38918   0.808   8.024   8.714 -0.1082  0.0119 -0.4802
12009SOL    HW138919   0.896   7.996   8.741 -0.3931 -0.6466 -0.2039
12009SOL    HW238920   0.823   8.088   8.645  0.6012  0.2291 -0.1318
12010SOL     OW38921   6.828   7.037   6.011  0.0264  0.3102 -0.0419
12010SOL    HW138922   6.837   6.942   6.016  0.3325  0.3595  0.4328
12010SOL    HW238923   6.908   7.071   6.052  0.0958  0.7719 -0.5486
12011SOL     OW38924   5.581   6.661   9.262 -0.0408 -0.1535  0.1233
12011SOL    HW138925   5.537   6.659   9.177 -0.6144 -0.3339  0.4249
12011SOL    HW238926   5.571   6.751   9.292 -1.9532 -0.6586  1.0987
12012SOL     OW38927   9.204   1.687   6.469  0.6305 -0.4302 -0.6052
12012SOL    HW138928   9.110   1.695   6.453  0.4500  2.6590  1.1292
12012SOL    HW238929   9.245   1.738   6.399  0.6256  1.9595  0.9996
12013SOL     OW38930   0.026   3.555   1.620  0.2920  0.0577  0.4005
12013SOL    HW138931   0.057   3.596   1.700 -0.0142  0.5418  0.2710
12013SOL    HW238932   0.083   3.590   1.551  1.2032 -1.0949  0.5169
12014SOL     OW38933   0.071   2.746   8.436  0.0391 -0.6668 -0.3099
12014SOL    HW138934   0.017   2.816   8.399  1.8710  1.5859  1.0208
12014SOL    HW238935   0.154   2.753   8.388  1.4718  0.4830  2.1437
12015SOL     OW38936   6.286   6.266   1.695 -0.1272  0.1987  0.1600
12015SOL    HW138937   6.243   6.249   1.779  2.5236 -1.2450  1.3586
12015SOL    HW238938   6.323   6.354   1.704 -0.2670  0.2400  0.3260
12016SOL     OW38939   1.176   1.068   5.726  0.3252 -0.4993 -0.0254
12016SOL    HW138940   1.197   0.991   5.672 -0.9192 -0.3104 -0.8158
12016SOL    HW238941   1.254   1.123   5.720 -0.0283 -0.1379 -2.2930
12017SOL     OW38942   3.864   9.282   9.337  0.1633  0.4841  0.1482
12017SOL    HW138943   3.854   9.254   9.428  0.6239 -0.2857 -0.0354
12017SOL    HW238944   3.958   9.280   9.321  0.1612  1.4761 -0.0889
12018SOL     OW38945   5.336   3.490   2.419  0.0419  0.4393  0.0412
12018SOL    HW138946   5.268   3.537   2.468 -0.6390  2.4190 -2.6089
12018SOL    HW238947   5.416   3.538   2.438  0.1249  0.1090  0.5635
12019SOL     OW38948   4.745   5.633   6.808 -0.2514  0.0973  0.0432
12019SOL    HW138949   4.666   5.638   6.753  0.8814  1.0889 -1.5962
12019SOL    HW238950   4.817   5.656   6.749  1.1242  0.6408  1.8269
12020SOL     OW38951   2.508   0.321   8.281  0.0172  0.2607  0.0029
12020SOL    HW138952   2.600   0.331   8.303  0.4736  0.3144 -1.7848
12020SOL    HW238953   2.470   0.275   8.356  1.9860 -1.8651 -0.2026
12021SOL     OW38954   6.389   7.511   7.657 -0.4145 -0.4737  0.1428
12021SOL    HW138955   6.468   7.565   7.658 -0.1548 -0.8624  0.5882
12021SOL    HW238956   6.325   7.561   7.707 -0.3022 -0.3904  0.2019
12022SOL     OW38957   5.763   0.552   6.909  0.4959 -0.2243  0.3370
12022SOL    HW138958   5.782   0.592   6.994 -0.4614  2.5260 -0.6128
12022SOL    HW238959   5.696   0.609   6.871  1.9399 -0.4421 -2.8822
12023SOL     OW38960   1.838   8.215   0.519 -0.2729 -0.0646  0.0817
12023SOL    HW138961   1.823   8.309   0.529 -1.4740 -0.3484  1.1972
12023SOL    HW238962   1.833   8.200   0.424  2.0754  1.2979 -0.3239
12024SOL     OW38963   4.520   5.137   0.407  0.0681 -0.0090  0.3932
12024SOL    HW138964   4.536   5.110   0.317 -1.6929 -1.8924  0.5733
12024SOL    HW238965   4.477   5.222   0.400 -0.3370 -0.2830 -0.5665
12025SOL     OW38966   2.284   0.329   3.549 -0.0370  0.1959  0.4884
12025SOL    HW138967   2.328   0.298   3.470  1.3099  3.0580 -0.0187
12025SOL    HW238968   2.214   0.386   3.516 -1.4729 -1.0137  1.3599
12026SOL     OW38969   0.478   3.881   9.226  0.4378 -0.3558 -0.0348
12026SOL    HW138970   0.392   3.920   9.242 -0.8346 -2.9543  0.0974
12026SOL    HW238971   0.533   3.909   9.299  0.4181  3.0475 -1.1877
12027SOL     OW38972   6.724   1.803   0.202  0.0391 -0.4131  0.5075
12027SOL    HW138973   6.635   1.838   0.203 -0.2624 -0.6212 -3.1987
12027SOL    HW238974   6.718   1.718   0.245 -1.6879 -0.6304 -0.1000
12028SOL     OW38975   6.821   2.771   7.935  0.4797 -0.5298  0.6247
12028SOL    HW138976   6.883   2.813   7.876 -0.3497  1.0257  0.8080
12028SOL    HW238977   6.790   2.694   7.887 -0.3470  0.8212 -1.0910
12029SOL     OW38978   5.417   1.456   3.203 -0.1283  0.5798 -0.3395
12029SOL    HW138979   5.468   1.406   3.139  0.8355  1.9045 -0.6596
12029SOL    HW238980   5.326   1.447   3.174 -0.1340 -1.9202  0.2996
12030SOL     OW38981   2.742   0.190   3.769  0.3152 -0.5677  0.1784
12030SOL    HW138982   2.687   0.185   3.691  0.4667 -0.4534  0.0641
12030SOL    HW238983   2.756   0.284   3.782  0.6691 -0.6073  0.0784
12031SOL     OW38984   8.577   7.695   1.824 -0.4273  0.4953 -0.0665
12031SOL    HW138985   8.584   7.746   1.744  0.6745  0.4124 -0.0403
12031SOL    HW238986   8.664   7.655   1.835 -1.3850 -1.8715 -0.4014
12032SOL     OW38987   3.389   4.936   2.505 -0.0911 -0.3324  1.1862
12032SOL    HW138988   3.392   5.031   2.514  1.5915 -0.2457  0.2671
12032SOL    HW238989   3.480   4.912   2.485 -0.8396 -1.9123 -0.5614
12033SOL     OW38990   3.219   7.517   1.772  0.4537 -0.0632  0.2312
12033SOL    HW138991   3.145   7.485   1.824  0.5101 -0.8382 -0.1461
12033SOL    HW238992   3.284   7.543   1.837 -0.4567  1.4327  0.5913
12034SOL     OW38993   8.957   4.276   1.405 -0.4262 -0.0462 -0.4646
12034SOL    HW138994   8.916   4.320   1.480  2.2731  1.4399  0.2531
12034SOL    HW238995   8.972   4.187   1.436  0.4318  0.4840  0.7154
12035SOL     OW38996   7.661   4.327   5.973  0.8137 -0.2744 -0.9188
12035SOL    HW138997   7.651   4.270   5.897 -0.5527  1.1039 -1.8418
12035SOL    HW238998   7.577   4.322   6.018  0.7373  0.8437 -0.9121
12036SOL     OW38999   3.568   1.577   0.282 -0.5893 -0.3860 -0.1562
12036SOL    HW139000   3.658   1.595   0.256 -0.4434 -1.4370 -0.3980
12036SOL    HW239001   3.516   1.600   0.204 -0.4804 -0.2929 -0.2018
12037SOL     OW39002   7.406   2.997   9.410 -0.0955  0.4593 -0.5054
12037SOL    HW139003   7.486   2.966   9.453 -1.5315 -2.2010  0.4034
12037SOL    HW239004   7.438   3.040   9.331  2.2093 -1.6537 -0.8623
12038SOL     OW39005   1.995   1.050   1.008  0.2594 -0.1718  0.3954
12038SOL    HW139006   2.075   1.102   1.018  0.4283 -0.2376 -0.5779
12038SOL    HW239007   1.945   1.095   0.939  0.3450 -1.2054 -0.3572
12039SOL     OW39008   2.650   7.488   2.145  0.2245 -0.8073  0.5453
12039SOL    HW139009   2.740   7.453   2.143  0.4019 -0.3983 -1.7878
12039SOL    HW239010   2.595   7.414   2.119  0.2804 -0.2273 -1.3541
12040SOL     OW39011   1.907   2.637   6.665  0.1026 -0.3363  0.1119
12040SOL    HW139012   1.874   2.704   6.606  0.1280 -0.6072 -0.2184
12040SOL    HW239013   1.970   2.588   6.612 -1.3375 -1.8540 -0.3042
12041SOL     OW39014   7.488   5.226   7.113 -0.0170  0.1528 -0.3850
12041SOL    HW139015   7.395   5.245   7.102  0.5795  3.2319 -1.2516
12041SOL    HW239016   7.523   5.304   7.156  2.1271 -1.0365  0.1687
12042SOL     OW39017   4.699   0.121   1.783 -0.0911 -0.2103  0.3622
12042SOL    HW139018   4.677   0.028   1.790  0.3837 -0.5951 -2.1668
12042SOL    HW239019   4.792   0.125   1.805  1.0133 -1.1305 -3.4244
12043SOL     OW39020   7.434   9.422   5.543  0.0722 -0.2592 -0.3869
12043SOL    HW139021   7.488   9.452   5.470  0.0557 -1.4182 -0.9007
12043SOL    HW239022   7.489   9.434   5.620  1.4531 -2.1608 -0.9765
12044SOL     OW39023   8.267   8.460   1.517 -0.2617 -0.4894  0.5440
12044SOL    HW139024   8.258   8.432   1.426 -2.1669 -0.0002  0.5388
12044SOL    HW239025   8.260   8.380   1.568  0.3820 -0.7125  0.2879
12045SOL     OW39026   1.217   1.227   1.746 -0.5296  0.1112  0.5198
12045SOL    HW139027   1.235   1.190   1.833 -0.2272 -0.0900  0.3713
12045SOL    HW239028   1.158   1.164   1.705  1.0339 -0.9165 -0.2445
12046SOL     OW39029   5.044   5.260   3.875  0.7147  0.0367 -0.2245
12046SOL    HW139030   4.951   5.268   3.854  0.7323  0.7840 -0.0598
12046SOL    HW239031   5.049   5.279   3.969  0.9473 -0.7493 -0.0660
12047SOL     OW39032   7.287   9.610   2.873 -1.1508  0.2526 -0.5704
12047SOL    HW139033   7.328   9.663   2.942 -0.9084 -0.4908 -0.1246
12047SOL    HW239034   7.358   9.555   2.840 -1.5311 -0.2363 -0.5860
12048SOL     OW39035   8.811   5.429   6.041  1.0791 -0.1947 -0.7164
12048SOL    HW139036   8.871   5.501   6.024 -0.3892  1.5437  1.0121
12048SOL    HW239037   8.868   5.353   6.055  2.6095  0.0316 -4.6117
12049SOL     OW39038   5.027   0.443   9.230  0.2046  0.2723  0.4948
12049SOL    HW139039   5.095   0.380   9.255 -0.0432  0.2932  1.2518
12049SOL    HW239040   4.968   0.445   9.305 -0.3159  0.6925  0.0789
12050SOL     OW39041   1.790   1.651   5.807  0.2383  0.0147 -0.2068
12050SOL    HW139042   1.826   1.563   5.820  1.2124  0.3973 -0.2409
12050SOL    HW239043   1.796   1.693   5.893  0.0284  0.1406 -0.2517
12051SOL     OW39044   8.602   3.927   2.128 -0.2392 -0.2873 -0.0188
12051SOL    HW139045   8.623   3.913   2.220  1.0632 -2.0058 -0.5370
12051SOL    HW239046   8.647   4.008   2.105  1.1265 -0.9150  0.3620
12052SOL     OW39047   4.205   2.314   3.035 -0.2052  0.4484 -0.1179
12052SOL    HW139048   4.214   2.403   2.999 -0.6367  1.1816  1.4719
12052SOL    HW239049   4.295   2.284   3.049 -0.0499  1.3203  0.8722
12053SOL     OW39050   3.823   1.943   2.394  0.1926  0.6239 -0.4550
12053SOL    HW139051   3.910   1.960   2.358  0.5453  0.5460  0.3435
12053SOL    HW239052   3.789   2.029   2.417  0.9024  0.5144  1.1258
12054SOL     OW39053   2.302   2.041   2.325 -0.9263 -0.2299 -0.6847
12054SOL    HW139054   2.224   2.096   2.327 -0.1691  0.8496 -0.1809
12054SOL    HW239055   2.307   2.002   2.412 -0.5463  0.2216 -0.5019
12055SOL     OW39056   1.329   7.782   0.315  0.0647  0.9526 -0.2528
12055SOL    HW139057   1.400   7.748   0.369 -0.9791  0.9414  1.1809
12055SOL    HW239058   1.347   7.876   0.307  0.7920  0.7735 -0.8048
12056SOL     OW39059   4.607   1.120   1.943  0.4246 -0.3475  0.5558
12056SOL    HW139060   4.529   1.065   1.952  1.5250 -2.0097  0.3578
12056SOL    HW239061   4.657   1.078   1.874  0.8652  1.5035 -0.2982
12057SOL     OW39062   0.718   4.690   2.935  0.3521 -0.1338  0.1462
12057SOL    HW139063   0.784   4.711   2.869 -0.0082 -1.5242 -0.7007
12057SOL    HW239064   0.766   4.647   3.005  0.2556 -2.1273 -0.9484
12058SOL     OW39065   4.474   0.061   8.105 -0.3386  0.0075  0.3307
12058SOL    HW139066   4.475   0.115   8.026 -0.4605  1.4809  1.3005
12058SOL    HW239067   4.411  -0.008   8.085 -0.9818  0.8188 -0.5591
12059SOL     OW39068   3.081   6.907   3.539  0.0930 -0.3150 -0.3532
12059SOL    HW139069   2.995   6.900   3.498  0.3363  0.1119 -0.9508
12059SOL    HW239070   3.081   6.993   3.582 -0.2887 -0.8988  0.8764
12060SOL     OW39071   6.845   2.708   3.447 -0.1158 -0.1463  0.8178
12060SOL    HW139072   6.780   2.745   3.388  1.1370  1.5977  0.4524
12060SOL    HW239073   6.911   2.669   3.389  1.8639  2.8329  0.8734
12061SOL     OW39074   8.576   2.030   8.903 -0.2238 -0.4608 -0.7624
12061SOL    HW139075   8.566   2.083   8.824 -1.6732  0.4544  0.0051
12061SOL    HW239076   8.608   1.945   8.871 -1.8800 -0.5063 -2.4843
12062SOL     OW39077   6.767   3.998   5.981 -0.2549 -0.2748  0.3476
12062SOL    HW139078   6.678   4.034   5.972 -0.3343 -0.4019  0.6370
12062SOL    HW239079   6.822   4.075   5.994 -0.3080 -0.1866  0.0738
12063SOL     OW39080   6.197   0.780   8.611 -0.4207  0.4925 -0.7178
12063SOL    HW139081   6.207   0.685   8.601  0.6040  0.6591 -1.5473
12063SOL    HW239082   6.268   0.805   8.670 -1.0994  0.6738  0.0430
12064SOL     OW39083   4.571   6.721   2.069 -0.3078 -0.4573  0.6700
12064SOL    HW139084   4.589   6.806   2.029 -0.2100 -0.9120 -0.2863
12064SOL    HW239085   4.576   6.659   1.996 -2.0927 -1.0765  1.0293
12065SOL     OW39086   7.734   0.987   9.185 -0.2311  0.4340 -0.0012
12065SOL    HW139087   7.678   1.040   9.129  0.1291  0.1226 -0.6634
12065SOL    HW239088   7.685   0.980   9.268 -2.1036 -1.4668 -1.1745
12066SOL     OW39089   2.651   4.227   9.330 -0.3949 -0.0378 -0.3780
12066SOL    HW139090   2.665   4.135   9.306 -1.3069 -0.0454 -0.9168
12066SOL    HW239091   2.569   4.251   9.286 -0.4299  0.8847  0.1737
12067SOL     OW39092   4.110   3.683   9.366  0.2789 -0.2202 -0.9827
12067SOL    HW139093   4.154   3.667   9.449  0.6326 -0.8700 -1.2896
12067SOL    HW239094   4.106   3.779   9.359  0.3770 -0.1608 -0.2930
12068SOL     OW39095   4.376   5.310   7.054 -0.7438  0.0699  0.3482
12068SOL    HW139096   4.427   5.390   7.070  0.3517 -0.6272  0.5093
12068SOL    HW239097   4.399   5.285   6.965  0.0384 -0.8039  0.7680
12069SOL     OW39098   1.889   1.563   3.405 -0.1390  0.6875  0.0205
12069SOL    HW139099   1.964   1.579   3.462 -0.7649  2.6217  0.3958
12069SOL    HW239100   1.906   1.478   3.365  2.0306  0.8905  0.4163
12070SOL     OW39101   3.336   7.735   2.851  0.4511  0.2998  0.1337
12070SOL    HW139102   3.307   7.764   2.938  1.3421 -0.1528  0.5922
12070SOL    HW239103   3.343   7.640   2.859 -1.0782  0.0671 -0.9392
12071SOL     OW39104   3.109   1.413   9.577  0.1324 -0.0909 -0.5986
12071SOL    HW139105   3.111   1.494   9.526 -1.8700 -0.5513 -1.5283
12071SOL    HW239106   3.193   1.411   9.623  0.3108  2.4046 -0.6819
12072SOL     OW39107   0.066   0.775   8.853  0.3490 -0.5236 -0.4236
12072SOL    HW139108   0.056   0.816   8.767 -1.6027  0.1031  0.0490
12072SOL    HW239109   0.009   0.698   8.850 -0.0006 -0.3055  0.4157
12073SOL     OW39110   5.007   7.365   6.735 -0.0325 -0.1191  0.5399
12073SOL    HW139111   4.959   7.446   6.751  1.5049  0.6138  1.7999
12073SOL    HW239112   5.084   7.392   6.685  1.2734 -0.4898  2.2395
12074SOL     OW39113   0.564   9.385   4.725 -0.5727 -0.2120 -0.7534
12074SOL    HW139114   0.525   9.417   4.644 -1.6200 -0.2199 -0.2773
12074SOL    HW239115   0.525   9.298   4.738 -0.7571 -0.0365 -0.0416
12075SOL     OW39116   4.664   8.597   3.156 -0.0291  0.0065 -0.5705
12075SOL    HW139117   4.587   8.649   3.176 -1.6919 -2.0979 -1.2202
12075SOL    HW239118   4.708   8.645   3.085  0.7092  2.4902  1.3907
12076SOL     OW39119   4.091   1.003   2.937  0.2753  0.2139  0.2996
12076SOL    HW139120   4.055   1.027   3.023 -0.0509 -0.8316  0.4711
12076SOL    HW239121   4.016   0.974   2.886  0.7878 -1.6874  0.5556
12077SOL     OW39122   6.180   4.362   9.009  0.6919  0.0735 -0.0672
12077SOL    HW139123   6.174   4.409   9.092  0.2373 -0.1097  0.0066
12077SOL    HW239124   6.252   4.404   8.962 -0.5419  1.7340 -0.5623
12078SOL     OW39125   7.698   2.971   0.768  0.2242  0.0305  0.7509
12078SOL    HW139126   7.754   2.909   0.721  1.3873  2.1893 -0.8646
12078SOL    HW239127   7.731   2.971   0.858  2.8444  1.1594 -0.1270
12079SOL     OW39128   5.384   5.922   8.064 -0.0976 -0.0612  0.5416
12079SOL    HW139129   5.443   5.980   8.016  0.2258  0.2654  1.3214
12079SOL    HW239130   5.407   5.935   8.156 -1.5724  0.2767  0.8877
12080SOL     OW39131   6.218   2.954   4.435 -0.9790 -0.4897 -0.6139
12080SOL    HW139132   6.166   2.882   4.470  0.0208 -1.7975 -1.6997
12080SOL    HW239133   6.295   2.958   4.491 -0.8045 -0.5811 -0.8476
12081SOL     OW39134   5.328   3.836   4.937 -0.0050  0.2125 -0.2366
12081SOL    HW139135   5.383   3.914   4.936 -0.1315  0.3059 -0.0958
12081SOL    HW239136   5.388   3.763   4.927  0.3372  0.2078  1.5424
12082SOL     OW39137   9.029   3.405   7.021 -0.5526 -0.5245 -0.1926
12082SOL    HW139138   9.121   3.381   7.028 -0.3202  0.5102  0.5215
12082SOL    HW239139   8.995   3.395   7.110 -1.1342 -0.8621 -0.4407
12083SOL     OW39140   3.880   4.977   3.939 -0.3248 -0.5406  0.2427
12083SOL    HW139141   3.909   4.969   4.029 -2.0254 -1.8752  0.7336
12083SOL    HW239142   3.891   5.070   3.918  1.3718 -0.4673  1.3279
12084SOL     OW39143   7.600   5.696   2.577  0.2942  0.5681 -0.0120
12084SOL    HW139144   7.571   5.654   2.657 -2.9626  1.1611 -0.7682
12084SOL    HW239145   7.619   5.624   2.517 -0.0015  0.1513  0.3961
12085SOL     OW39146   5.218   1.342   4.499 -0.1296 -0.0056  0.1101
12085SOL    HW139147   5.267   1.305   4.573 -2.0871 -3.7788 -0.2301
12085SOL    HW239148   5.183   1.266   4.454 -2.1144  2.3181 -2.5792
12086SOL     OW39149   2.850   9.174   1.695 -0.6866  0.7392 -0.4025
12086SOL    HW139150   2.863   9.265   1.720  2.6809  1.0339 -2.5044
12086SOL    HW239151   2.786   9.177   1.624 -1.8364  1.2347  0.6382
12087SOL     OW39152   3.959   9.230   9.051  0.4069 -0.0103 -0.5717
12087SOL    HW139153   3.992   9.252   9.138 -1.4483  0.9833 -0.0694
12087SOL    HW239154   3.918   9.143   9.063  3.2497 -1.5772 -1.3568
12088SOL     OW39155   4.996   4.227   1.207  0.0133  0.0210 -0.5900
12088SOL    HW139156   4.965   4.161   1.269  0.9341  1.4361  1.4858
12088SOL    HW239157   4.952   4.308   1.234 -0.9593  0.3660 -2.9572
12089SOL     OW39158   2.604   9.557   7.975 -0.7754 -0.6710 -0.2683
12089SOL    HW139159   2.618   9.615   7.901 -2.3829 -0.8668 -0.7635
12089SOL    HW239160   2.585   9.472   7.936  0.9057 -1.4060  0.4374
12090SOL     OW39161   7.292   2.590   3.979  0.0746 -0.3583 -0.8104
12090SOL    HW139162   7.336   2.670   4.008  0.9902 -1.2940  0.4338
12090SOL    HW239163   7.199   2.609   3.990  0.3292 -0.1051  1.3326
12091SOL     OW39164   1.393   6.770   3.599  0.1216 -0.3622 -0.2625
12091SOL    HW139165   1.467   6.779   3.659  0.6353  0.3150 -0.9769
12091SOL    HW239166   1.376   6.859   3.569 -0.2850 -0.6614 -0.9319
12092SOL     OW39167   3.962   2.903   0.812  0.0045  0.2560  0.5420
12092SOL    HW139168   3.974   2.936   0.723 -0.0328  2.0391  1.1557
12092SOL    HW239169   3.878   2.939   0.840 -0.8327 -1.7305  0.7237
12093SOL     OW39170   8.726   0.500   9.358 -0.0034 -0.0065 -0.2826
12093SOL    HW139171   8.750   0.411   9.384  1.0331  0.2212 -0.4288
12093SOL    HW239172   8.761   0.510   9.270 -1.9322 -0.1458 -1.1244
12094SOL     OW39173   4.315   9.355   2.372  0.2606 -0.0394 -0.3605
12094SOL    HW139174   4.406   9.349   2.344  0.3579  1.6284 -0.4706
12094SOL    HW239175   4.314   9.424   2.438 -0.3682 -2.3045  2.1831
12095SOL     OW39176   6.423   6.641   5.441  0.3643  0.5625  0.1908
12095SOL    HW139177   6.491   6.706   5.459  2.2808 -0.8695 -1.3853
12095SOL    HW239178   6.458   6.590   5.368 -2.5499 -0.1066 -0.8686
12096SOL     OW39179   6.853   2.046   4.712  0.3087 -0.4155 -0.3785
12096SOL    HW139180   6.882   2.132   4.742 -1.8846  1.1788 -2.4374
12096SOL    HW239181   6.934   1.996   4.699  1.6187  1.1547  1.2302
12097SOL     OW39182   3.416   1.244   8.242  0.4622  0.4059  0.4149
12097SOL    HW139183   3.449   1.154   8.252 -0.6085  0.0118  0.5731
12097SOL    HW239184   3.417   1.279   8.331  0.4824  0.4052  0.4152
12098SOL     OW39185   6.135   8.206   4.814 -0.1160  0.3586 -0.3641
12098SOL    HW139186   6.098   8.294   4.813 -0.8216  0.0738 -0.6289
12098SOL    HW239187   6.132   8.177   4.723 -0.8952 -0.3306 -0.1368
12099SOL     OW39188   4.354   5.755   3.264 -0.1480 -0.0716 -0.1945
12099SOL    HW139189   4.315   5.712   3.341 -1.8330  0.7098 -0.5555
12099SOL    HW239190   4.423   5.810   3.300  0.9695 -1.7990  0.4366
12100SOL     OW39191   0.851   3.746   0.157  0.2947 -0.6225  0.1048
12100SOL    HW139192   0.829   3.776   0.245  0.5927  0.5891 -0.2158
12100SOL    HW239193   0.934   3.790   0.137 -0.6574  0.5523 -1.4612
12101SOL     OW39194   6.986   0.818   4.184  0.0396  0.4009  0.3584
12101SOL    HW139195   7.066   0.775   4.215 -1.9975 -2.3433  2.2685
12101SOL    HW239196   7.018   0.895   4.136  3.9027 -2.1835 -1.7545
12102SOL     OW39197   0.605   0.500   5.486  0.1008  0.0041  0.0464
12102SOL    HW139198   0.647   0.522   5.403 -0.0405  0.6741  0.1452
12102SOL    HW239199   0.525   0.553   5.487 -0.2806 -0.5714  0.2713
12103SOL     OW39200   6.289   2.230   4.176 -0.0321 -0.1808  0.1538
12103SOL    HW139201   6.330   2.144   4.187  0.8128  0.1560 -0.2509
12103SOL    HW239202   6.341   2.289   4.231  0.6591  0.4270 -1.0905
12104SOL     OW39203   0.426   4.304   6.312  0.6280  0.2989  0.3494
12104SOL    HW139204   0.469   4.366   6.371  0.0085  0.1070  0.9991
12104SOL    HW239205   0.498   4.269   6.259  1.2630  0.0886  1.3324
12105SOL     OW39206   5.384   6.585   8.122 -0.4159  0.2193  0.0142
12105SOL    HW139207   5.463   6.538   8.148 -0.6114  0.1972  0.5667
12105SOL    HW239208   5.412   6.675   8.109 -0.1760  0.0894 -0.3975
12106SOL     OW39209   4.420   1.535   7.673 -0.3952 -0.2788  0.4074
12106SOL    HW139210   4.483   1.465   7.656 -0.6333 -0.6070  0.8616
12106SOL    HW239211   4.434   1.559   7.765  0.1037  0.6974  0.0914
12107SOL     OW39212   2.429   7.558   0.143  0.4382 -0.1237  0.4181
12107SOL    HW139213   2.421   7.560   0.238 -0.9785  1.5602  0.3319
12107SOL    HW239214   2.508   7.609   0.124  0.8941 -0.7254  0.7008
12108SOL     OW39215   8.365   6.122   7.997  0.5850  0.0012 -0.2896
12108SOL    HW139216   8.363   6.059   7.925 -2.1283 -0.8146  0.3805
12108SOL    HW239217   8.296   6.185   7.975  2.0549  1.7945 -0.0614
12109SOL     OW39218   4.829   9.257   4.112 -0.1798  0.0919 -0.0184
12109SOL    HW139219   4.750   9.276   4.163  0.8077 -0.1868  1.6887
12109SOL    HW239220   4.852   9.167   4.136  1.1696  0.4861  0.2553
12110SOL     OW39221   3.249   7.066   5.748 -0.5533 -0.0967 -0.3592
12110SOL    HW139222   3.319   7.091   5.688 -0.5828 -0.4542 -0.5457
12110SOL    HW239223   3.170   7.064   5.694 -0.4776 -1.0413 -0.4686
12111SOL     OW39224   1.491   4.411   3.983  0.6189  0.1468  0.2177
12111SOL    HW139225   1.575   4.431   3.942  0.5806  0.7643  0.4419
12111SOL    HW239226   1.514   4.385   4.072  0.6309 -0.3954  0.0604
12112SOL     OW39227   7.031   2.257   7.162  0.0875 -0.6289  0.5272
12112SOL    HW139228   7.053   2.251   7.069 -2.9178 -0.6071 -0.2675
12112SOL    HW239229   6.962   2.323   7.167  0.2172 -0.5880  2.8098
12113SOL     OW39230   0.010   0.330   0.588 -0.5979 -0.6719  0.5202
12113SOL    HW139231  -0.039   0.299   0.513 -1.7751 -0.4406  1.1686
12113SOL    HW239232   0.096   0.288   0.580 -1.0498 -1.4553 -0.3821
12114SOL     OW39233   0.728   0.340   0.113  0.7029  0.1457 -0.5730
12114SOL    HW139234   0.776   0.362   0.033  1.8266  1.0228  0.3103
12114SOL    HW239235   0.714   0.425   0.156  0.9347 -0.3927  0.5989
12115SOL     OW39236   7.732   3.813   5.605 -0.3067  0.1132 -0.5524
12115SOL    HW139237   7.822   3.789   5.583 -0.5384  0.9122 -2.5921
12115SOL    HW239238   7.738   3.853   5.691  1.2009 -0.3665 -0.4060
12116SOL     OW39239   4.729   9.112   6.850  0.4727 -0.1390 -0.2243
12116SOL    HW139240   4.812   9.082   6.890  1.2876 -0.9432 -2.3953
12116SOL    HW239241   4.748   9.119   6.757 -1.4468  1.4215 -0.5670
12117SOL     OW39242   2.021   4.264   2.020 -0.5501  0.0779  0.0329
12117SOL    HW139243   1.984   4.269   2.108  0.1453  1.5975  0.2570
12117SOL    HW239244   2.069   4.181   2.019 -1.2744 -0.3648  0.7851
12118SOL     OW39245   3.666   6.440   4.300 -0.2020 -0.2258  0.0419
12118SOL    HW139246   3.600   6.491   4.253 -0.1300 -0.9720 -0.8800
12118SOL    HW239247   3.701   6.501   4.365 -0.6319  0.6745 -0.5565
12119SOL     OW39248   8.901   7.694   3.167  0.1994  0.2129  0.1687
12119SOL    HW139249   8.980   7.652   3.132 -0.7233 -0.2424 -1.4532
12119SOL    HW239250   8.845   7.707   3.091 -0.9234  1.3836  1.1516
12120SOL     OW39251   4.143   5.900   1.230 -0.0518  0.1984 -0.1455
12120SOL    HW139252   4.174   5.898   1.140 -1.8019 -1.4037 -0.7762
12120SOL    HW239253   4.063   5.953   1.228 -0.0211  0.2897  0.5072
12121SOL     OW39254   2.130   4.728   3.468  0.2064 -0.4256 -0.1443
12121SOL    HW139255   2.202   4.668   3.449  1.5804  0.9194  0.6017
12121SOL    HW239256   2.113   4.773   3.385  2.2957  1.3590  0.3178
12122SOL     OW39257   4.003   7.462   1.248 -0.3874 -0.0096  0.1223
12122SOL    HW139258   4.012   7.517   1.325 -1.6554 -1.1211  1.1197
12122SOL    HW239259   3.941   7.393   1.275  1.0491 -1.8666 -1.0794
12123SOL     OW39260   5.610   9.342   3.866  0.3349 -0.6374 -0.0515
12123SOL    HW139261   5.681   9.362   3.804  1.7199  0.1348  1.6720
12123SOL    HW239262   5.651   9.287   3.932 -0.7491 -0.3794  0.8655
12124SOL     OW39263   7.662   6.846   6.917  0.1072  0.2700  0.0717
12124SOL    HW139264   7.718   6.813   6.987  2.8179  1.9299 -1.1576
12124SOL    HW239265   7.619   6.923   6.955 -0.3271 -0.2178  0.5962
12125SOL     OW39266   5.670   4.828   4.463 -0.1269  0.9589 -0.1768
12125SOL    HW139267   5.689   4.855   4.553 -2.1810  0.2009  0.5311
12125SOL    HW239268   5.724   4.750   4.449  0.7992  1.5357  0.0957
12126SOL     OW39269   4.244   7.717   1.588  0.0468  0.2353 -0.0081
12126SOL    HW139270   4.267   7.644   1.646  0.2407 -0.9207 -1.4676
12126SOL    HW239271   4.285   7.793   1.628 -0.0299 -0.4756  1.4840
12127SOL     OW39272   5.356   5.909   7.644  0.1173 -0.4932 -0.4163
12127SOL    HW139273   5.431   5.895   7.702 -2.2216 -2.5950  2.4083
12127SOL    HW239274   5.382   5.871   7.560  1.9293 -1.9544  0.7329
12128SOL     OW39275   8.878   3.337   2.556 -0.0030  0.3083 -0.4447
12128SOL    HW139276   8.905   3.369   2.642 -2.1678  1.5202 -0.1200
12128SOL    HW239277   8.788   3.305   2.570 -0.1570 -0.0979 -2.1187
12129SOL     OW39278   8.839   2.171   4.173 -0.3345  0.0055  0.1088
12129SOL    HW139279   8.845   2.087   4.219 -2.6916  0.6965  1.8913
12129SOL    HW239280   8.752   2.171   4.133  1.5182 -0.5049 -4.5813
12130SOL     OW39281   1.817   5.534   8.316  0.1405  0.2001 -0.0874
12130SOL    HW139282   1.826   5.607   8.377  1.2140 -0.1669  0.2137
12130SOL    HW239283   1.730   5.500   8.333  0.5970 -0.2146  1.6215
12131SOL     OW39284   8.455   8.379   0.614 -0.5744 -0.0990  0.0021
12131SOL    HW139285   8.545   8.395   0.642 -0.3720 -0.3065 -0.5166
12131SOL    HW239286   8.402   8.438   0.667  0.2084  3.5667 -2.8498
12132SOL     OW39287   0.202   3.658   5.167 -0.5989  0.2939  0.1326
12132SOL    HW139288   0.297   3.648   5.162 -0.5090  0.0815  1.7383
12132SOL    HW239289   0.168   3.612   5.090  0.5420 -0.4879  0.0903
12133SOL     OW39290   6.499   8.615   0.576 -0.2247 -0.0603  0.3440
12133SOL    HW139291   6.485   8.542   0.516 -1.9817 -0.7794  1.5652
12133SOL    HW239292   6.594   8.628   0.577 -0.0662 -0.6775 -1.7753
12134SOL     OW39293   4.864   1.137   8.799  0.4743 -0.0655  0.1433
12134SOL    HW139294   4.894   1.192   8.870 -0.4354  0.7153 -0.0492
12134SOL    HW239295   4.775   1.168   8.780  0.4630 -0.6687 -0.9097
12135SOL     OW39296   5.538   5.568   8.797  0.1160 -0.0029 -0.0532
12135SOL    HW139297   5.628   5.539   8.782 -0.0451 -1.1269  0.9956
12135SOL    HW239298   5.545   5.634   8.866  0.1722  0.2846 -0.3284
12136SOL     OW39299   1.342   3.492   2.015  0.2237  0.5664 -0.1036
12136SOL    HW139300   1.407   3.425   1.995 -0.1398 -0.3220  1.4806
12136SOL    HW239301   1.276   3.483   1.946 -0.3537 -1.4868  0.6287
12137SOL     OW39302   5.475   3.339   0.760  0.1236  0.3744  0.2023
12137SOL    HW139303   5.467   3.353   0.855  0.4497  1.2128  0.1146
12137SOL    HW239304   5.444   3.250   0.747  0.7917 -0.0298  1.2033
12138SOL     OW39305   4.180   0.735   1.790  0.2384  0.0742  0.5351
12138SOL    HW139306   4.136   0.819   1.775 -0.0333 -0.0979  0.3486
12138SOL    HW239307   4.188   0.730   1.885 -0.2185  0.0773  0.5789
12139SOL     OW39308   1.835   2.952   2.856  0.2560 -0.4679 -0.2666
12139SOL    HW139309   1.927   2.927   2.867  0.0603 -0.8337  0.6622
12139SOL    HW239310   1.837   3.048   2.851  0.5903 -0.3862  0.9882
12140SOL     OW39311   2.305   3.634   7.500 -1.0366 -0.5918  0.5412
12140SOL    HW139312   2.262   3.558   7.541  0.2099 -1.0870  0.9627
12140SOL    HW239313   2.398   3.618   7.511 -0.7373  0.7195  0.0887
12141SOL     OW39314   7.404   1.992   0.430  0.2740  0.6164 -0.0043
12141SOL    HW139315   7.434   1.901   0.429 -0.7686  0.2685 -1.1713
12141SOL    HW239316   7.467   2.036   0.488  1.8531 -0.4733 -0.7923
12142SOL     OW39317   4.749   8.024   4.622 -0.0978  0.5252 -0.6335
12142SOL    HW139318   4.694   8.101   4.608  0.9318  0.9862 -2.3760
12142SOL    HW239319   4.785   8.004   4.536 -0.2627 -1.8760 -0.2167
12143SOL     OW39320   7.890   4.016   6.027  0.0209  0.1471  0.6211
12143SOL    HW139321   7.983   4.005   6.007 -0.4831 -2.6719 -0.6990
12143SOL    HW239322   7.850   4.040   5.943 -0.6960 -0.8644  0.6505
12144SOL     OW39323   4.202   0.953   6.799 -0.5408  0.2071 -0.0764
12144SOL    HW139324   4.219   1.026   6.739  1.1004  0.3775  0.5528
12144SOL    HW239325   4.130   0.905   6.758  0.1790  0.6150 -1.9217
12145SOL     OW39326   7.399   8.941   1.733 -0.2421  0.0363 -0.1247
12145SOL    HW139327   7.404   9.027   1.693  2.2697 -0.4235 -1.0062
12145SOL    HW239328   7.490   8.909   1.732 -0.6572 -1.5281  2.5993
12146SOL     OW39329   5.825   4.296   6.138 -0.2351  0.2883 -0.1152
12146SOL    HW139330   5.896   4.235   6.159 -0.8829 -0.4893 -0.1559
12146SOL    HW239331   5.842   4.322   6.047  0.1086  0.2663 -0.0594
12147SOL     OW39332   1.151   3.759   7.098 -0.5778  0.4436  0.3357
12147SOL    HW139333   1.178   3.742   7.188 -0.9348 -1.8254  0.0962
12147SOL    HW239334   1.058   3.781   7.104 -0.7401 -0.2572  0.5037
12148SOL     OW39335   8.578   6.371   5.537  0.2279 -0.3025 -0.3130
12148SOL    HW139336   8.566   6.334   5.624  1.4588 -0.5716 -0.2325
12148SOL    HW239337   8.524   6.450   5.537  0.9771  0.2463  1.0629
12149SOL     OW39338   6.363   6.637   4.335  0.5046  0.7051  0.0844
12149SOL    HW139339   6.444   6.682   4.312  0.9713 -0.1670 -0.0334
12149SOL    HW239340   6.294   6.687   4.291  1.0101  1.2521 -0.0979
12150SOL     OW39341   7.440   3.718   9.318  0.2999  0.1115  0.0135
12150SOL    HW139342   7.458   3.681   9.404  0.0563 -1.5909 -0.6245
12150SOL    HW239343   7.520   3.705   9.268  0.8166  2.0778  0.2724
12151SOL     OW39344   4.196   4.078   8.697  0.5496  0.0630  0.3810
12151SOL    HW139345   4.176   3.993   8.736  0.9115  0.1866  0.8551
12151SOL    HW239346   4.274   4.107   8.743  0.0876  0.9239  0.6405
12152SOL     OW39347   3.461   2.087   8.416 -0.5719 -0.5432  0.2129
12152SOL    HW139348   3.529   2.062   8.479 -0.5846 -0.1470  0.3891
12152SOL    HW239349   3.422   2.004   8.388  0.2565 -0.7944 -0.1986
12153SOL     OW39350   0.523   1.029   1.787  0.2119 -0.5937  0.0157
12153SOL    HW139351   0.477   1.020   1.871 -2.2002 -2.6169 -1.3800
12153SOL    HW239352   0.454   1.023   1.721  1.8171  2.4423 -2.1944
12154SOL     OW39353   5.099   5.837   3.936 -0.2428  0.2045 -0.1928
12154SOL    HW139354   5.055   5.795   4.010  0.6760  0.8154  0.7277
12154SOL    HW239355   5.029   5.854   3.873 -1.0308 -0.4021  0.4942
12155SOL     OW39356   1.468   1.704   4.816  0.1184  0.9200  0.0203
12155SOL    HW139357   1.502   1.766   4.881  1.7649  0.5507 -0.4463
12155SOL    HW239358   1.448   1.758   4.740 -0.9079  1.2215  0.4945
12156SOL     OW39359   8.030   6.696   4.381 -0.1435  0.1207  1.0006
12156SOL    HW139360   8.079   6.715   4.461  2.4701  2.4684 -0.9914
12156SOL    HW239361   8.073   6.619   4.344  0.0129  0.3195  0.7746
12157SOL     OW39362   4.892   7.197   6.889  0.0845 -0.5417 -0.6851
12157SOL    HW139363   4.956   7.260   6.854  1.6423 -1.3100  0.6342
12157SOL    HW239364   4.835   7.178   6.815  0.6903  1.0245 -1.6224
12158SOL     OW39365   3.027   1.504   4.520  0.5037  0.1460  1.1687
12158SOL    HW139366   3.065   1.457   4.446 -1.5939 -1.6024  1.1227
12158SOL    HW239367   2.974   1.439   4.566 -2.2311  2.3021  1.3466
12159SOL     OW39368   1.309   2.222   4.073  0.5160  0.1287  0.3191
12159SOL    HW139369   1.231   2.229   4.129  0.0267  0.5342 -0.3975
12159SOL    HW239370   1.275   2.225   3.984  1.2304 -1.1685 -0.0267
12160SOL     OW39371   9.437   8.230   9.439 -0.1414  0.3178 -0.8401
12160SOL    HW139372   9.368   8.286   9.473 -0.2339 -0.3812  0.1811
12160SOL    HW239373   9.404   8.199   9.354  0.5073  2.8564 -2.1109
12161SOL     OW39374   4.604   4.842   7.646 -0.4387 -0.0038  0.0657
12161SOL    HW139375   4.637   4.848   7.736  0.0964  0.1763 -0.1387
12161SOL    HW239376   4.592   4.933   7.619  1.2545  0.0374 -0.7039
12162SOL     OW39377   0.352   1.177   1.543  0.0788 -0.0503 -0.4707
12162SOL    HW139378   0.289   1.157   1.612  1.3989  0.0365  0.8152
12162SOL    HW239379   0.339   1.270   1.525 -1.4674 -0.4487 -1.6461
12163SOL     OW39380   1.904   7.397   1.037 -0.2730 -0.4019 -0.2056
12163SOL    HW139381   1.900   7.376   0.944 -3.0147  2.4762 -0.9271
12163SOL    HW239382   1.966   7.470   1.043 -0.7468 -0.0176  0.0736
12164SOL     OW39383   8.513   0.868   7.781 -0.5628 -0.1817 -0.1326
12164SOL    HW139384   8.539   0.932   7.848 -2.4862 -0.6291  1.1276
12164SOL    HW239385   8.454   0.916   7.724  1.2768  0.2720 -1.7624
12165SOL     OW39386   6.683   4.964   1.579 -0.1635 -0.2056 -0.3531
12165SOL    HW139387   6.697   4.900   1.649 -1.9558 -1.4511 -1.0609
12165SOL    HW239388   6.693   5.049   1.622  2.2916 -0.8749  0.6084
12166SOL     OW39389   7.788   4.093   3.395 -0.2529  0.6174  0.8531
12166SOL    HW139390   7.842   4.099   3.317 -1.5163 -0.0293 -0.1041
12166SOL    HW239391   7.845   4.050   3.460  0.2604 -0.4106 -0.2380
12167SOL     OW39392   8.508   7.969   0.701 -0.8202  0.4311  0.0492
12167SOL    HW139393   8.543   8.046   0.655 -1.9373 -0.6535 -2.9114
12167SOL    HW239394   8.415   7.968   0.677 -1.1140 -1.1059  1.1282
12168SOL     OW39395   8.332   6.023   9.422  0.0932  0.6924 -0.2847
12168SOL    HW139396   8.243   6.044   9.395 -0.8228  0.3553  2.2043
12168SOL    HW239397   8.327   5.932   9.451  1.5486  0.2926 -1.1931
12169SOL     OW39398   0.077   6.990   4.088  0.0075  0.2376  0.0514
12169SOL    HW139399   0.148   6.959   4.144  1.3045  0.6478 -1.3153
12169SOL    HW239400   0.044   6.911   4.045 -0.1555  0.0895  0.4467
12170SOL     OW39401   4.532   0.400   6.747 -0.1546 -0.2844  0.1157
12170SOL    HW139402   4.594   0.458   6.702 -1.7635 -0.5085 -2.6221
12170SOL    HW239403   4.578   0.316   6.752  0.3931 -0.0202 -0.3507
12171SOL     OW39404   1.840   1.211   2.478 -0.6608  0.0849  0.1872
12171SOL    HW139405   1.931   1.221   2.508 -0.0836  0.4657 -1.5781
12171SOL    HW239406   1.833   1.118   2.454 -1.1298 -0.2261  1.4748
12172SOL     OW39407   6.209   3.377   7.680 -0.7184 -0.6720 -0.2484
12172SOL    HW139408   6.195   3.382   7.774 -0.7024 -0.3725 -0.2602
12172SOL    HW239409   6.284   3.317   7.670  1.2794  1.5937  0.1232
12173SOL     OW39410   4.290   0.511   6.744 -0.1843 -0.0497  0.3943
12173SOL    HW139411   4.362   0.452   6.767 -0.0303  0.2761  0.7694
12173SOL    HW239412   4.316   0.595   6.781 -0.1849  0.3636 -0.5372
12174SOL     OW39413   2.317   2.738   5.856  0.3105  0.0363 -0.3649
12174SOL    HW139414   2.306   2.668   5.921 -2.2287 -0.5403 -1.2953
12174SOL    HW239415   2.407   2.726   5.824  0.0096 -2.8132 -0.4521
12175SOL     OW39416   3.504   0.755   5.520 -0.2474  0.0536 -0.0497
12175SOL    HW139417   3.505   0.850   5.535 -1.3201  0.1387 -0.4220
12175SOL    HW239418   3.587   0.724   5.556  0.7571  1.3273 -1.1567
12176SOL     OW39419   4.618   4.062   8.458 -0.1888 -0.4832 -0.6270
12176SOL    HW139420   4.528   4.088   8.440 -0.5976 -1.0237  0.5791
12176SOL    HW239421   4.669   4.104   8.388 -1.4428 -0.7438 -1.7428
12177SOL     OW39422   5.116   3.863   4.564 -0.4305 -0.1696 -0.1972
12177SOL    HW139423   5.128   3.876   4.659 -2.2692 -3.4720  0.6369
12177SOL    HW239424   5.084   3.947   4.532 -2.6957  0.2515  2.7454
12178SOL     OW39425   8.429   0.471   9.606 -0.6578 -0.3730  0.3155
12178SOL    HW139426   8.445   0.524   9.528 -0.8544  1.2549  1.3180
12178SOL    HW239427   8.497   0.403   9.604  0.4385  0.7072 -0.3685
12179SOL     OW39428   5.819   7.706   0.533 -0.1059  0.1294 -0.1737
12179SOL    HW139429   5.800   7.632   0.591  1.1623  0.9351  1.3546
12179SOL    HW239430   5.759   7.694   0.459 -0.7837 -1.7366  0.6023
12180SOL     OW39431   5.679   1.922   0.224 -0.5569 -0.4419 -0.0752
12180SOL    HW139432   5.585   1.904   0.224 -0.2309 -2.5685  1.9843
12180SOL    HW239433   5.720   1.839   0.198  0.8298 -0.8850  3.0599
12181SOL     OW39434   1.736   7.050   8.287  0.4131 -0.1125  0.9025
12181SOL    HW139435   1.767   6.968   8.327  0.4130  0.1861  1.5310
12181SOL    HW239436   1.709   7.104   8.362 -2.5217 -0.6910  0.3675
12182SOL     OW39437   4.527   3.914   5.148  0.0137  0.2482  0.5080
12182SOL    HW139438   4.466   3.941   5.079 -0.3649  0.7964  1.0428
12182SOL    HW239439   4.484   3.941   5.229 -0.1664 -1.5956  1.0518
12183SOL     OW39440   2.998   9.292   2.842  0.2556  0.0519 -0.2681
12183SOL    HW139441   2.925   9.354   2.840 -0.7417 -1.0895 -2.0601
12183SOL    HW239442   3.044   9.307   2.759  1.7576  0.3490  0.5774
12184SOL     OW39443   7.278   2.689   6.411  0.0062 -0.6985 -0.6254
12184SOL    HW139444   7.237   2.775   6.427  1.2813  0.0734 -1.3310
12184SOL    HW239445   7.249   2.635   6.484 -1.1804  0.2018 -0.3961
12185SOL     OW39446   8.433   1.444   6.302  0.5413  0.0010 -0.2934
12185SOL    HW139447   8.436   1.439   6.207  0.0117 -2.3086 -0.2434
12185SOL    HW239448   8.368   1.512   6.321  0.4980  0.3261 -1.5595
12186SOL     OW39449   3.684   0.976   6.422  0.4201 -0.3425 -0.0684
12186SOL    HW139450   3.643   0.922   6.490 -0.7218 -0.7224 -1.0310
12186SOL    HW239451   3.746   1.030   6.470  0.4287 -1.3682  1.1386
12187SOL     OW39452   7.416   9.340   2.530 -0.6299 -0.6934  0.3606
12187SOL    HW139453   7.429   9.246   2.534 -1.3217 -0.7913  0.4501
12187SOL    HW239454   7.378   9.356   2.443 -0.1140 -0.4459  0.1782
12188SOL     OW39455   7.727   4.273   2.355  0.0896  0.0584 -0.0398
12188SOL    HW139456   7.642   4.231   2.343 -0.1556  0.5657 -0.0993
12188SOL    HW239457   7.747   4.312   2.270  0.7224 -0.6708 -0.2358
12189SOL     OW39458   3.773   7.036   6.811  0.6081 -0.4934 -0.3322
12189SOL    HW139459   3.781   6.998   6.898 -0.9978 -2.3964 -0.9375
12189SOL    HW239460   3.692   6.998   6.776  0.1363  1.7995 -1.8948
12190SOL     OW39461   2.222   9.106   1.389 -0.4905 -0.3741 -0.2538
12190SOL    HW139462   2.305   9.145   1.360 -0.1810 -0.9112 -0.0998
12190SOL    HW239463   2.199   9.043   1.321 -1.3575  0.5620 -0.8558
12191SOL     OW39464   7.165   3.685   0.629  0.1974 -0.5473 -0.1706
12191SOL    HW139465   7.122   3.672   0.714  0.1599 -2.3659 -0.4289
12191SOL    HW239466   7.230   3.754   0.645 -1.3700  0.8095  0.7383
12192SOL     OW39467   1.836   9.237   3.055  0.8924  0.1424 -0.4662
12192SOL    HW139468   1.929   9.230   3.034  1.4223  3.5658  0.1980
12192SOL    HW239469   1.797   9.277   2.978  0.0503 -0.7010 -0.4980
12193SOL     OW39470   1.783   9.607   8.002  0.3052  0.9237 -0.0753
12193SOL    HW139471   1.750   9.687   7.961  0.3230  0.9519 -0.0336
12193SOL    HW239472   1.779   9.542   7.932 -0.3726  0.7834  0.0874
12194SOL     OW39473   0.245   5.809   0.953 -0.0529 -0.1479 -0.4948
12194SOL    HW139474   0.259   5.717   0.930  0.3528  0.3264 -2.3253
12194SOL    HW239475   0.332   5.840   0.979 -0.0379 -0.1063 -0.5934
12195SOL     OW39476   5.774   6.795   0.323  0.0434  0.2363  0.6440
12195SOL    HW139477   5.841   6.861   0.306  0.2408  0.2205  1.3134
12195SOL    HW239478   5.813   6.713   0.291 -0.1684  0.4211 -0.1112
12196SOL     OW39479   3.575   5.962   5.929  0.4849  0.1914 -0.5109
12196SOL    HW139480   3.627   6.030   5.973  1.9304 -0.2182 -1.5328
12196SOL    HW239481   3.600   5.881   5.973  0.0671  0.0887 -0.4586
12197SOL     OW39482   8.431   5.573   6.760  0.2840  0.6655  0.0206
12197SOL    HW139483   8.343   5.571   6.721 -0.2075  0.5989  1.0773
12197SOL    HW239484   8.478   5.640   6.712 -0.1179  0.2011 -1.0433
12198SOL     OW39485   8.952   0.249   3.190  0.0568 -0.3735  0.4586
12198SOL    HW139486   8.886   0.237   3.121 -0.2904 -2.4769  1.0751
12198SOL    HW239487   9.019   0.304   3.150 -0.9981 -0.0347 -0.9276
12199SOL     OW39488   9.549   5.910   9.392 -0.5703 -0.0973  0.0855
12199SOL    HW139489   9.512   5.942   9.474 -2.6073  0.1425 -0.8748
12199SOL    HW239490   9.476   5.868   9.347  0.3043  0.4603 -1.9639
12200SOL     OW39491   4.597   2.307   6.975  0.0097 -0.7814  0.3474
12200SOL    HW139492   4.598   2.348   7.061  0.2729 -0.3889  0.1625
12200SOL    HW239493   4.681   2.260   6.970 -0.6188 -2.0013  0.8616
12201SOL     OW39494   8.607   8.002   6.024  0.5133  0.8648  0.1498
12201SOL    HW139495   8.520   7.969   6.048  0.3059  1.1569 -0.2001
12201SOL    HW239496   8.591   8.091   5.993  1.0634  1.3059  1.0687
12202SOL     OW39497   4.262   2.029   0.476 -0.8026  0.1774 -0.1287
12202SOL    HW139498   4.262   2.005   0.569 -1.8762  1.4503  0.2282
12202SOL    HW239499   4.215   1.958   0.433  0.2940 -0.7633  0.1856
12203SOL     OW39500   4.036   0.431   4.839 -0.2253  0.1515 -0.4300
12203SOL    HW139501   4.123   0.448   4.804 -0.8713  1.5118 -1.4918
12203SOL    HW239502   3.983   0.505   4.808 -1.6853 -0.4734  0.4540
12204SOL     OW39503   1.449   2.230   2.678  0.3996 -0.3426  0.0365
12204SOL    HW139504   1.412   2.216   2.765 -2.4368 -1.9841 -1.2980
12204SOL    HW239505   1.498   2.150   2.659  1.7131  0.3481  0.3842
12205SOL     OW39506   6.950   0.225   9.273 -0.1333  0.8272  0.6986
12205SOL    HW139507   6.898   0.202   9.350  0.1222  0.4463  0.7618
12205SOL    HW239508   6.917   0.311   9.246 -0.6113  0.7112  0.8961
12206SOL     OW39509   3.185   0.891   6.735 -0.3674 -0.2015  0.0575
12206SOL    HW139510   3.255   0.952   6.758 -0.0055 -1.0144  1.1801
12206SOL    HW239511   3.111   0.948   6.712  0.2503  0.6620  0.1502
12207SOL     OW39512   3.543   1.609   4.771  0.1918 -0.2310  0.0198
12207SOL    HW139513   3.601   1.629   4.845 -1.1160  1.8103  0.5721
12207SOL    HW239514   3.518   1.518   4.784  0.5890 -0.1376  1.6763
12208SOL     OW39515   3.648   2.486   3.241  0.8414 -0.6068  0.1710
12208SOL    HW139516   3.716   2.525   3.295  1.4229 -0.1505 -0.8504
12208SOL    HW239517   3.595   2.560   3.211  0.2237 -0.9037  0.5138
12209SOL     OW39518   5.466   1.640   0.542  0.0102 -0.3117  0.2908
12209SOL    HW139519   5.562   1.644   0.533 -0.1608  2.2756 -1.3589
12209SOL    HW239520   5.451   1.567   0.601  3.1287  0.5383  2.3889
12210SOL     OW39521   0.790   8.794   7.597  0.3183  0.7102 -0.4978
12210SOL    HW139522   0.771   8.764   7.686 -0.3085  0.8095 -0.5970
12210SOL    HW239523   0.827   8.717   7.553  1.8481  1.0038  0.2127
12211SOL     OW39524   4.504   0.351   7.162 -0.0646 -0.4230  0.1168
12211SOL    HW139525   4.426   0.406   7.174  0.5740  0.2801  1.1480
12211SOL    HW239526   4.486   0.273   7.214 -0.3327 -0.5208 -0.1221
12212SOL     OW39527   1.873   4.998   9.532  0.5711  0.2588  0.3092
12212SOL    HW139528   1.966   4.975   9.530  0.1851 -1.7561  2.2259
12212SOL    HW239529   1.827   4.917   9.514 -0.8486  1.0044  0.4152
12213SOL     OW39530   2.647   0.295   7.584  0.1300 -0.0307  0.7462
12213SOL    HW139531   2.635   0.374   7.636  2.4568 -0.5635  2.2666
12213SOL    HW239532   2.655   0.326   7.494 -2.3939  1.0743  0.8289
12214SOL     OW39533   6.181   4.437   3.152 -0.0503 -0.3796 -0.2688
12214SOL    HW139534   6.096   4.413   3.189 -0.4324  0.4129 -0.6140
12214SOL    HW239535   6.235   4.460   3.227  0.7748 -3.4946  0.2416
12215SOL     OW39536   6.926   5.765   9.556 -0.4455 -0.6595 -0.4954
12215SOL    HW139537   6.973   5.843   9.586  0.8846 -1.0583 -1.4402
12215SOL    HW239538   6.834   5.789   9.561 -0.1834  0.0491  1.7273
12216SOL     OW39539   2.422   2.702   8.426  0.1575  0.2283  0.1799
12216SOL    HW139540   2.358   2.643   8.464  0.9032  0.2520  1.5306
12216SOL    HW239541   2.390   2.718   8.337 -1.4638 -0.0941  0.6727
12217SOL     OW39542   8.956   8.732   2.218 -0.1248  0.1815  0.1671
12217SOL    HW139543   8.924   8.753   2.306  0.3837 -0.5698  0.5385
12217SOL    HW239544   9.048   8.708   2.230 -0.0477  0.0706 -0.5698
12218SOL     OW39545   3.607   5.905   7.648  0.1046  0.2848  0.3928
12218SOL    HW139546   3.691   5.915   7.604 -0.6451  0.4259 -1.0531
12218SOL    HW239547   3.611   5.820   7.691  0.0355 -0.9189 -1.8598
12219SOL     OW39548   4.824   8.058   2.653  0.1973 -0.1512  0.0648
12219SOL    HW139549   4.906   8.040   2.698  0.5479  0.2757 -0.3802
12219SOL    HW239550   4.851   8.080   2.563 -0.5355 -1.7000 -0.5598
12220SOL     OW39551   7.218   1.468   8.013 -0.2065 -0.2186 -0.2998
12220SOL    HW139552   7.158   1.505   8.078 -1.5414  3.1877 -3.1496
12220SOL    HW239553   7.292   1.436   8.065 -1.4982  1.5152  2.9284
12221SOL     OW39554   8.676   3.960   2.707  0.9476 -0.0262 -0.4492
12221SOL    HW139555   8.646   4.050   2.721 -2.2085 -1.1959  1.2293
12221SOL    HW239556   8.647   3.939   2.619 -3.0973 -0.9047  0.8976
12222SOL     OW39557   8.223   4.959   5.458 -0.9498 -0.0260  0.0660
12222SOL    HW139558   8.136   4.929   5.432 -0.2600 -0.8872 -1.3986
12222SOL    HW239559   8.260   4.884   5.505 -0.3251 -0.4045 -0.9849
12223SOL     OW39560   4.515   0.550   8.304  0.4180  0.3034  0.1218
12223SOL    HW139561   4.449   0.487   8.333  0.6690 -0.5568 -1.1027
12223SOL    HW239562   4.599   0.512   8.332  0.4942  0.8417  0.6729
12224SOL     OW39563   5.722   4.158   7.680 -0.4310 -0.1459  0.0304
12224SOL    HW139564   5.751   4.229   7.623 -0.7541  2.0378  2.4249
12224SOL    HW239565   5.803   4.110   7.701  0.3381  1.4164  0.8138
12225SOL     OW39566   9.091   0.360   2.681  0.6314 -0.0005 -0.3884
12225SOL    HW139567   9.100   0.309   2.601 -0.6473 -0.5355 -0.2189
12225SOL    HW239568   9.064   0.295   2.747 -1.3755  0.9037 -0.2461
12226SOL     OW39569   6.857   5.812   8.080 -0.0248 -0.2931 -0.2586
12226SOL    HW139570   6.867   5.788   7.988 -1.2621  0.6079 -0.6460
12226SOL    HW239571   6.783   5.872   8.082  0.2011 -0.0155  1.2860
12227SOL     OW39572   0.447   2.164   9.198  0.3871 -0.2532  0.9555
12227SOL    HW139573   0.530   2.188   9.157 -1.5342  1.1519 -2.4680
12227SOL    HW239574   0.436   2.229   9.268  1.1175  0.9909 -0.0528
12228SOL     OW39575   1.653   2.847   3.757  0.2588 -0.2559  0.2082
12228SOL    HW139576   1.561   2.833   3.780 -0.1384  1.2272 -0.3991
12228SOL    HW239577   1.672   2.935   3.789  1.4271 -0.4892  0.1762
12229SOL     OW39578   1.473   1.368   2.086 -0.1111  0.2468 -0.0313
12229SOL    HW139579   1.537   1.430   2.052  1.2098 -1.8405 -1.6179
12229SOL    HW239580   1.388   1.410   2.072  0.7696  2.3243  0.4847
12230SOL     OW39581   6.087   6.357   3.474 -0.0845  0.4901  0.0109
12230SOL    HW139582   6.055   6.372   3.563  0.2968  1.3460  0.0120
12230SOL    HW239583   6.031   6.411   3.419 -0.4168 -0.1533 -0.2981
12231SOL     OW39584   8.965   2.270   2.328  0.2345 -0.4461  0.1780
12231SOL    HW139585   8.908   2.309   2.394  0.2961  0.1578 -0.1196
12231SOL    HW239586   8.977   2.179   2.357 -0.5828 -0.4773  0.4292
12232SOL     OW39587   0.152   4.822   1.980  0.0003 -0.1376 -0.3410
12232SOL    HW139588   0.142   4.852   1.890 -2.4107 -1.4369 -0.5764
12232SOL    HW239589   0.185   4.732   1.972  0.1764 -0.1173  0.1010
12233SOL     OW39590   7.543   6.169   7.034 -0.0977 -0.2060  0.6431
12233SOL    HW139591   7.537   6.079   7.003 -0.0438 -0.4729  1.3810
12233SOL    HW239592   7.487   6.219   6.975 -0.0842 -0.7115  0.1968
12234SOL     OW39593   7.253   6.862   3.134  0.0669  0.2474 -0.0745
12234SOL    HW139594   7.204   6.782   3.151  0.4477  0.3704  1.9176
12234SOL    HW239595   7.216   6.897   3.053  0.3218 -2.2287 -1.3329
12235SOL     OW39596   1.611   3.237   4.677  0.1354 -0.1337 -0.0200
12235SOL    HW139597   1.677   3.297   4.641 -0.9965  0.4998 -1.1383
12235SOL    HW239598   1.542   3.295   4.710 -0.9968 -0.7901 -1.1459
12236SOL     OW39599   6.269   0.156   3.527  0.1590  0.2639  0.4049
12236SOL    HW139600   6.318   0.109   3.594 -0.7700 -0.2183  0.7766
12236SOL    HW239601   6.271   0.098   3.450 -0.5375 -0.1684  0.6962
12237SOL     OW39602   1.449   0.352   0.778  0.1939 -0.1123  0.4452
12237SOL    HW139603   1.448   0.289   0.851  0.3553 -0.6673 -0.0220
12237SOL    HW239604   1.535   0.340   0.737 -0.4093 -0.7883 -0.6699
12238SOL     OW39605   7.020   4.293   6.498 -0.3482  0.4310 -0.4715
12238SOL    HW139606   7.064   4.272   6.416  0.0555 -0.2118 -0.1007
12238SOL    HW239607   7.070   4.247   6.565  1.1518  3.3209  0.5527
12239SOL     OW39608   4.863   0.456   7.560 -0.2795 -0.0087  0.3730
12239SOL    HW139609   4.902   0.431   7.644  0.5427 -0.0494 -0.0158
12239SOL    HW239610   4.893   0.546   7.546  1.8620 -0.8882 -1.1679
12240SOL     OW39611   9.290   7.400   4.909 -0.1247 -0.0318  0.1252
12240SOL    HW139612   9.334   7.345   4.844 -0.0115  0.3594 -0.1311
12240SOL    HW239613   9.343   7.480   4.913 -0.1787 -0.0227  0.6385
12241SOL     OW39614   2.515   9.034   6.529 -0.4589  0.7027  0.2659
12241SOL    HW139615   2.496   8.942   6.547  0.4238  0.5094  0.2537
12241SOL    HW239616   2.540   9.070   6.614  1.6293  0.3119 -0.1428
12242SOL     OW39617   7.834   6.542   6.804 -0.4124  0.1907  0.0353
12242SOL    HW139618   7.824   6.449   6.822 -0.0215  0.3304  1.0812
12242SOL    HW239619   7.809   6.585   6.886 -2.9848  1.1712 -1.1786
12243SOL     OW39620   4.821   8.853   3.801 -0.2336  0.2204 -0.2516
12243SOL    HW139621   4.757   8.782   3.795 -0.0915  0.0458  0.2590
12243SOL    HW239622   4.768   8.932   3.812 -0.3579 -0.2282  3.3084
12244SOL     OW39623   1.795   0.592   6.984  0.0540  0.3669 -0.8561
12244SOL    HW139624   1.836   0.616   6.901 -0.6960 -2.5099 -2.1763
12244SOL    HW239625   1.702   0.608   6.970 -0.0435  0.1513 -0.4483
12245SOL     OW39626   0.019   1.401   2.612 -0.6660  0.0238 -0.1436
12245SOL    HW139627  -0.013   1.334   2.672  0.4056 -0.4837 -0.1091
12245SOL    HW239628   0.105   1.426   2.646 -0.3800  0.2933 -1.0114
12246SOL     OW39629   4.811   8.151   3.588  0.3702 -0.2083  0.2905
12246SOL    HW139630   4.895   8.196   3.576 -0.3876  1.0953 -0.3329
12246SOL    HW239631   4.813   8.120   3.678  1.2137  0.4772  0.5172
12247SOL     OW39632   8.002   7.332   1.682 -0.1984  0.0009  0.0116
12247SOL    HW139633   7.930   7.389   1.654 -0.1742 -0.1689 -0.3996
12247SOL    HW239634   8.020   7.359   1.772 -0.8184  0.0010  0.1416
12248SOL     OW39635   8.892   1.934   8.583  0.3910 -0.0287  0.7219
12248SOL    HW139636   8.935   1.849   8.574 -0.9963 -0.9873  2.4585
12248SOL    HW239637   8.951   1.985   8.639  1.7033  0.5618 -1.1167
12249SOL     OW39638   4.850   9.297   0.502  0.4154 -0.1745  0.6597
12249SOL    HW139639   4.758   9.319   0.492  0.4084 -1.1015 -2.6432
12249SOL    HW239640   4.851   9.229   0.570 -1.3510 -0.2373  0.6722
12250SOL     OW39641   0.626   7.087   3.049 -0.0008 -0.1900 -0.0688
12250SOL    HW139642   0.622   7.046   2.963 -0.8322 -0.9160  0.2910
12250SOL    HW239643   0.719   7.100   3.065  0.2292 -1.0084 -0.6437
12251SOL     OW39644   8.933   7.679   9.102 -0.4618 -0.0241  0.3259
12251SOL    HW139645   8.894   7.594   9.080  1.3718 -1.3437  1.8622
12251SOL    HW239646   8.928   7.683   9.198  0.0153  1.3476  0.3147
12252SOL     OW39647   5.289   2.006   8.432  0.1158 -0.3191  0.2415
12252SOL    HW139648   5.266   2.009   8.525  2.2672  0.1201  0.8122
12252SOL    HW239649   5.267   1.917   8.404  1.0092 -0.9951  1.6220
12253SOL     OW39650   9.633   1.384   7.841 -0.2776 -0.2988 -0.1322
12253SOL    HW139651   9.609   1.327   7.915  0.8626 -1.7554 -0.8326
12253SOL    HW239652   9.715   1.425   7.867 -1.1576  1.1962  0.4215
12254SOL     OW39653   1.693   3.791   8.597  0.2451  0.0484  0.3642
12254SOL    HW139654   1.758   3.825   8.659  0.1250 -0.4000  0.7399
12254SOL    HW239655   1.609   3.816   8.634  0.1904  2.3809 -1.1175
12255SOL     OW39656   2.974   5.442   5.983  0.0067  0.1420 -0.3856
12255SOL    HW139657   2.912   5.437   5.911  0.7546 -0.7278 -0.9980
12255SOL    HW239658   3.058   5.415   5.945  0.4925 -0.0039  0.7209
12256SOL     OW39659   9.503   6.383   2.995 -0.1863 -0.4512 -0.3521
12256SOL    HW139660   9.548   6.362   2.913 -1.5880 -2.7503 -0.6124
12256SOL    HW239661   9.415   6.348   2.983 -1.0497  0.9911  1.3922
12257SOL     OW39662   4.428   8.157   0.017 -0.4183  0.2478 -0.5031
12257SOL    HW139663   4.397   8.111  -0.061 -0.8750  0.0907 -0.2357
12257SOL    HW239664   4.358   8.144   0.081 -0.9477  1.9930 -0.6645
12258SOL     OW39665   9.030   9.643   1.401  0.4819 -0.3871  0.1136
12258SOL    HW139666   9.032   9.558   1.357 -0.9692  0.4260 -1.6692
12258SOL    HW239667   9.082   9.701   1.345  0.5622  0.1618  0.7372
12259SOL     OW39668   6.874   7.508   7.335 -0.3999  0.3979  0.5318
12259SOL    HW139669   6.949   7.510   7.394  0.0880  5.6760  0.2247
12259SOL    HW239670   6.912   7.500   7.248 -0.6428 -1.2010  0.5413
12260SOL     OW39671   4.244   6.993   6.705  0.0205 -0.7983  0.1087
12260SOL    HW139672   4.196   7.065   6.746  0.0314 -2.0572  2.4813
12260SOL    HW239673   4.176   6.930   6.680  0.1150 -0.5517 -0.8285
12261SOL     OW39674   8.463   7.245   0.369  0.1900 -0.4636  0.2997
12261SOL    HW139675   8.533   7.309   0.354  0.8263 -1.0558  0.6758
12261SOL    HW239676   8.429   7.225   0.282 -0.3203  0.7157  0.2153
12262SOL     OW39677   4.317   8.806   8.009  0.4491 -0.6359  0.5421
12262SOL    HW139678   4.389   8.837   8.066 -0.4886  1.7142  0.5622
12262SOL    HW239679   4.361   8.779   7.928  1.4517 -0.3799  0.9774
12263SOL     OW39680   9.137   5.109   2.309 -0.1791 -0.5665 -0.8748
12263SOL    HW139681   9.174   5.179   2.254 -0.8509 -1.0573 -1.9688
12263SOL    HW239682   9.069   5.152   2.360  1.0824  0.0996  0.3189
12264SOL     OW39683   9.508   4.742   3.211  0.7073  0.0741  0.0444
12264SOL    HW139684   9.462   4.825   3.220  0.9159  0.3943 -1.5575
12264SOL    HW239685   9.496   4.718   3.120  1.2442 -1.3180  0.3145
12265SOL     OW39686   7.141   4.490   4.888  0.4621 -0.6125  0.0406
12265SOL    HW139687   7.180   4.563   4.840 -1.4457  1.1805  1.0685
12265SOL    HW239688   7.068   4.462   4.833 -0.1835 -0.2243  0.6798
12266SOL     OW39689   1.310   5.354   1.318  0.1291  0.4530 -0.2011
12266SOL    HW139690   1.353   5.308   1.390 -1.2418  0.2955  0.5583
12266SOL    HW239691   1.293   5.442   1.352  0.2252  0.6398 -0.6308
12267SOL     OW39692   5.455   4.280   1.650  0.1950 -0.0458  0.2574
12267SOL    HW139693   5.435   4.325   1.732  0.3332 -1.8737  1.3427
12267SOL    HW239694   5.484   4.350   1.592 -0.9378  1.4567  1.3951
12268SOL     OW39695   2.694   2.056   8.815  0.4593 -0.0470 -0.3044
12268SOL    HW139696   2.732   2.002   8.884  0.4032  0.6525  0.2875
12268SOL    HW239697   2.767   2.106   8.780 -0.0251  2.2414  1.6914
12269SOL     OW39698   9.295   3.831   5.586  0.2497 -0.1242 -0.3625
12269SOL    HW139699   9.261   3.746   5.616  0.8164 -0.4197 -0.5336
12269SOL    HW239700   9.331   3.871   5.665  0.0930 -0.0988 -0.3044
12270SOL     OW39701   4.918   0.980   8.589 -0.4269 -0.7098 -0.3389
12270SOL    HW139702   4.854   1.029   8.538 -0.7333 -0.4305  0.3096
12270SOL    HW239703   4.924   1.027   8.672  0.4400 -0.8679 -0.2993
12271SOL     OW39704   9.452   4.517   7.768 -0.0072  0.0596  0.0693
12271SOL    HW139705   9.419   4.507   7.857  0.8942  0.3799  0.4494
12271SOL    HW239706   9.499   4.601   7.769 -0.5284  0.3765 -0.8784
12272SOL     OW39707   7.877   3.599   2.850  0.0225  0.0762  0.1998
12272SOL    HW139708   7.958   3.650   2.851  0.4504 -0.5866  1.9759
12272SOL    HW239709   7.820   3.643   2.912 -0.4436 -0.2899  0.0375
12273SOL     OW39710   8.772   4.371   4.039  0.0468  0.0666  0.4576
12273SOL    HW139711   8.806   4.313   4.106 -0.8366 -1.2202 -0.1716
12273SOL    HW239712   8.714   4.431   4.086 -1.5674 -1.6229  0.7086
12274SOL     OW39713   1.233   8.506   5.943  0.0714 -0.4960  0.3432
12274SOL    HW139714   1.242   8.504   5.847  1.4486  0.2677  0.4304
12274SOL    HW239715   1.152   8.556   5.958 -0.6491 -1.3917 -0.4216
12275SOL     OW39716   6.206   1.952   0.397 -0.3220 -0.2174  0.2291
12275SOL    HW139717   6.130   2.005   0.421  0.0357  1.1641 -1.5198
12275SOL    HW239718   6.259   1.951   0.477 -1.4393  0.0985  1.0055
12276SOL     OW39719   9.251   2.221   5.888 -0.6428  0.3008  0.3443
12276SOL    HW139720   9.214   2.234   5.975 -0.4280  1.6930  0.2561
12276SOL    HW239721   9.199   2.278   5.831 -1.2656 -1.1657 -0.5852
12277SOL     OW39722   9.190   5.292   7.509 -0.1979  0.3381 -0.2911
12277SOL    HW139723   9.219   5.214   7.463 -0.9939  0.3098 -0.7645
12277SOL    HW239724   9.220   5.280   7.599  0.6286 -0.0017 -0.6036
12278SOL     OW39725   1.199   0.931   7.595  0.1458  0.3771  0.2734
12278SOL    HW139726   1.120   0.886   7.623  0.7118 -0.6941  0.1972
12278SOL    HW239727   1.230   0.881   7.520 -0.3066  2.0985 -1.1186
12279SOL     OW39728   1.847   3.013   3.588  0.0057 -0.5942  0.3883
12279SOL    HW139729   1.773   3.018   3.528  0.7021 -0.3496 -0.4686
12279SOL    HW239730   1.824   2.944   3.650  0.2512 -2.5071 -1.5566
12280SOL     OW39731   6.984   8.361   9.047  0.0560 -0.3122 -0.1633
12280SOL    HW139732   6.963   8.298   9.117 -2.6467 -0.4137 -0.9549
12280SOL    HW239733   6.981   8.446   9.090 -1.6327 -0.3719 -0.0877
12281SOL     OW39734   9.040   4.633   8.484 -0.3882  0.3464 -0.6133
12281SOL    HW139735   9.122   4.602   8.445 -0.6555 -1.9413  0.4920
12281SOL    HW239736   9.055   4.629   8.579 -1.4075  0.9982 -0.4033
12282SOL     OW39737   9.103   6.492   9.498  0.6274  0.1415 -0.0431
12282SOL    HW139738   9.125   6.578   9.533 -0.8970  0.2699  0.7086
12282SOL    HW239739   9.031   6.462   9.553 -0.3421 -0.6643 -1.6793
12283SOL     OW39740   8.550   5.132   9.454 -0.4983  0.2227  0.2311
12283SOL    HW139741   8.641   5.107   9.471  0.7665  3.3820 -1.1762
12283SOL    HW239742   8.523   5.076   9.381  0.6122 -0.1152  0.0622
12284SOL     OW39743   4.714   8.764   2.676  0.2671  0.0828  0.4225
12284SOL    HW139744   4.630   8.806   2.656  0.6122  0.3815 -0.4777
12284SOL    HW239745   4.775   8.836   2.686  0.4348 -0.1381  1.0100
12285SOL     OW39746   2.728   6.513   0.400  0.3388 -0.1196  0.2469
12285SOL    HW139747   2.761   6.541   0.315 -0.3107  1.6597  0.5401
12285SOL    HW239748   2.632   6.515   0.390  0.1935  2.0499  1.5586
12286SOL     OW39749   4.632   5.958   1.121 -0.1008 -0.3309 -0.0152
12286SOL    HW139750   4.651   5.892   1.054 -1.0067  0.5230 -1.1317
12286SOL    HW239751   4.537   5.969   1.118 -0.1674 -0.2849  1.4376
12287SOL     OW39752   4.593   3.323   4.632 -0.2565  0.2431  0.2002
12287SOL    HW139753   4.564   3.412   4.610  0.9262  0.3752 -0.9918
12287SOL    HW239754   4.546   3.302   4.712 -1.2652  1.5886  0.0121
12288SOL     OW39755   8.238   2.438   5.874 -0.3379  0.0677  0.6175
12288SOL    HW139756   8.172   2.449   5.943  0.1156 -1.3683  1.3236
12288SOL    HW239757   8.242   2.523   5.831 -2.0162  0.4433  1.1193
12289SOL     OW39758   1.668   4.154   0.775  0.4290 -0.1108  0.2272
12289SOL    HW139759   1.642   4.066   0.802 -0.8751  0.2022  0.0922
12289SOL    HW239760   1.585   4.202   0.766  1.0715  0.9558 -0.3034
12290SOL     OW39761   4.453   5.028   2.193  0.4030 -0.3894  0.7027
12290SOL    HW139762   4.537   4.995   2.162  1.2705  1.0426  1.3674
12290SOL    HW239763   4.403   5.047   2.114  0.4974 -1.7313  0.3058
12291SOL     OW39764   0.186   0.308   8.795  0.0808 -0.2117 -0.3563
12291SOL    HW139765   0.110   0.338   8.743  2.2112  2.4462 -2.2179
12291SOL    HW239766   0.241   0.263   8.731  0.9318 -0.4427  0.5326
12292SOL     OW39767   3.809   4.742   4.518  0.1802  0.6642  0.5070
12292SOL    HW139768   3.858   4.734   4.436 -2.5118  0.1722 -1.2070
12292SOL    HW239769   3.831   4.829   4.551 -1.1475  2.3557 -2.6077
12293SOL     OW39770   8.882   0.181   5.223  0.5872  0.0694 -0.1061
12293SOL    HW139771   8.797   0.211   5.191  0.7988  2.0047  1.0145
12293SOL    HW239772   8.874   0.086   5.228 -1.0781  0.1182 -1.1602
12294SOL     OW39773   5.674   1.924   8.763 -0.1225  0.6430 -0.0453
12294SOL    HW139774   5.743   1.864   8.733  0.1368  0.0101  1.6918
12294SOL    HW239775   5.721   1.990   8.815 -0.3911  2.4671 -1.9384
12295SOL     OW39776   5.935   0.859   4.865  0.0827  0.3892  0.0480
12295SOL    HW139777   5.869   0.841   4.932  0.0746 -0.1014 -0.0860
12295SOL    HW239778   6.011   0.808   4.892 -0.1536 -0.3773 -0.6765
12296SOL     OW39779   3.039   2.598   0.194  0.0620 -0.6362  0.0148
12296SOL    HW139780   3.008   2.670   0.248 -0.1224 -0.2979 -0.5365
12296SOL    HW239781   2.983   2.524   0.217  1.3222 -1.1102  1.8284
12297SOL     OW39782   3.336   6.219   4.209 -0.5060 -0.5345 -0.1376
12297SOL    HW139783   3.343   6.139   4.158 -0.8375 -0.0971 -0.8880
12297SOL    HW239784   3.403   6.277   4.173 -0.1113 -0.5402  0.5527
12298SOL     OW39785   9.224   6.481   6.154 -0.1323 -0.3285  0.4369
12298SOL    HW139786   9.197   6.422   6.223 -0.6776  0.3429  0.8113
12298SOL    HW239787   9.191   6.567   6.181  0.3954  0.0997 -0.2269
12299SOL     OW39788   2.416   5.561   3.251  0.1605 -0.6756 -0.3193
12299SOL    HW139789   2.387   5.486   3.303  1.0390 -0.9341 -0.1853
12299SOL    HW239790   2.340   5.619   3.247 -1.3471 -2.6700 -2.4913
12300SOL     OW39791   2.317   3.138   4.333  0.2708  0.0661  0.2629
12300SOL    HW139792   2.349   3.226   4.314 -0.0905 -0.0062 -0.7671
12300SOL    HW239793   2.297   3.101   4.247  0.9797 -1.2402  0.6299
12301SOL     OW39794   7.021   4.742   1.736 -0.3202  0.0645  0.4623
12301SOL    HW139795   6.981   4.722   1.652 -1.1308 -0.2249  0.9094
12301SOL    HW239796   7.112   4.713   1.727 -0.4464 -0.1198 -0.2475
12302SOL     OW39797   8.059   1.091   5.992 -0.5732 -0.8245 -0.1542
12302SOL    HW139798   8.145   1.050   5.994 -0.6508 -0.9777 -0.0029
12302SOL    HW239799   8.076   1.182   5.966 -0.6825 -1.6549 -3.5893
12303SOL     OW39800   6.514   3.975   8.230 -0.0860 -0.1015 -0.2577
12303SOL    HW139801   6.576   4.043   8.256 -0.9098  2.3507 -3.9625
12303SOL    HW239802   6.428   4.009   8.254 -0.4637  0.0233 -1.6655
12304SOL     OW39803   9.001   6.974   0.468  0.4655 -0.2966  0.0646
12304SOL    HW139804   8.994   7.012   0.555 -1.6771 -0.6878  0.1083
12304SOL    HW239805   8.964   6.886   0.477  2.6281 -1.3546 -0.6950
12305SOL     OW39806   2.425   5.664   6.795  0.3193 -0.3494  0.2411
12305SOL    HW139807   2.421   5.728   6.723  1.0182  1.2783  1.5816
12305SOL    HW239808   2.496   5.605   6.769  1.7337  1.2170  0.3037
12306SOL     OW39809   5.726   0.285   5.385 -0.5007  0.0298 -0.2342
12306SOL    HW139810   5.667   0.344   5.433  0.8985 -1.1157  3.1584
12306SOL    HW239811   5.813   0.322   5.398  0.1119 -1.2986 -0.3862
12307SOL     OW39812   7.217   8.268   3.207  0.1571  0.4514 -0.0578
12307SOL    HW139813   7.133   8.262   3.160 -0.0811 -0.5668  0.4600
12307SOL    HW239814   7.194   8.264   3.299  0.5818  3.1099  0.2336
12308SOL     OW39815   0.742   4.929   5.074  0.5019 -0.0889 -0.0960
12308SOL    HW139816   0.664   4.899   5.120  0.7491  0.9706  1.0795
12308SOL    HW239817   0.754   5.020   5.103  1.0267  0.4295 -1.8198
12309SOL     OW39818   2.012   7.865   8.928  0.5530 -0.5273  0.0726
12309SOL    HW139819   2.033   7.956   8.945 -0.3238 -0.5968  1.7052
12309SOL    HW239820   2.091   7.829   8.888  1.0042  0.8649 -0.3481
12310SOL     OW39821   3.394   9.482   6.174  0.0262 -0.3160 -0.5777
12310SOL    HW139822   3.413   9.575   6.167 -2.6783  0.3302 -0.3094
12310SOL    HW239823   3.465   9.447   6.227  0.8056  1.6938 -0.2260
12311SOL     OW39824   5.320   7.280   5.373  0.3379 -0.3751 -0.1053
12311SOL    HW139825   5.308   7.267   5.467  1.8544  0.3339  0.2183
12311SOL    HW239826   5.232   7.295   5.339 -0.2205 -0.5817  1.2137
12312SOL     OW39827   5.701   0.076   9.412  0.4912  0.1402 -0.1048
12312SOL    HW139828   5.696   0.019   9.488  0.0831 -0.2287 -0.4100
12312SOL    HW239829   5.766   0.034   9.355  1.9750  1.2149  0.7024
12313SOL     OW39830   1.798   2.508   5.641  0.3625 -0.1836 -0.3102
12313SOL    HW139831   1.859   2.462   5.584 -1.3158 -0.2963 -2.1587
12313SOL    HW239832   1.849   2.532   5.718  2.3956 -1.2494 -1.2569
12314SOL     OW39833   0.415   2.274   1.949  0.0244 -0.3577  0.4153
12314SOL    HW139834   0.474   2.332   1.902 -1.1675  0.2344 -0.4125
12314SOL    HW239835   0.370   2.331   2.012 -0.8017 -0.4577 -0.0636
12315SOL     OW39836   9.471   4.044   8.380 -0.5170  0.5794 -0.3595
12315SOL    HW139837   9.564   4.061   8.366 -0.5047  0.6958 -0.1510
12315SOL    HW239838   9.460   3.952   8.357 -0.8052  1.1166 -2.5626
12316SOL     OW39839   1.665   9.472   1.526  0.2645  0.0622 -0.1290
12316SOL    HW139840   1.623   9.554   1.502  0.9944  1.0630  1.7536
12316SOL    HW239841   1.594   9.418   1.561 -0.0381  0.3396 -0.3132
12317SOL     OW39842   1.227   2.990   8.420 -0.3958 -0.7214  0.7288
12317SOL    HW139843   1.290   3.059   8.437  0.3487 -0.2427 -3.0959
12317SOL    HW239844   1.145   3.035   8.404 -0.3008 -0.8433 -0.1286
12318SOL     OW39845   0.039   3.219   8.227  0.1356  0.0757  0.1157
12318SOL    HW139846   0.096   3.156   8.184 -0.5376 -0.1657 -0.4424
12318SOL    HW239847   0.072   3.225   8.317 -0.6531 -2.1423  0.5990
12319SOL     OW39848   5.950   1.737   7.851  0.5961 -0.5288 -0.1416
12319SOL    HW139849   5.884   1.682   7.895 -0.8416 -0.3693 -1.9927
12319SOL    HW239850   6.032   1.691   7.866 -0.0542 -1.2913  1.3541
12320SOL     OW39851   9.196   6.834   2.847 -0.0785 -0.0870  0.2458
12320SOL    HW139852   9.210   6.923   2.816  1.0981 -0.8024 -1.4362
12320SOL    HW239853   9.261   6.823   2.917 -0.7055  0.5806  0.9456
12321SOL     OW39854   4.568   1.252   7.109 -0.1198 -0.0250 -0.2114
12321SOL    HW139855   4.562   1.256   7.204  1.6072 -2.4931  0.0936
12321SOL    HW239856   4.487   1.207   7.082 -1.3184  1.9534 -0.1384
12322SOL     OW39857   5.081   4.276   7.038  0.2297 -0.1040  0.1642
12322SOL    HW139858   5.154   4.283   6.976 -0.7941 -1.5807 -1.3081
12322SOL    HW239859   5.003   4.288   6.984 -0.6659  0.1671  1.4735
12323SOL     OW39860   1.835   8.222   8.455  0.2127 -0.0083 -0.5202
12323SOL    HW139861   1.856   8.253   8.543  2.3829 -1.6893 -0.3617
12323SOL    HW239862   1.739   8.220   8.452  0.0970  1.0534  1.4309
12324SOL     OW39863   4.258   0.339   6.070  0.2207  0.2619  0.0864
12324SOL    HW139864   4.264   0.265   6.130 -0.7086  1.0851  1.2457
12324SOL    HW239865   4.254   0.300   5.983  3.4196 -0.9196  0.3486
12325SOL     OW39866   5.232   6.498   0.882 -0.2754 -0.7027  0.0059
12325SOL    HW139867   5.153   6.515   0.832 -0.4628  1.5986  0.9419
12325SOL    HW239868   5.229   6.562   0.953  2.9797  0.3467 -0.6186
12326SOL     OW39869   2.828   4.781   1.842  0.2022 -0.2963  0.2603
12326SOL    HW139870   2.800   4.694   1.813 -0.7279  0.3006 -0.6746
12326SOL    HW239871   2.748   4.822   1.876  1.0190 -0.5265  2.6441
12327SOL     OW39872   5.608   8.764   3.225  0.2941 -0.2293 -0.1867
12327SOL    HW139873   5.665   8.772   3.302  0.8475 -1.8892 -0.3935
12327SOL    HW239874   5.653   8.815   3.157 -0.7889  2.2616  0.8296
12328SOL     OW39875   2.944   4.276   9.551  0.2998  0.2257  0.2566
12328SOL    HW139876   2.984   4.305   9.633  0.9001 -1.4336  0.5729
12328SOL    HW239877   3.016   4.280   9.487  0.4511 -0.8004  0.3606
12329SOL     OW39878   4.672   1.487   0.597 -0.0234 -0.8308  0.1526
12329SOL    HW139879   4.629   1.412   0.637 -0.2513 -0.2343  1.0653
12329SOL    HW239880   4.713   1.533   0.671  3.5482 -2.1678 -0.7834
12330SOL     OW39881   4.009   7.780   7.442  0.2367  0.0353 -0.6969
12330SOL    HW139882   3.963   7.730   7.509  0.6597 -1.0524 -1.1909
12330SOL    HW239883   4.006   7.725   7.364  1.2448  0.5111 -1.0965
12331SOL     OW39884   3.698   8.267   4.096 -0.5555  0.1989  0.6806
12331SOL    HW139885   3.742   8.315   4.166  0.4153 -0.6699  0.6913
12331SOL    HW239886   3.754   8.279   4.020 -0.7453 -0.2266  0.4732
12332SOL     OW39887   0.910   8.756   5.584  0.1948  0.6174 -0.0542
12332SOL    HW139888   0.961   8.832   5.557  1.6046  0.2635  1.4479
12332SOL    HW239889   0.955   8.681   5.545  0.9245  0.3003  1.3157
12333SOL     OW39890   8.040   1.302   4.017  0.5639 -0.1529  0.0363
12333SOL    HW139891   7.975   1.232   4.013 -0.6460  0.9697 -0.5712
12333SOL    HW239892   8.123   1.258   3.997 -0.3158 -1.2162 -1.4845
12334SOL     OW39893   8.314   4.039   0.493  0.8030 -0.1532 -0.0375
12334SOL    HW139894   8.338   4.056   0.401  0.5090 -1.3535 -0.3593
12334SOL    HW239895   8.386   4.076   0.543  0.8350  0.7717 -0.7316
12335SOL     OW39896   4.191   0.794   3.210  0.1814 -0.1129  0.0354
12335SOL    HW139897   4.190   0.871   3.266  0.8844  0.0825 -0.2120
12335SOL    HW239898   4.192   0.720   3.271  0.6894  0.0933  0.2793
12336SOL     OW39899   2.408   4.955   2.864  0.0759  0.0311  0.5620
12336SOL    HW139900   2.408   4.997   2.950 -0.1222  0.5719  0.3023
12336SOL    HW239901   2.331   4.898   2.866 -0.2257  0.4328  0.5592
12337SOL     OW39902   2.151   0.989   0.201 -0.6641  0.1187  0.0807
12337SOL    HW139903   2.102   1.029   0.129  1.3322  1.8327 -0.4504
12337SOL    HW239904   2.242   0.990   0.171 -0.0343 -1.0431  1.8092
12338SOL     OW39905   0.396   5.512   0.683 -0.5982 -0.1645  0.2467
12338SOL    HW139906   0.337   5.449   0.726 -0.2609  0.8959  2.3579
12338SOL    HW239907   0.343   5.591   0.674 -1.1537 -0.7284 -2.7704
12339SOL     OW39908   4.357   1.650   2.536 -0.1434  0.4508  0.4967
12339SOL    HW139909   4.438   1.604   2.555  0.5608  1.3954 -0.1284
12339SOL    HW239910   4.288   1.591   2.567  0.7596 -0.5170  0.7233
12340SOL     OW39911   6.040   2.349   8.600  0.0294 -0.2060 -0.0793
12340SOL    HW139912   6.019   2.387   8.686 -2.3060  0.0422 -0.7130
12340SOL    HW239913   6.025   2.255   8.610  0.8681 -0.3305  0.0785
12341SOL     OW39914   7.749   2.616   8.749 -0.1137  0.2349  0.4346
12341SOL    HW139915   7.763   2.533   8.795  0.6509  0.7551  1.1622
12341SOL    HW239916   7.788   2.682   8.806 -2.2564  1.3286  0.7149
12342SOL     OW39917   0.558   7.630   1.810  0.5891  0.2565 -0.3364
12342SOL    HW139918   0.602   7.691   1.751  0.2546 -0.1877 -1.0611
12342SOL    HW239919   0.496   7.582   1.754 -0.1736  0.2450  0.4861
12343SOL     OW39920   7.895   7.210   7.232 -0.6026  0.5385  0.4686
12343SOL    HW139921   7.901   7.284   7.292 -1.2413  0.7075  0.3262
12343SOL    HW239922   7.812   7.167   7.253 -0.0164 -0.4294  0.8741
12344SOL     OW39923   3.326   1.047   8.032  1.1427  0.5087  0.2481
12344SOL    HW139924   3.402   1.031   7.976  0.8029  1.7664 -0.6252
12344SOL    HW239925   3.319   1.143   8.035 -1.7530  0.4838 -1.6438
12345SOL     OW39926   1.709   0.696   5.354 -0.2624  0.1678 -0.0921
12345SOL    HW139927   1.764   0.622   5.379  0.9106  1.0751  0.0927
12345SOL    HW239928   1.712   0.696   5.258 -1.4558 -0.8749 -0.1516
12346SOL     OW39929   8.290   0.295   3.423 -1.1023  0.2780 -0.0614
12346SOL    HW139930   8.287   0.352   3.500 -0.4464 -0.8931  0.8643
12346SOL    HW239931   8.382   0.295   3.397 -0.5187 -2.3894  1.5899
12347SOL     OW39932   5.678   7.016   1.799  0.1723 -0.1108  0.2053
12347SOL    HW139933   5.589   7.030   1.833  1.0014  1.6028  1.8548
12347SOL    HW239934   5.678   6.926   1.768 -2.0044 -0.3073  0.6216
12348SOL     OW39935   4.023   0.314   0.935  0.1747  0.2359  0.0124
12348SOL    HW139936   4.068   0.268   1.006 -2.1519  0.9329  2.0419
12348SOL    HW239937   3.931   0.289   0.944 -0.3694  1.2128 -2.1193
12349SOL     OW39938   3.802   7.118   3.383  0.3355 -0.2985  0.0688
12349SOL    HW139939   3.793   7.095   3.290 -1.3236 -1.7625  0.5467
12349SOL    HW239940   3.771   7.041   3.430  2.7156 -0.2667  1.9079
12350SOL     OW39941   0.363   4.596   0.479 -0.5050 -0.4513 -0.4348
12350SOL    HW139942   0.279   4.583   0.434  0.1339 -1.5465 -1.3719
12350SOL    HW239943   0.429   4.576   0.412  0.5078  0.1028  0.3718
12351SOL     OW39944   5.907   8.191   6.063  0.2644 -0.2356  0.2230
12351SOL    HW139945   5.975   8.129   6.036 -0.1370 -1.0308  0.9749
12351SOL    HW239946   5.909   8.260   5.996  1.7772 -0.2520  0.2175
12352SOL     OW39947   0.222   1.917   2.614  0.2614  0.2414  0.2957
12352SOL    HW139948   0.198   1.973   2.540  0.1081  2.0591  1.6696
12352SOL    HW239949   0.300   1.870   2.584  0.5743  1.4129 -0.7993
12353SOL     OW39950   6.203   4.788   2.868  0.5351 -0.5245  0.1035
12353SOL    HW139951   6.294   4.762   2.855  0.2271 -1.4353 -0.3308
12353SOL    HW239952   6.153   4.708   2.849 -0.3665  0.0523  0.0265
12354SOL     OW39953   6.922   7.798   4.292 -0.0237 -0.3621  0.1176
12354SOL    HW139954   6.892   7.888   4.310 -2.0700 -1.2069  1.4028
12354SOL    HW239955   7.007   7.792   4.335 -0.3617  0.6570  0.9724
12355SOL     OW39956   7.057   5.362   8.836  0.1561  0.4125  0.1877
12355SOL    HW139957   7.035   5.374   8.928  1.8715 -1.0474  0.8424
12355SOL    HW239958   7.151   5.342   8.836  0.0606 -0.2580 -1.8042
12356SOL     OW39959   5.585   4.973   6.434 -0.1693  0.1190 -0.3296
12356SOL    HW139960   5.542   4.987   6.518  0.7136 -2.5468  0.6985
12356SOL    HW239961   5.665   5.025   6.440 -0.8259  1.1285 -0.1563
12357SOL     OW39962   3.325   8.367   5.792  0.0672  0.0541  0.0566
12357SOL    HW139963   3.402   8.355   5.737 -1.5911 -0.2565 -2.4118
12357SOL    HW239964   3.295   8.278   5.811 -1.3168  0.0726 -1.6637
12358SOL     OW39965   6.086   1.734   0.218  0.1102 -0.0133 -0.1660
12358SOL    HW139966   6.106   1.740   0.125  0.2985 -1.8104 -0.2902
12358SOL    HW239967   6.125   1.812   0.257 -3.3077  2.9352 -2.0614
12359SOL     OW39968   5.222   1.880   6.177 -0.2919 -0.0717  0.4737
12359SOL    HW139969   5.202   1.892   6.270  2.0927  0.4135  0.9868
12359SOL    HW239970   5.157   1.933   6.131 -0.4055  1.1410  1.9540
12360SOL     OW39971   9.383   9.202   2.517  0.4834 -0.0575  0.4309
12360SOL    HW139972   9.454   9.148   2.483  0.5025  0.2822 -0.0759
12360SOL    HW239973   9.359   9.259   2.444  0.6363  0.8036  1.0346
12361SOL     OW39974   8.099   3.624   8.059 -0.4038 -0.0110 -0.6425
12361SOL    HW139975   8.100   3.701   8.002  0.2634  0.0714 -0.5182
12361SOL    HW239976   8.120   3.551   8.000  0.4699  0.0982 -0.4658
12362SOL     OW39977   2.120   4.154   2.663 -0.1348  0.0824  0.1513
12362SOL    HW139978   2.084   4.113   2.584  0.2212  0.7435 -0.3700
12362SOL    HW239979   2.162   4.083   2.710 -0.0296 -0.2604 -0.4479
12363SOL     OW39980   6.072   3.177   7.973  0.2868 -0.2426 -0.2791
12363SOL    HW139981   6.004   3.129   7.926 -0.1231  0.4229 -0.3723
12363SOL    HW239982   6.076   3.262   7.930 -0.2632  0.4658  1.0169
12364SOL     OW39983   4.434   6.719   4.672 -0.4244 -0.1316 -0.0905
12364SOL    HW139984   4.491   6.666   4.616  1.3185  0.5237  0.9747
12364SOL    HW239985   4.476   6.718   4.758 -1.3920  1.3565  0.4562
12365SOL     OW39986   4.232   0.212   5.821  0.3085  0.2068  0.1622
12365SOL    HW139987   4.152   0.211   5.769 -0.6837 -0.4257  1.6217
12365SOL    HW239988   4.233   0.126   5.864  0.6237  0.9961  1.8023
12366SOL     OW39989   0.663   4.677   6.868  0.0065  0.4753 -0.0247
12366SOL    HW139990   0.719   4.754   6.859  1.7945 -0.0222  4.1713
12366SOL    HW239991   0.724   4.605   6.887 -1.8058 -0.9461  0.7989
12367SOL     OW39992   4.388   2.854   5.082  0.3307  0.2525  0.2466
12367SOL    HW139993   4.401   2.812   5.167  2.9162  1.0550  0.3315
12367SOL    HW239994   4.302   2.823   5.053 -0.3437 -0.5505  2.8368
12368SOL     OW39995   7.034   3.588   1.249  0.5294 -0.0412 -0.6601
12368SOL    HW139996   7.047   3.602   1.343  0.0797 -0.3502 -0.5473
12368SOL    HW239997   7.058   3.497   1.235 -1.1286 -0.5299 -0.5036
12369SOL     OW39998   7.299   1.507   3.487 -0.3891 -0.2611 -0.4513
12369SOL    HW139999   7.299   1.467   3.574 -0.1779  0.3080 -0.1851
12369SOL    HW240000   7.386   1.546   3.479  0.2743 -1.8840 -1.6588
12370SOL     OW40001   3.426   6.833   2.485  0.0397  0.2521  0.0569
12370SOL    HW140002   3.478   6.765   2.443  0.6917  0.5026  0.4415
12370SOL    HW240003   3.489   6.885   2.535 -0.2554  1.8461 -1.1246
12371SOL     OW40004   9.584   4.724   5.994  0.6804  0.9842  0.1058
12371SOL    HW140005   9.649   4.785   5.958  1.7528  0.1637  0.5998
12371SOL    HW240006   9.618   4.701   6.081  0.6522 -0.7938 -0.3136
12372SOL     OW40007   2.280   4.268   4.576  0.2382  0.1387  0.0403
12372SOL    HW140008   2.263   4.195   4.516 -0.1606  0.5774 -0.3883
12372SOL    HW240009   2.372   4.290   4.562  1.1859 -2.0633  2.1636
12373SOL     OW40010   2.602   1.257   1.830 -0.1554 -0.8270  0.2398
12373SOL    HW140011   2.645   1.300   1.904 -0.8675 -0.1816  0.2918
12373SOL    HW240012   2.671   1.247   1.764  0.5244 -1.5408  1.0365
12374SOL     OW40013   9.213   9.375   2.378 -0.6185  0.1218 -0.4621
12374SOL    HW140014   9.202   9.439   2.308 -2.6738  0.5876  0.2077
12374SOL    HW240015   9.124   9.354   2.405 -0.0225 -2.6375 -0.2710
12375SOL     OW40016   3.833   3.714   1.368 -0.0350 -0.1414 -0.3531
12375SOL    HW140017   3.749   3.668   1.366  0.7493 -1.6685 -0.6001
12375SOL    HW240018   3.898   3.643   1.371  1.2164  0.9874  2.7459
12376SOL     OW40019   1.845   4.976   5.692 -0.0020  0.1984 -0.0470
12376SOL    HW140020   1.899   5.031   5.634 -1.2251 -1.2707 -2.7620
12376SOL    HW240021   1.756   5.010   5.680 -0.0645  1.4134  2.9688
12377SOL     OW40022   1.161   3.721   1.153  0.0941 -0.1508  0.0868
12377SOL    HW140023   1.137   3.674   1.233 -1.0939 -0.8972 -0.6760
12377SOL    HW240024   1.100   3.794   1.147  1.5897  1.2442  0.9800
12378SOL     OW40025   1.089   7.478   5.928 -0.1538  0.0402  0.1080
12378SOL    HW140026   1.028   7.426   5.876 -1.7138  0.5997  1.3009
12378SOL    HW240027   1.120   7.546   5.868 -0.4132 -0.4710 -0.6126
12379SOL     OW40028   7.611   8.705   1.437 -0.1363  0.2597 -0.2269
12379SOL    HW140029   7.538   8.690   1.497  0.1892 -0.5226 -0.0082
12379SOL    HW240030   7.609   8.630   1.377  0.8161 -0.0756  0.1391
12380SOL     OW40031   6.150   6.216   0.203  0.2415 -0.2468 -0.7997
12380SOL    HW140032   6.139   6.239   0.111 -0.9595  0.3017 -0.5314
12380SOL    HW240033   6.206   6.286   0.238 -1.1696  0.8187 -0.6091
12381SOL     OW40034   3.965   0.617   3.938  0.0910  0.5246 -0.6585
12381SOL    HW140035   3.930   0.528   3.934 -0.2573  0.6949 -1.9148
12381SOL    HW240036   3.891   0.671   3.964  0.2020  0.4969 -0.2848
12382SOL     OW40037   6.298   6.665   7.764  0.5187 -0.0434 -0.0797
12382SOL    HW140038   6.242   6.741   7.754 -1.6219 -1.6920 -1.6051
12382SOL    HW240039   6.263   6.618   7.840  3.0980  1.3613  2.1834
12383SOL     OW40040   7.705   1.802   4.580  0.2566  0.3517 -0.0664
12383SOL    HW140041   7.717   1.857   4.502 -0.3073 -1.9521 -1.9025
12383SOL    HW240042   7.793   1.794   4.617  0.5781  1.3061 -0.5624
12384SOL     OW40043   6.890   9.133   8.798 -0.7417 -0.1111  0.0478
12384SOL    HW140044   6.856   9.137   8.888 -0.5641 -1.4807  0.2036
12384SOL    HW240045   6.951   9.206   8.792  1.8952 -1.9144  2.2181
12385SOL     OW40046   5.345   6.575   7.323 -0.5327  0.1565 -0.1237
12385SOL    HW140047   5.345   6.665   7.356 -0.3681 -0.5460  1.9307
12385SOL    HW240048   5.437   6.557   7.302 -0.6505  0.6347 -1.0999
12386SOL     OW40049   4.870   0.213   7.766  0.0336 -0.2507 -0.1255
12386SOL    HW140050   4.868   0.138   7.825 -1.3079  0.7500  1.1737
12386SOL    HW240051   4.897   0.286   7.821  0.7594  0.3636 -1.2464
12387SOL     OW40052   2.288   6.049   0.519 -0.1531  1.0618 -0.1708
12387SOL    HW140053   2.325   5.974   0.473 -0.4208  1.0476 -0.3683
12387SOL    HW240054   2.351   6.069   0.588 -1.7799 -1.7362  2.3598
12388SOL     OW40055   8.225   2.416   8.495  0.3682  0.1748 -0.1471
12388SOL    HW140056   8.198   2.344   8.553 -1.8354  0.9340 -0.1114
12388SOL    HW240057   8.235   2.491   8.554  0.2655  0.4405 -0.4622
12389SOL     OW40058   1.730   2.133   6.241  0.3932  0.6526  0.1416
12389SOL    HW140059   1.656   2.116   6.184  0.4045  1.2863 -0.0660
12389SOL    HW240060   1.731   2.058   6.301  0.7383 -0.3369 -1.0465
12390SOL     OW40061   1.215   8.378   6.625  0.1033  0.4274 -0.3351
12390SOL    HW140062   1.226   8.333   6.541 -1.2915  1.3638 -1.0476
12390SOL    HW240063   1.301   8.372   6.666  0.0910 -2.6179 -0.5062
12391SOL     OW40064   9.030   2.173   7.510 -0.1846  0.0256  0.3148
12391SOL    HW140065   9.083   2.245   7.544 -0.3199  0.8365 -1.0990
12391SOL    HW240066   9.016   2.196   7.418 -1.0916 -1.3095  0.1017
12392SOL     OW40067   7.026   3.051   4.157 -0.1325 -0.1955  0.5503
12392SOL    HW140068   6.984   3.083   4.077  0.5066 -1.7326 -0.4486
12392SOL    HW240069   7.118   3.041   4.134  0.0179 -0.9355  1.3928
12393SOL     OW40070   6.775   6.025   5.914 -0.4149 -0.0045 -0.5309
12393SOL    HW140071   6.808   6.077   5.987 -0.3997 -2.1350  1.0675
12393SOL    HW240072   6.852   5.982   5.878 -0.4474  0.8820 -1.7705
12394SOL     OW40073   6.475   0.622   6.699 -0.1699 -0.2889 -0.0830
12394SOL    HW140074   6.473   0.662   6.786  2.9081 -0.8860  0.3948
12394SOL    HW240075   6.547   0.667   6.655 -1.9672  0.3400 -2.5674
12395SOL     OW40076   1.125   2.393   8.934  0.0599 -0.4492  0.3017
12395SOL    HW140077   1.126   2.372   9.027 -0.2260 -0.5444  0.2816
12395SOL    HW240078   1.218   2.391   8.908  0.1489 -0.3062  0.6070
12396SOL     OW40079   3.452   9.187   0.479  0.5001  0.6684 -0.3441
12396SOL    HW140080   3.464   9.162   0.387 -1.7481 -1.3319 -0.1934
12396SOL    HW240081   3.528   9.150   0.524  0.6197 -0.1114 -1.1534
12397SOL     OW40082   0.122   6.722   4.853 -0.8628 -0.1880  0.3968
12397SOL    HW140083   0.123   6.631   4.822 -0.8543  0.1563 -0.6819
12397SOL    HW240084   0.076   6.770   4.784  2.3695  1.2446 -0.9819
12398SOL     OW40085   1.845   8.331   5.882 -0.2061 -0.0143 -0.4450
12398SOL    HW140086   1.794   8.407   5.852 -0.5826  0.4983  1.3926
12398SOL    HW240087   1.830   8.328   5.976  0.4380 -1.9318 -0.3691
12399SOL     OW40088   7.429   0.357   9.505 -0.3556 -0.0820  0.5729
12399SOL    HW140089   7.381   0.439   9.496 -2.7035 -1.5792 -2.2643
12399SOL    HW240090   7.521   0.383   9.514 -1.1337  2.8156  1.0936
12400SOL     OW40091   1.316   3.282   6.642 -0.2162 -0.0402  0.4889
12400SOL    HW140092   1.345   3.313   6.556 -0.1701 -0.9529  0.1694
12400SOL    HW240093   1.383   3.313   6.702  0.3287 -0.3342  0.0415
12401SOL     OW40094   2.832   8.184   4.724 -0.0932  0.0216 -0.2557
12401SOL    HW140095   2.890   8.115   4.691 -2.2630 -2.5064  0.8783
12401SOL    HW240096   2.846   8.184   4.818 -0.6884  0.6363 -0.1586
12402SOL     OW40097   6.142   3.213   6.447  0.0165  0.1903  0.1782
12402SOL    HW140098   6.204   3.149   6.413  1.3818  1.3465  0.4371
12402SOL    HW240099   6.059   3.191   6.404  0.4285 -1.7726  0.3059
12403SOL     OW40100   4.522   2.563   2.873  0.1839 -0.0176  0.6466
12403SOL    HW140101   4.558   2.498   2.813 -2.1559  0.5550 -1.5416
12403SOL    HW240102   4.469   2.512   2.934  1.8879 -0.5132  1.7933
12404SOL     OW40103   2.553   4.764   7.511  0.5235  0.0621 -0.0130
12404SOL    HW140104   2.503   4.712   7.448  0.0552  0.9576 -0.3968
12404SOL    HW240105   2.632   4.713   7.526  0.4222 -0.4021 -0.9533
12405SOL     OW40106   3.874   5.203   0.648 -0.1774  1.1006 -0.1649
12405SOL    HW140107   3.806   5.136   0.650  0.1073  0.8174  0.8383
12405SOL    HW240108   3.932   5.176   0.577 -0.5127  0.7376 -0.3031
12406SOL     OW40109   7.705   0.641   5.461 -0.4912  0.0362 -1.0483
12406SOL    HW140110   7.708   0.715   5.522 -0.6390 -1.0166  0.3034
12406SOL    HW240111   7.627   0.656   5.408 -0.1854  1.1432 -1.1997
12407SOL     OW40112   0.518   2.885   4.191 -0.2988  0.0557  0.5767
12407SOL    HW140113   0.602   2.854   4.157 -0.4216 -0.2305  0.5276
12407SOL    HW240114   0.522   2.866   4.285 -0.1442  0.4208  0.6441
12408SOL     OW40115   7.296   3.152   0.960 -0.5262  0.3330  0.1633
12408SOL    HW140116   7.223   3.185   0.908 -0.0426  0.8613 -0.1858
12408SOL    HW240117   7.342   3.091   0.902 -0.5126  0.2326  0.2783
12409SOL     OW40118   8.141   3.693   0.510  0.0325 -0.0858  0.2543
12409SOL    HW140119   8.091   3.747   0.572 -0.4072  0.5549 -0.6253
12409SOL    HW240120   8.203   3.754   0.470  0.7217 -0.6232  0.4946
12410SOL     OW40121   0.237   9.203   0.869  0.1520 -0.4942 -0.0793
12410SOL    HW140122   0.203   9.277   0.920  0.8700  0.6876 -1.2514
12410SOL    HW240123   0.253   9.135   0.934 -1.9213 -0.1739  0.8377
12411SOL     OW40124   3.942   4.951   1.029 -0.8016  0.1369 -0.4540
12411SOL    HW140125   3.928   4.914   1.116  0.8016  1.0607  0.2587
12411SOL    HW240126   4.036   4.940   1.013 -0.5143  2.4538 -0.8117
12412SOL     OW40127   5.209   9.610   2.920 -0.6353 -0.0289 -0.1020
12412SOL    HW140128   5.128   9.563   2.941 -0.4994  0.0076  0.5382
12412SOL    HW240129   5.225   9.665   2.997 -0.1790  0.2146 -0.3664
12413SOL     OW40130   5.307   8.664   2.596  0.1394 -0.6378 -0.1956
12413SOL    HW140131   5.256   8.682   2.518  0.3930 -0.9427 -0.4339
12413SOL    HW240132   5.270   8.721   2.663 -0.0177 -0.3100 -0.5617
12414SOL     OW40133   0.964   0.774   9.354  0.7101 -0.2192  0.3479
12414SOL    HW140134   0.942   0.710   9.286  0.7340 -0.6398  0.7327
12414SOL    HW240135   0.938   0.732   9.436  0.0462  0.5618  0.5523
12415SOL     OW40136   2.168   7.134   0.248 -0.1359 -0.0638  0.7407
12415SOL    HW140137   2.187   7.087   0.329 -2.6780  0.5540  1.7961
12415SOL    HW240138   2.076   7.114   0.230  0.4722 -0.5981 -2.3281
12416SOL     OW40139   0.646   6.045   9.603  0.3024 -0.7530  0.2588
12416SOL    HW140140   0.636   6.137   9.576  2.5971 -0.3283  0.6251
12416SOL    HW240141   0.640   5.995   9.522 -0.5178 -0.2585 -0.0039
12417SOL     OW40142   4.891   7.998   8.866 -0.3195  0.7037  0.1486
12417SOL    HW140143   4.906   7.917   8.817 -2.2143  0.0633  0.5377
12417SOL    HW240144   4.840   7.970   8.942 -1.3307  2.3138  0.1020
12418SOL     OW40145   0.881   2.584   6.227  0.3300  0.6520 -0.2847
12418SOL    HW140146   0.969   2.607   6.198  1.2585 -0.7895  1.1850
12418SOL    HW240147   0.825   2.598   6.151  2.2178 -0.5480 -1.9659
12419SOL     OW40148   2.112   5.100   5.338 -0.1812  0.0432  0.3424
12419SOL    HW140149   2.141   5.102   5.429  0.6739 -0.9087  0.1137
12419SOL    HW240150   2.034   5.045   5.339  0.2635 -0.5934  0.3941
12420SOL     OW40151   8.669   8.363   3.482  0.4103  0.4071 -0.3424
12420SOL    HW140152   8.653   8.331   3.570 -1.5513  1.5212 -0.2291
12420SOL    HW240153   8.698   8.286   3.433 -1.4931 -0.9666  0.5509
12421SOL     OW40154   8.236   4.580   7.602 -0.2026 -0.5160 -0.3804
12421SOL    HW140155   8.299   4.649   7.623 -1.0568 -0.1389  1.1287
12421SOL    HW240156   8.158   4.602   7.654 -1.5444 -1.0317 -2.0829
12422SOL     OW40157   3.695   0.407   4.672 -0.5453 -0.4002 -0.1445
12422SOL    HW140158   3.644   0.375   4.746 -0.8516 -0.3018 -0.3073
12422SOL    HW240159   3.756   0.471   4.710 -1.1660  0.1580 -0.0623
12423SOL     OW40160   5.361   0.279   3.736 -0.0194  0.6501 -0.1830
12423SOL    HW140161   5.353   0.337   3.812  0.8488  0.0591  0.3847
12423SOL    HW240162   5.449   0.240   3.746 -0.2779 -0.1547 -0.9728
12424SOL     OW40163   8.237   6.054   4.739 -0.4010 -0.5057 -0.5120
12424SOL    HW140164   8.241   6.047   4.644 -2.2355  0.4825 -0.7094
12424SOL    HW240165   8.242   6.148   4.756 -0.9542 -0.6153  0.3050
12425SOL     OW40166   8.144   0.870   1.960 -0.1935 -0.4015 -0.0532
12425SOL    HW140167   8.056   0.903   1.941  0.5039  0.3624 -2.1976
12425SOL    HW240168   8.168   0.821   1.881  1.1146 -1.0440  0.7243
12426SOL     OW40169   0.586   8.289   1.154 -1.0387 -0.2575 -0.3230
12426SOL    HW140170   0.646   8.361   1.171 -1.5750 -0.0354  0.7353
12426SOL    HW240171   0.511   8.307   1.211 -1.8619 -0.8253 -1.1961
12427SOL     OW40172   2.186   8.877   5.402 -0.9808  0.8544  0.1143
12427SOL    HW140173   2.144   8.926   5.472  0.4948 -1.3410  2.7315
12427SOL    HW240174   2.144   8.791   5.404  0.9597 -0.1589  0.2956
12428SOL     OW40175   6.276   3.166   8.636  0.4821 -0.0053 -0.3161
12428SOL    HW140176   6.296   3.136   8.725 -1.0476  0.3074  0.1703
12428SOL    HW240177   6.328   3.110   8.579 -0.7171 -2.2196  0.6532
12429SOL     OW40178   4.859   3.348   4.096  0.0039  0.1822 -0.3914
12429SOL    HW140179   4.791   3.326   4.033  1.5651 -1.7651 -1.4822
12429SOL    HW240180   4.841   3.292   4.172 -0.1593  0.3830 -0.2800
12430SOL     OW40181   1.404   6.604   3.975  0.2246  0.2897 -0.1451
12430SOL    HW140182   1.492   6.641   3.986  0.3384 -0.4023  1.6507
12430SOL    HW240183   1.357   6.670   3.924  1.3696  1.3596  0.1212
12431SOL     OW40184   8.204   7.582   7.357 -0.6000  0.3542  0.2273
12431SOL    HW140185   8.261   7.594   7.281 -2.6210  1.1412 -1.2688
12431SOL    HW240186   8.168   7.669   7.375 -1.6246 -0.1686  0.8448
12432SOL     OW40187   0.758   1.387   0.151  0.3543  0.7082 -0.1583
12432SOL    HW140188   0.737   1.451   0.083  0.9936  1.8871  0.7234
12432SOL    HW240189   0.707   1.415   0.227  1.2785  0.6748  0.4870
12433SOL     OW40190   6.870   6.128   7.302  0.0716 -0.3387  0.2477
12433SOL    HW140191   6.887   6.216   7.271  0.4699  1.0695  3.9250
12433SOL    HW240192   6.955   6.097   7.335 -0.4129 -1.3660  0.5793
12434SOL     OW40193   6.235   3.087   7.485 -0.1385 -0.2503 -0.5177
12434SOL    HW140194   6.206   2.996   7.495  4.7589 -2.1665 -0.8269
12434SOL    HW240195   6.264   3.112   7.572  0.5301  0.1770 -0.8570
12435SOL     OW40196   4.829   0.823   4.541 -0.2497  0.6992 -0.5539
12435SOL    HW140197   4.885   0.761   4.493 -0.9406 -0.3598 -0.0144
12435SOL    HW240198   4.849   0.908   4.501  0.2843  0.0604 -1.7101
12436SOL     OW40199   3.409   0.374   3.552  0.6462 -0.1817  0.0827
12436SOL    HW140200   3.503   0.388   3.543  0.5589  0.4883  0.1769
12436SOL    HW240201   3.372   0.462   3.557 -0.2731 -0.3304 -2.5945
12437SOL     OW40202   7.759   3.891   0.146 -0.0250  0.3769 -0.3478
12437SOL    HW140203   7.832   3.864   0.202  0.9391 -0.4621 -1.9375
12437SOL    HW240204   7.681   3.865   0.195  0.7800 -0.4575  0.5465
12438SOL     OW40205   9.119   0.602   7.470 -0.3437  0.1893  0.3194
12438SOL    HW140206   9.070   0.646   7.400 -0.2963  1.3924  1.0217
12438SOL    HW240207   9.076   0.517   7.479  0.5815 -0.6408 -2.1774
12439SOL     OW40208   2.754   9.352   8.467 -0.5570 -0.2334 -0.1308
12439SOL    HW140209   2.792   9.278   8.514 -0.8043 -0.7161 -0.6807
12439SOL    HW240210   2.804   9.357   8.386 -0.4666  0.2774 -0.0466
12440SOL     OW40211   3.367   5.862   7.356 -0.3286  0.7041 -0.5109
12440SOL    HW140212   3.378   5.943   7.404 -0.5996  0.6783 -0.4034
12440SOL    HW240213   3.348   5.796   7.423  2.2231  0.0449 -0.3034
12441SOL     OW40214   7.557   0.522   6.930  0.0469 -0.3503 -0.0556
12441SOL    HW140215   7.615   0.497   7.002 -0.4405 -1.2169  0.0385
12441SOL    HW240216   7.585   0.611   6.908 -0.7242  0.4856  2.1213
12442SOL     OW40217   6.918   2.697   2.199 -0.5979 -0.2198  0.6638
12442SOL    HW140218   6.992   2.675   2.256  0.1584  0.0075 -0.2023
12442SOL    HW240219   6.921   2.632   2.129 -1.2108 -0.1979  0.6128
12443SOL     OW40220   4.827   1.437   5.922 -0.1445  0.2021  0.6744
12443SOL    HW140221   4.824   1.525   5.960  2.5145  0.3671  0.6953
12443SOL    HW240222   4.918   1.426   5.896 -1.2350 -0.9841 -3.1888
12444SOL     OW40223   5.937   7.840   6.106  0.1581 -0.4769 -0.2277
12444SOL    HW140224   5.871   7.818   6.041  1.1864  0.3723 -1.6009
12444SOL    HW240225   5.887   7.869   6.183 -1.0704 -1.9997 -0.4294
12445SOL     OW40226   5.662   2.357   2.587 -0.4676  0.4461 -0.2678
12445SOL    HW140227   5.747   2.312   2.588 -1.3649 -1.3742  1.1383
12445SOL    HW240228   5.655   2.396   2.674 -0.5930  1.5964 -0.7791
12446SOL     OW40229   0.492   5.950   0.159 -0.1710  0.2281  0.0792
12446SOL    HW140230   0.424   5.895   0.121  0.4904 -1.1646  0.8142
12446SOL    HW240231   0.545   5.978   0.084 -0.6932  0.1055 -0.3399
12447SOL     OW40232   9.216   3.953   5.103 -0.3174 -0.0960  0.1713
12447SOL    HW140233   9.159   3.882   5.075 -0.2506 -0.7225  1.5523
12447SOL    HW240234   9.276   3.966   5.030 -0.0550 -1.7671  0.0482
12448SOL     OW40235   0.074   8.500   6.048  0.0013 -0.6895 -0.3143
12448SOL    HW140236   0.136   8.428   6.043  1.3227  0.4066 -0.1434
12448SOL    HW240237   0.110   8.560   6.113 -1.1774  0.0422 -0.2930
12449SOL     OW40238   6.259   4.004   7.925 -0.1028  0.4625 -0.0833
12449SOL    HW140239   6.198   4.016   7.998 -1.8079 -1.2502 -1.1647
12449SOL    HW240240   6.278   3.910   7.924  1.6509  0.7744 -0.5275
12450SOL     OW40241   0.693   2.774   3.258 -0.0948  0.3405 -0.6079
12450SOL    HW140242   0.678   2.804   3.348 -1.0066  2.7231 -1.4748
12450SOL    HW240243   0.722   2.683   3.268 -0.0289  0.5646  2.0830
12451SOL     OW40244   8.086   7.130   9.283 -0.0090  0.3556  0.7152
12451SOL    HW140245   8.059   7.190   9.352  0.7293  1.2323  0.2650
12451SOL    HW240246   8.019   7.062   9.283 -2.0292  2.1932 -0.0379
12452SOL     OW40247   0.227   2.480   7.385  0.2236 -0.3490 -0.0791
12452SOL    HW140248   0.257   2.568   7.405  0.9609  0.1015 -2.8153
12452SOL    HW240249   0.150   2.491   7.331 -2.6189 -1.5237  3.3089
12453SOL     OW40250   7.307   3.578   7.585  0.6737 -0.0104  0.5768
12453SOL    HW140251   7.385   3.561   7.638  1.4945  0.5453 -0.4175
12453SOL    HW240252   7.313   3.514   7.514  2.1468  2.2224 -1.4780
12454SOL     OW40253   3.532   2.372   1.638 -0.2479 -0.0503 -0.1558
12454SOL    HW140254   3.455   2.429   1.645  0.2447  0.8806 -1.9286
12454SOL    HW240255   3.607   2.431   1.643  0.4187 -0.9775  1.8117
12455SOL     OW40256   7.402   2.628   9.169 -0.3942  0.0206 -0.3145
12455SOL    HW140257   7.387   2.693   9.101  1.0186  0.3944 -0.2996
12455SOL    HW240258   7.467   2.568   9.131  0.4635  0.2779  0.7075
12456SOL     OW40259   4.468   3.256   2.282 -0.7098  0.1230  0.2126
12456SOL    HW140260   4.517   3.284   2.205  1.4748 -0.5207  1.2743
12456SOL    HW240261   4.410   3.330   2.302  1.1168  1.7039 -0.1003
12457SOL     OW40262   4.011   4.270   2.261  0.0864 -0.9286  0.4852
12457SOL    HW140263   4.064   4.232   2.332  1.8144  2.6089  1.3450
12457SOL    HW240264   4.066   4.260   2.183 -0.6736 -2.5018  0.1171
12458SOL     OW40265   5.540   6.229   5.614 -0.1509  0.5549  0.0912
12458SOL    HW140266   5.465   6.239   5.555 -0.6326  0.6526  0.7122
12458SOL    HW240267   5.562   6.136   5.609 -1.0353  0.3001  0.7677
12459SOL     OW40268   4.216   3.482   5.055  0.1248 -0.3870 -0.5439
12459SOL    HW140269   4.240   3.412   4.994 -0.4007 -1.3458  0.3279
12459SOL    HW240270   4.242   3.451   5.141 -3.2151 -1.1317  0.3695
12460SOL     OW40271   3.943   8.253   9.375  1.0121 -0.4194 -0.4822
12460SOL    HW140272   3.934   8.283   9.285  0.7254 -0.3920 -0.4454
12460SOL    HW240273   3.936   8.158   9.370  0.0235 -0.3603 -0.3785
12461SOL     OW40274   5.799   4.135   0.129 -0.0603  0.0230  0.5721
12461SOL    HW140275   5.838   4.094   0.052  1.1136  0.1073  1.0968
12461SOL    HW240276   5.726   4.186   0.095 -1.1782 -1.9723 -0.1733
12462SOL     OW40277   0.187   4.239   5.376 -0.1055 -0.0071 -0.4354
12462SOL    HW140278   0.195   4.195   5.291  1.3511 -0.9100  0.1329
12462SOL    HW240279   0.155   4.326   5.355 -0.0716 -0.3251 -1.8914
12463SOL     OW40280   3.936   1.823   6.623 -0.2029  0.5635 -0.1152
12463SOL    HW140281   3.981   1.784   6.547  0.5256 -0.0551  0.6137
12463SOL    HW240282   3.927   1.750   6.684  2.1483  1.6875  1.7437
12464SOL     OW40283   1.534   0.038   4.257 -0.0745 -0.4616 -0.3170
12464SOL    HW140284   1.479   0.107   4.220  1.8587  0.8623 -0.8050
12464SOL    HW240285   1.591   0.011   4.185 -1.2602 -3.1558 -0.3696
12465SOL     OW40286   2.632   7.120   2.472  0.3137 -0.1511  0.0881
12465SOL    HW140287   2.572   7.097   2.543  0.5399 -0.3099  0.2295
12465SOL    HW240288   2.582   7.181   2.417 -0.5869 -1.5666 -0.7212
12466SOL     OW40289   4.143   8.189   7.065  0.3731  0.4404 -0.0779
12466SOL    HW140290   4.139   8.163   6.973  0.0354  2.5923 -0.7206
12466SOL    HW240291   4.105   8.115   7.112 -2.4186  0.5148 -1.9510
12467SOL     OW40292   8.483   0.594   2.342  0.5119 -0.5275 -0.0092
12467SOL    HW140293   8.399   0.577   2.298 -0.6493  0.3355  1.7263
12467SOL    HW240294   8.511   0.679   2.309  0.9271 -1.0112 -0.9097
12468SOL     OW40295   5.803   5.423   9.302 -0.2097 -0.2262  0.2090
12468SOL    HW140296   5.805   5.372   9.383  1.7914  0.9137  0.9470
12468SOL    HW240297   5.884   5.401   9.258 -0.0801  1.0763 -0.2461
12469SOL     OW40298   8.206   8.392   7.751 -0.1987  0.2411  0.3560
12469SOL    HW140299   8.237   8.481   7.738  1.0544 -0.3527 -1.1349
12469SOL    HW240300   8.272   8.351   7.807  0.5943 -0.3993 -0.9831
12470SOL     OW40301   3.614   1.627   7.528  0.3061  0.0480 -0.2342
12470SOL    HW140302   3.701   1.596   7.500 -0.1949 -0.8058 -0.8987
12470SOL    HW240303   3.598   1.582   7.611 -0.0194 -0.7809 -0.7324
12471SOL     OW40304   4.410   0.823   7.873  0.1125  0.0485  0.2172
12471SOL    HW140305   4.367   0.900   7.910 -1.5501 -1.1371  0.8586
12471SOL    HW240306   4.449   0.854   7.791 -1.5692  1.2912 -0.1475
12472SOL     OW40307   2.032   5.535   7.092 -0.3388 -0.4744  0.3747
12472SOL    HW140308   1.995   5.452   7.120 -2.2429 -0.1268 -0.9237
12472SOL    HW240309   2.107   5.511   7.037  0.9107 -1.2061  2.2643
12473SOL     OW40310   8.206   4.674   1.781  0.0990 -0.3501 -0.4053
12473SOL    HW140311   8.128   4.710   1.822 -0.9068 -0.8892 -1.8037
12473SOL    HW240312   8.175   4.631   1.702  1.6861 -1.4234 -0.4997
12474SOL     OW40313   7.401   3.654   4.312 -1.0786  0.0678  0.0732
12474SOL    HW140314   7.445   3.713   4.251 -1.1079 -0.0900 -0.1018
12474SOL    HW240315   7.381   3.576   4.260 -0.9728 -0.1260  0.3222
12475SOL     OW40316   2.728   2.159   7.274 -0.1946 -0.1812 -0.1366
12475SOL    HW140317   2.810   2.171   7.227 -0.0670  0.7239  0.3045
12475SOL    HW240318   2.686   2.085   7.230 -0.9708  1.7882 -2.9520
12476SOL     OW40319   6.784   6.101   8.984  0.2902 -0.3424 -0.0634
12476SOL    HW140320   6.837   6.111   9.063 -0.9181  1.2365  0.5824
12476SOL    HW240321   6.732   6.023   8.999  1.1445 -0.9037  0.0404
12477SOL     OW40322   0.746   7.362   6.061 -0.0368  0.7122  0.2210
12477SOL    HW140323   0.837   7.389   6.071  2.2601 -4.7669 -1.6599
12477SOL    HW240324   0.724   7.320   6.145  0.7753 -1.4158 -0.5668
12478SOL     OW40325   4.492   4.941   1.030 -0.2118 -0.3260 -0.4084
12478SOL    HW140326   4.401   4.916   1.012 -0.0237 -0.7028 -0.8592
12478SOL    HW240327   4.527   4.965   0.945  0.2547 -0.6607 -0.3152
12479SOL     OW40328   4.140   0.453   0.275  0.1830 -0.4130 -0.1020
12479SOL    HW140329   4.134   0.535   0.226 -0.6863 -0.2766  0.2064
12479SOL    HW240330   4.087   0.391   0.225  0.6357 -0.7211 -0.2020
12480SOL     OW40331   5.508   0.811   0.164 -0.0728 -0.1004 -0.0312
12480SOL    HW140332   5.529   0.823   0.071 -0.1705 -0.5776 -0.1187
12480SOL    HW240333   5.413   0.820   0.168  0.0273  0.9341  0.1863
12481SOL     OW40334   2.001   3.104   1.276  0.5188 -0.2503 -0.1354
12481SOL    HW140335   2.003   3.198   1.261  0.4936 -0.2820 -0.3355
12481SOL    HW240336   1.912   3.086   1.307  0.6076 -0.1678  0.1701
12482SOL     OW40337   0.256   7.943   3.903 -0.0072 -0.4345  0.1962
12482SOL    HW140338   0.182   7.942   3.964 -0.7232 -3.1010 -0.6104
12482SOL    HW240339   0.240   8.019   3.847 -0.6317  0.6221  1.7477
12483SOL     OW40340   2.400   0.280   3.319  0.5180 -0.1039 -0.2169
12483SOL    HW140341   2.405   0.225   3.241  0.2672 -0.3859 -0.0390
12483SOL    HW240342   2.415   0.369   3.288 -0.7515 -0.0576 -0.7673
12484SOL     OW40343   6.320   8.628   3.173  0.6805  0.0409  0.0770
12484SOL    HW140344   6.276   8.665   3.250  0.6224  4.4311 -1.7771
12484SOL    HW240345   6.254   8.573   3.132 -1.1524  1.8581  0.4345
12485SOL     OW40346   6.861   6.981   4.856  0.9077  0.2985  0.0242
12485SOL    HW140347   6.898   6.892   4.859 -0.1476 -0.1234  1.6220
12485SOL    HW240348   6.773   6.972   4.892  0.1404  1.7275 -1.3657
12486SOL     OW40349   4.716   2.138   5.377 -0.1478  0.4535  0.0646
12486SOL    HW140350   4.686   2.173   5.461 -1.1102 -1.9770  0.8440
12486SOL    HW240351   4.795   2.087   5.399 -1.0658 -1.1806 -0.2145
12487SOL     OW40352   8.076   0.819   2.850  0.3775  0.0317 -0.0530
12487SOL    HW140353   8.103   0.823   2.942 -1.5126 -2.3401  0.7429
12487SOL    HW240354   7.994   0.869   2.847 -0.3568 -1.1222 -0.0384
12488SOL     OW40355   6.985   4.682   5.294  0.1850  0.1998  0.3676
12488SOL    HW140356   7.061   4.719   5.339  0.5870  0.1478 -0.2511
12488SOL    HW240357   6.950   4.755   5.243 -0.9844  0.5847  1.6489
12489SOL     OW40358   4.979   4.425   9.400 -0.3488  0.3438 -0.0048
12489SOL    HW140359   4.892   4.454   9.426 -1.8803 -2.8440 -1.0898
12489SOL    HW240360   4.995   4.347   9.453  1.2405  0.0933 -0.7997
12490SOL     OW40361   3.743   8.805   1.080  0.2115  0.9522  0.3968
12490SOL    HW140362   3.800   8.875   1.111  0.3764  1.9711 -1.9646
12490SOL    HW240363   3.694   8.845   1.008 -0.2044 -1.1641 -0.5664
12491SOL     OW40364   5.367   5.076   5.765 -0.3072 -0.3041  0.2848
12491SOL    HW140365   5.327   5.150   5.719 -0.6313 -0.5437  0.1827
12491SOL    HW240366   5.294   5.018   5.785  0.1132 -1.2280 -0.7765
12492SOL     OW40367   8.020   0.666   7.340 -0.1697 -0.2935 -0.1818
12492SOL    HW140368   7.946   0.724   7.359 -0.8100 -1.4495  1.0018
12492SOL    HW240369   8.046   0.630   7.425  0.3903 -1.5191 -0.8422
12493SOL     OW40370   9.217   9.334   1.598 -0.3847 -0.4539 -0.2611
12493SOL    HW140371   9.260   9.419   1.607 -2.2577  0.5914 -0.6029
12493SOL    HW240372   9.196   9.307   1.687 -2.1474  0.7848 -0.2419
12494SOL     OW40373   4.225   6.964   7.867 -0.2049  0.8777  0.1841
12494SOL    HW140374   4.308   6.922   7.845 -1.3203 -0.8088 -1.1227
12494SOL    HW240375   4.249   7.044   7.913  2.0996 -0.7030  1.9580
12495SOL     OW40376   8.271   7.943   8.618  0.0929 -0.1812 -0.2617
12495SOL    HW140377   8.208   7.899   8.562 -0.4400  1.3008 -0.8882
12495SOL    HW240378   8.219   7.979   8.690  0.5473 -0.7141  0.3512
12496SOL     OW40379   0.688   3.543   8.678 -0.4021 -0.2989 -0.1852
12496SOL    HW140380   0.694   3.448   8.674  1.7456 -0.2921  1.2020
12496SOL    HW240381   0.625   3.560   8.749 -0.1302 -0.7067  0.1618
12497SOL     OW40382   2.688   7.702   1.974 -0.2423 -0.2452  0.4602
12497SOL    HW140383   2.651   7.634   2.031  0.3743 -0.5263  0.5380
12497SOL    HW240384   2.615   7.761   1.957 -0.7989 -0.9348  0.3770
12498SOL     OW40385   1.745   2.186   0.337  0.2712  0.8637  0.2568
12498SOL    HW140386   1.679   2.139   0.288 -0.6178  0.4543  1.7720
12498SOL    HW240387   1.773   2.257   0.279 -0.6141  0.3205 -0.8607
12499SOL     OW40388   8.148   1.799   5.736  0.3083 -0.9805  0.4446
12499SOL    HW140389   8.147   1.708   5.706  0.9850 -1.0413  0.6126
12499SOL    HW240390   8.104   1.797   5.821 -1.9316 -0.7607 -0.6163
12500SOL     OW40391   2.884   3.927   1.817 -0.0020  0.1129  0.6694
12500SOL    HW140392   2.833   3.847   1.809  1.9957 -1.2730  1.0443
12500SOL    HW240393   2.893   3.941   1.911  1.2554 -0.3438  0.6366
12501SOL     OW40394   6.138   5.355   7.933 -0.1899  0.1735  0.3033
12501SOL    HW140395   6.218   5.400   7.961 -0.8056  0.3455  1.9232
12501SOL    HW240396   6.166   5.300   7.860  1.7937 -0.9484  1.7846
12502SOL     OW40397   1.358   3.883   6.375  0.4753  0.1768  0.7622
12502SOL    HW140398   1.336   3.806   6.428  0.4600 -0.5063 -0.2119
12502SOL    HW240399   1.384   3.949   6.439 -1.2210 -0.0387  1.7439
12503SOL     OW40400   0.860   6.326   7.293 -0.3861  0.1776  0.3334
12503SOL    HW140401   0.844   6.268   7.368 -0.1456 -0.9169 -0.4452
12503SOL    HW240402   0.825   6.411   7.321 -1.6750 -0.5807  1.1101
12504SOL     OW40403   7.664   0.720   2.995 -0.1952 -0.5560 -0.2460
12504SOL    HW140404   7.711   0.754   2.919 -0.1809 -1.5991 -0.7270
12504SOL    HW240405   7.608   0.792   3.023  1.5860  0.7030  0.2969
12505SOL     OW40406   9.464   4.381   4.049  0.9022 -0.7567  0.3443
12505SOL    HW140407   9.462   4.410   3.958 -0.2003  0.2879  0.6841
12505SOL    HW240408   9.470   4.462   4.100  0.5855 -1.2764  1.2279
12506SOL     OW40409   5.768   2.137   3.975  0.3978  0.1898  0.0790
12506SOL    HW140410   5.696   2.152   3.913 -0.7995  0.6194  1.5325
12506SOL    HW240411   5.847   2.140   3.920 -0.6662 -0.2673 -1.5540
12507SOL     OW40412   3.732   4.628   3.243  0.2748  0.1007 -0.0813
12507SOL    HW140413   3.669   4.602   3.175  1.6936 -0.2723 -1.2994
12507SOL    HW240414   3.680   4.679   3.305 -0.6036  2.8101 -2.7972
12508SOL     OW40415   7.967   1.727   7.731 -0.7948  0.2757 -0.6373
12508SOL    HW140416   7.934   1.788   7.666  0.6830  1.0917 -0.6710
12508SOL    HW240417   8.060   1.749   7.739 -0.1240 -2.1853 -0.8829
12509SOL     OW40418   0.381   7.526   2.134 -0.1637  0.3315 -0.4561
12509SOL    HW140419   0.351   7.530   2.043 -2.8017  0.2310  0.3519
12509SOL    HW240420   0.437   7.448   2.137 -0.0186  0.3402 -1.9658
12510SOL     OW40421   6.194   2.483   4.810 -0.8122 -0.3966  0.2200
12510SOL    HW140422   6.169   2.414   4.748  0.2807 -0.7074  0.1053
12510SOL    HW240423   6.278   2.454   4.846  0.4655  1.5636 -0.9668
12511SOL     OW40424   2.766   2.447   5.518 -0.5836  0.8341 -0.3614
12511SOL    HW140425   2.812   2.530   5.523 -0.4578  0.7349  3.6141
12511SOL    HW240426   2.835   2.381   5.514 -0.4946  0.8427  0.7044
12512SOL     OW40427   8.404   4.147   3.741 -0.1300  0.0368 -0.1431
12512SOL    HW140428   8.370   4.183   3.659 -0.7992 -1.2277 -0.4505
12512SOL    HW240429   8.497   4.168   3.740 -0.0424 -0.3496 -1.4483
12513SOL     OW40430   0.912   8.675   6.004 -0.6031 -0.1045 -0.1746
12513SOL    HW140431   0.952   8.721   6.077 -0.5950 -0.5243  0.0895
12513SOL    HW240432   0.888   8.589   6.039  1.0116 -0.9934 -1.0977
12514SOL     OW40433   0.804   5.728   4.836  0.8425  0.4030 -0.5336
12514SOL    HW140434   0.808   5.814   4.793 -1.1607  0.3669 -0.8920
12514SOL    HW240435   0.834   5.666   4.769  2.1186  0.7643 -0.3315
12515SOL     OW40436   7.634   6.123   8.632  0.7464 -0.8716  0.5012
12515SOL    HW140437   7.597   6.071   8.560  0.4767 -0.0632  0.0409
12515SOL    HW240438   7.729   6.110   8.624  0.7501 -0.4255 -0.2890
12516SOL     OW40439   0.952   8.851   6.205  0.3672 -0.1349 -0.7809
12516SOL    HW140440   0.912   8.843   6.291 -0.1070 -0.9874 -1.0693
12516SOL    HW240441   0.957   8.946   6.189  0.0558  0.0150 -0.0103
12517SOL     OW40442   1.318   7.101   1.997 -0.2623  0.1731 -0.1672
12517SOL    HW140443   1.389   7.083   1.935  0.3647  1.2855  0.2093
12517SOL    HW240444   1.355   7.165   2.058 -0.8005 -1.0090  1.4712
12518SOL     OW40445   9.360   8.975   1.843  0.2257  0.9769  0.1087
12518SOL    HW140446   9.304   8.912   1.800 -0.0900  0.7619  0.8139
12518SOL    HW240447   9.445   8.965   1.801 -0.4362  1.8403 -1.4983
12519SOL     OW40448   5.724   4.769   8.974  0.8696 -0.6240 -0.3549
12519SOL    HW140449   5.667   4.697   9.001 -0.2368 -0.1409 -1.2922
12519SOL    HW240450   5.813   4.736   8.988  0.3848 -1.1457  1.7956
12520SOL     OW40451   3.607   2.685   5.770  0.6618 -0.3945  0.4130
12520SOL    HW140452   3.557   2.762   5.796 -0.0686 -0.3978 -0.8828
12520SOL    HW240453   3.679   2.720   5.716  1.3503 -0.4915  1.2485
12521SOL     OW40454   9.051   3.302   3.667 -0.1286  0.1832  0.5850
12521SOL    HW140455   9.034   3.234   3.602 -3.2196  0.9435  0.4473
12521SOL    HW240456   9.124   3.352   3.631 -0.8402 -0.2641 -1.6138
12522SOL     OW40457   7.325   0.068   2.468  0.1775 -0.7053  0.0915
12522SOL    HW140458   7.343   0.053   2.375 -2.7568 -0.4761 -0.6334
12522SOL    HW240459   7.385   0.009   2.514  0.4801 -2.1797 -2.0350
12523SOL     OW40460   3.000   4.959   6.607 -0.0788 -0.3467 -0.3115
12523SOL    HW140461   2.959   5.039   6.575 -1.3189 -0.5453  0.7213
12523SOL    HW240462   3.000   4.900   6.531 -0.2915  0.1899 -0.7363
12524SOL     OW40463   8.240   5.687   3.493  0.4222  0.2966 -0.2310
12524SOL    HW140464   8.273   5.768   3.531  0.7445  0.0697 -0.0155
12524SOL    HW240465   8.319   5.637   3.470  0.2288  0.0389 -0.3474
12525SOL     OW40466   2.448   2.810   7.084  0.1160 -0.4033  0.9624
12525SOL    HW140467   2.464   2.887   7.029  2.0935 -2.4016 -1.5185
12525SOL    HW240468   2.528   2.802   7.137  0.7178 -1.6376 -0.0682
12526SOL     OW40469   6.966   9.603   3.102  0.1899 -0.0626 -0.2524
12526SOL    HW140470   7.016   9.638   3.176  1.1625 -0.8895 -0.4918
12526SOL    HW240471   6.908   9.675   3.077 -1.2259 -0.2488  2.2003
12527SOL     OW40472   1.604   8.203   5.082  0.0836 -0.2841  0.1821
12527SOL    HW140473   1.700   8.205   5.078  0.1335  2.1436  0.9424
12527SOL    HW240474   1.580   8.288   5.120 -2.3493 -1.1548  0.7434
12528SOL     OW40475   7.106   1.651   9.580 -0.2765 -0.1612 -0.4225
12528SOL    HW140476   7.127   1.582   9.643 -1.6235 -0.1749  0.0524
12528SOL    HW240477   7.173   1.718   9.594 -0.9542  0.1537  1.5352
12529SOL     OW40478   1.032   5.531   4.980  0.1228 -0.5607  0.2350
12529SOL    HW140479   1.007   5.511   4.890  0.1219  0.0147  0.1014
12529SOL    HW240480   0.964   5.489   5.034 -0.3043 -0.2723 -0.0664
12530SOL     OW40481   7.713   1.616   7.687 -0.0895 -0.2382  0.7539
12530SOL    HW140482   7.800   1.644   7.716  0.5097 -1.0383 -0.2146
12530SOL    HW240483   7.669   1.588   7.767  0.0929  1.3027  1.4261
12531SOL     OW40484   2.351   1.320   5.869  0.1822 -0.3538 -0.0793
12531SOL    HW140485   2.326   1.235   5.905  1.4223 -0.6959  0.0426
12531SOL    HW240486   2.339   1.312   5.775  0.6262 -0.7960 -0.1012
12532SOL     OW40487   4.514   8.560   5.179  0.0933  0.6292 -0.5074
12532SOL    HW140488   4.493   8.500   5.107  1.5351 -0.2330 -0.2482
12532SOL    HW240489   4.608   8.575   5.171  0.4363 -0.0577  1.6103
12533SOL     OW40490   0.624   8.374   6.369  0.2644 -0.0102 -0.2060
12533SOL    HW140491   0.685   8.307   6.401  0.6530  0.7018  0.5880
12533SOL    HW240492   0.579   8.405   6.448  2.0291  2.5817 -0.0720
12534SOL     OW40493   2.523   1.699   8.778 -0.1524  0.4987 -0.1514
12534SOL    HW140494   2.433   1.678   8.755 -1.0829  2.8451  1.0750
12534SOL    HW240495   2.542   1.780   8.730  1.2716  0.1144 -0.2760
12535SOL     OW40496   7.688   0.530   5.104  0.4862  0.3350 -0.1867
12535SOL    HW140497   7.708   0.620   5.079  1.2300 -0.0088 -0.8800
12535SOL    HW240498   7.749   0.512   5.176 -0.3520  0.6983  0.6415
12536SOL     OW40499   7.572   0.262   6.009 -0.1420  0.3209  0.1606
12536SOL    HW140500   7.630   0.187   5.993 -0.3965  0.1251  0.1443
12536SOL    HW240501   7.552   0.256   6.103 -2.2564 -1.1799 -0.3027
12537SOL     OW40502   7.691   6.379   4.778  0.0146  0.2167 -0.3113
12537SOL    HW140503   7.779   6.365   4.813 -0.7089  0.4790  1.7525
12537SOL    HW240504   7.670   6.299   4.731 -0.0112 -1.4324  2.3054
12538SOL     OW40505   0.229   6.564   0.796 -0.4920 -0.2134 -0.2709
12538SOL    HW140506   0.260   6.481   0.832 -0.3399  0.7702  2.0722
12538SOL    HW240507   0.186   6.540   0.714 -0.2493 -2.5647  0.2077
12539SOL     OW40508   5.978   8.968   1.989 -0.0613 -0.5295  0.0702
12539SOL    HW140509   6.036   8.938   2.058  1.5257  1.5736 -0.2465
12539SOL    HW240510   5.992   8.907   1.917  1.3247 -0.4082  0.2108
12540SOL     OW40511   5.810   5.438   3.615 -0.2645  0.2548  0.1484
12540SOL    HW140512   5.851   5.392   3.541 -0.5992 -0.8870  0.6598
12540SOL    HW240513   5.772   5.517   3.575  2.1975  1.2844 -0.3892
12541SOL     OW40514   6.219   8.763   7.565 -0.0848 -0.0148  0.1071
12541SOL    HW140515   6.152   8.783   7.630 -0.6979  1.5412 -0.9392
12541SOL    HW240516   6.179   8.698   7.507  0.0777 -0.6218  0.6733
12542SOL     OW40517   6.664   4.038   0.690 -0.3447 -0.0182 -0.1476
12542SOL    HW140518   6.756   4.015   0.677 -0.2151  0.4586 -0.0845
12542SOL    HW240519   6.645   4.013   0.780 -0.7033 -1.5223 -0.6088
12543SOL     OW40520   1.942   4.767   8.176 -0.5232 -0.0611 -0.2839
12543SOL    HW140521   1.908   4.752   8.087  1.6010  0.4913 -1.2579
12543SOL    HW240522   1.999   4.692   8.191 -0.4333  0.1433  0.3875
12544SOL     OW40523   3.114   2.801   5.372 -0.1080  0.0484 -0.2237
12544SOL    HW140524   3.027   2.805   5.411 -1.0771 -0.6134 -2.1536
12544SOL    HW240525   3.148   2.715   5.399 -0.6553 -0.2968 -0.6180
12545SOL     OW40526   6.608   6.676   1.191 -0.3046 -0.0979  0.3310
12545SOL    HW140527   6.525   6.713   1.221 -0.1513  0.4747  0.0551
12545SOL    HW240528   6.668   6.750   1.188 -0.6494  0.1945 -2.7216
12546SOL     OW40529   6.934   4.310   3.244 -0.2518 -0.0208  0.0852
12546SOL    HW140530   7.000   4.299   3.176  0.4134 -0.3245  0.7527
12546SOL    HW240531   6.971   4.376   3.303 -1.0124  0.5588 -0.0778
12547SOL     OW40532   0.243   6.595   5.908  0.5137  0.6018  0.0968
12547SOL    HW140533   0.269   6.639   5.827  0.9260 -0.6235 -0.4757
12547SOL    HW240534   0.295   6.514   5.908  1.4104  1.1328  2.2153
12548SOL     OW40535   4.516   4.648   7.442  0.4020  0.0687  0.2732
12548SOL    HW140536   4.552   4.732   7.470 -0.3249  0.9643 -1.3557
12548SOL    HW240537   4.448   4.627   7.506 -0.4107  1.4594 -0.1028
12549SOL     OW40538   6.690   1.184   6.420  0.0372  0.6749 -0.5271
12549SOL    HW140539   6.718   1.209   6.332 -0.0227  0.8037 -0.5099
12549SOL    HW240540   6.769   1.146   6.460  0.3555  1.5670 -0.2770
12550SOL     OW40541   6.969   7.382   4.024 -0.4525  0.7883  0.0653
12550SOL    HW140542   6.954   7.368   3.931 -2.8311 -1.1085  0.6384
12550SOL    HW240543   6.883   7.405   4.059 -0.0114 -0.3561  2.0537
12551SOL     OW40544   3.061   8.759   3.624 -0.2530  0.3991 -0.5656
12551SOL    HW140545   3.048   8.736   3.532 -1.2122 -0.3779 -0.2442
12551SOL    HW240546   3.087   8.677   3.665 -0.1361  0.6811 -0.0758
12552SOL     OW40547   5.728   6.755   1.706 -0.2464 -0.2625 -0.1668
12552SOL    HW140548   5.807   6.785   1.662 -1.7173  1.1168 -1.9991
12552SOL    HW240549   5.703   6.675   1.659  0.8117 -1.5605  1.3731
12553SOL     OW40550   8.399   3.495   4.998 -0.1149 -0.0987 -0.0372
12553SOL    HW140551   8.374   3.501   4.905 -1.2521  0.9839  0.3051
12553SOL    HW240552   8.404   3.401   5.016  1.3589 -0.3484 -1.4918
12554SOL     OW40553   8.667   9.079   4.497  0.0090  0.2758  0.2252
12554SOL    HW140554   8.622   9.151   4.541  0.4504 -0.0190  1.1816
12554SOL    HW240555   8.692   9.115   4.411  3.5466  2.6062  1.9817
12555SOL     OW40556   3.387   3.692   5.768  0.0818  0.6778  0.2568
12555SOL    HW140557   3.350   3.605   5.752 -0.0763  0.8842 -0.5276
12555SOL    HW240558   3.312   3.748   5.785  0.1969  0.6259  0.9753
12556SOL     OW40559   3.809   1.018   5.026  0.1898  0.1169 -0.0728
12556SOL    HW140560   3.721   0.989   5.002  0.8272 -0.4182 -1.8522
12556SOL    HW240561   3.798   1.111   5.047 -0.7189  0.1894 -0.8017
12557SOL     OW40562   4.452   8.005   5.897 -0.2208 -0.0910  0.2795
12557SOL    HW140563   4.527   7.964   5.853  0.4818 -0.1774  1.5071
12557SOL    HW240564   4.376   7.978   5.845  0.4765 -1.0038 -0.2975
12558SOL     OW40565   2.952   8.237   1.810 -0.1628 -0.4079 -0.5962
12558SOL    HW140566   2.890   8.296   1.853 -0.5010 -2.2373  1.6495
12558SOL    HW240567   3.036   8.257   1.849 -0.1294 -0.8128 -0.4504
12559SOL     OW40568   2.388   0.303   9.436 -0.4159  0.0617  0.3627
12559SOL    HW140569   2.459   0.245   9.410 -1.5410 -1.4997  0.6303
12559SOL    HW240570   2.417   0.390   9.408  2.4108 -0.1893  2.0887
12560SOL     OW40571   9.037   5.154   1.175 -0.0991  0.2401 -0.6136
12560SOL    HW140572   8.994   5.189   1.097  2.0876  1.1693 -1.4968
12560SOL    HW240573   8.988   5.075   1.196 -1.7308  0.8332 -1.9525
12561SOL     OW40574   3.464   4.072   5.487  0.0531 -0.2432 -0.2953
12561SOL    HW140575   3.543   4.045   5.532 -0.0111 -1.3845 -0.8410
12561SOL    HW240576   3.393   4.031   5.535 -0.3259  1.5485  0.7803
12562SOL     OW40577   7.425   0.667   7.364  0.3716 -0.0947  0.6332
12562SOL    HW140578   7.457   0.590   7.316 -0.1686  0.3266 -0.4382
12562SOL    HW240579   7.473   0.665   7.447  1.9096 -0.4240 -0.2309
12563SOL     OW40580   6.631   2.785   1.617  0.4647  0.0014  0.3872
12563SOL    HW140581   6.554   2.731   1.635 -0.6165  0.4372 -2.3940
12563SOL    HW240582   6.597   2.874   1.615  1.1539  0.2594 -0.2474
12564SOL     OW40583   6.628   5.932   2.649  0.3381 -0.1702  0.3513
12564SOL    HW140584   6.627   6.027   2.639  0.5773 -0.2613 -0.6281
12564SOL    HW240585   6.648   5.918   2.741  1.8260  0.7328  0.2094
12565SOL     OW40586   8.036   0.892   7.575  0.3419  0.9490 -0.2409
12565SOL    HW140587   7.971   0.830   7.609 -0.0202  0.5574 -1.5709
12565SOL    HW240588   8.101   0.837   7.531 -0.7343  1.4840 -2.7135
12566SOL     OW40589   9.332   8.439   7.125 -0.2658  0.2358 -0.8739
12566SOL    HW140590   9.281   8.406   7.051 -0.2781  1.1252 -1.2701
12566SOL    HW240591   9.354   8.529   7.101 -1.5380  1.0690  0.8644
12567SOL     OW40592   5.730   1.664   0.472 -0.3653  0.1207 -0.1533
12567SOL    HW140593   5.769   1.695   0.390  2.2995 -0.8178  0.6348
12567SOL    HW240594   5.787   1.700   0.541 -1.7320 -0.2310  1.2158
12568SOL     OW40595   1.349   2.229   3.237  0.1277  0.2388 -0.0393
12568SOL    HW140596   1.315   2.193   3.319 -0.6198 -1.3616 -1.0075
12568SOL    HW240597   1.443   2.212   3.240  0.0303 -0.2520  0.2775
12569SOL     OW40598   9.313   1.048   3.652  0.4205  0.2651 -0.0307
12569SOL    HW140599   9.254   0.976   3.633 -0.4436  1.4272 -2.0915
12569SOL    HW240600   9.400   1.009   3.651 -0.0966 -0.9127 -0.0418
12570SOL     OW40601   2.807   6.646   6.156  0.1221 -0.4166 -0.0437
12570SOL    HW140602   2.774   6.559   6.176 -1.6958  0.4367  0.8574
12570SOL    HW240603   2.730   6.696   6.130  1.2984  0.6280 -1.7164
12571SOL     OW40604   5.925   4.466   4.130 -0.5723 -0.3419  0.2932
12571SOL    HW140605   5.919   4.403   4.059 -1.1802  0.4224 -0.3572
12571SOL    HW240606   5.905   4.550   4.089  1.6796  0.5152  0.8125
12572SOL     OW40607   8.496   4.320   7.799  0.0332 -0.4583 -0.6711
12572SOL    HW140608   8.565   4.348   7.739 -0.8505  0.8791 -1.1173
12572SOL    HW240609   8.517   4.363   7.882  0.7270 -1.5329 -0.2771
12573SOL     OW40610   5.104   4.865   4.362  0.2368 -0.1916 -0.3917
12573SOL    HW140611   5.171   4.810   4.321  1.2841  0.8563 -0.1669
12573SOL    HW240612   5.138   4.882   4.450  1.2360  2.7995 -1.2329
12574SOL     OW40613   4.916   5.069   5.564 -0.8603  0.0733 -0.0845
12574SOL    HW140614   4.858   5.035   5.632 -1.2168 -1.0242 -0.9034
12574SOL    HW240615   4.883   5.030   5.483 -0.6493  1.5949 -0.9466
12575SOL     OW40616   6.475   2.961   0.033 -0.2504 -0.3110 -0.0916
12575SOL    HW140617   6.566   2.953   0.006  0.0448  0.9629  0.4454
12575SOL    HW240618   6.467   2.903   0.109 -0.4377 -1.9487 -1.2919
12576SOL     OW40619   6.736   8.208   4.103  0.2104 -0.0218  0.4856
12576SOL    HW140620   6.762   8.185   4.192  0.4322 -0.8188  0.2200
12576SOL    HW240621   6.819   8.221   4.056  0.0957  0.1999  0.3379
12577SOL     OW40622   0.309   2.948   0.600  0.3327 -0.3760 -0.2520
12577SOL    HW140623   0.314   3.033   0.557 -1.1529 -0.1500 -0.0137
12577SOL    HW240624   0.247   2.960   0.671 -0.2241 -1.7564 -0.4667
12578SOL     OW40625   7.481   9.065   9.209 -0.3669 -0.1019 -0.5838
12578SOL    HW140626   7.460   9.121   9.285  0.6602 -1.4315  0.7204
12578SOL    HW240627   7.575   9.054   9.213  0.0172  1.3690 -3.2483
12579SOL     OW40628   2.739   2.415   6.725  0.1036  0.2660 -0.1658
12579SOL    HW140629   2.716   2.418   6.632 -0.0317 -1.2139 -0.2087
12579SOL    HW240630   2.763   2.324   6.741 -1.2600  0.1528  1.5894
12580SOL     OW40631   4.857   3.337   3.309 -0.0111 -0.1513  0.3111
12580SOL    HW140632   4.907   3.256   3.299 -1.5288 -1.1030  0.0683
12580SOL    HW240633   4.767   3.312   3.288 -0.7659  1.2856  1.6494
12581SOL     OW40634   4.603   3.240   1.535  1.1092 -0.2637 -0.0203
12581SOL    HW140635   4.596   3.290   1.453 -0.3303 -1.3583 -0.6021
12581SOL    HW240636   4.650   3.299   1.594  2.4396  0.4589 -1.6998
12582SOL     OW40637   1.069   3.404   4.120  0.1516 -0.4616 -0.3679
12582SOL    HW140638   1.009   3.437   4.053  0.3445 -0.1528 -0.3914
12582SOL    HW240639   1.121   3.338   4.075 -1.5076 -2.2146  0.1448
12583SOL     OW40640   7.035   9.560   8.820  0.8226  0.0118 -0.3731
12583SOL    HW140641   6.969   9.615   8.863 -0.0364 -1.7567  0.6897
12583SOL    HW240642   7.089   9.622   8.771 -1.2026  1.6239 -0.7420
12584SOL     OW40643   1.847   1.994   8.162  0.1810  0.6702 -0.3150
12584SOL    HW140644   1.880   1.904   8.171  2.5190  1.5833  1.2821
12584SOL    HW240645   1.754   1.987   8.180  0.5108 -1.3051  0.9978
12585SOL     OW40646   4.301   3.512   3.651  0.4340 -0.4255  0.2537
12585SOL    HW140647   4.233   3.534   3.714 -0.1007  1.8173 -1.0215
12585SOL    HW240648   4.298   3.416   3.646 -2.1934 -0.4501  0.7237
12586SOL     OW40649   3.728   5.901   1.334 -0.1436  0.2160 -0.6800
12586SOL    HW140650   3.757   5.852   1.257  0.6297  0.6253 -0.6639
12586SOL    HW240651   3.646   5.943   1.306 -0.6370 -0.8011 -0.7944
12587SOL     OW40652   8.641   7.367   7.318 -0.2355  0.1138  0.0427
12587SOL    HW140653   8.661   7.404   7.404  1.0928 -1.3501  0.4142
12587SOL    HW240654   8.661   7.273   7.327 -1.0861 -0.2536 -1.5590
12588SOL     OW40655   9.505   8.750   6.184 -0.1985 -0.1628  0.3532
12588SOL    HW140656   9.561   8.770   6.109 -0.3280 -0.8894  0.0484
12588SOL    HW240657   9.563   8.758   6.260  0.5880 -1.7386 -0.0207
12589SOL     OW40658   8.190   8.096   5.884  0.0569  0.0363 -0.5421
12589SOL    HW140659   8.186   8.154   5.808  1.2188  0.3713 -0.3629
12589SOL    HW240660   8.198   8.008   5.846 -1.0558  0.0273 -0.8052
12590SOL     OW40661   3.673   0.124   6.568 -0.5333  0.0671 -0.0909
12590SOL    HW140662   3.643   0.045   6.524  0.4383 -1.7004  2.2370
12590SOL    HW240663   3.596   0.158   6.613 -0.6071 -0.4161  0.1416
12591SOL     OW40664   3.900   3.658   4.972 -0.2306  0.4888 -0.8306
12591SOL    HW140665   3.809   3.629   4.978  0.0654 -0.6256 -1.5514
12591SOL    HW240666   3.896   3.752   4.990 -1.1252 -0.0240  2.2173
12592SOL     OW40667   3.783   7.556   6.726 -0.3865 -0.3840  0.1234
12592SOL    HW140668   3.836   7.489   6.770 -0.1659  0.1516  0.6822
12592SOL    HW240669   3.814   7.555   6.636  0.9876  0.3178  0.5594
12593SOL     OW40670   8.687   6.557   6.498  0.2321  0.5283  0.1491
12593SOL    HW140671   8.598   6.583   6.475 -1.3465 -4.6415 -0.9178
12593SOL    HW240672   8.679   6.521   6.586  1.0812 -0.5330 -0.1857
12594SOL     OW40673   5.286   7.227   2.774  0.4622  0.2620  0.3457
12594SOL    HW140674   5.375   7.225   2.809  1.1553 -0.1900 -1.3638
12594SOL    HW240675   5.263   7.135   2.763  0.1412  0.3889 -0.0706
12595SOL     OW40676   5.616   5.534   0.368 -0.5674 -0.1661  0.3468
12595SOL    HW140677   5.701   5.577   0.352 -1.4396  0.7579 -2.3707
12595SOL    HW240678   5.639   5.453   0.413  1.5859  0.8130  1.2114
12596SOL     OW40679   6.093   2.969   0.708  0.0375  0.0854  0.2196
12596SOL    HW140680   6.014   3.007   0.668 -0.7226  0.4879  2.0278
12596SOL    HW240681   6.060   2.908   0.773  1.2592 -1.0675 -0.1938
12597SOL     OW40682   2.636   9.532   4.130 -0.3366 -0.0542 -0.1757
12597SOL    HW140683   2.677   9.465   4.076  2.0585  0.5615  0.7617
12597SOL    HW240684   2.645   9.613   4.079  0.8867  0.3158  0.5736
12598SOL     OW40685   3.943   4.784   6.888  0.0465  0.1065  0.1542
12598SOL    HW140686   3.985   4.854   6.938 -0.2768  0.3397  0.0974
12598SOL    HW240687   3.910   4.723   6.955  0.6506 -0.1814  0.1952
12599SOL     OW40688   5.981   9.275   1.256 -0.4570 -0.6395 -0.1072
12599SOL    HW140689   5.965   9.283   1.162  0.8305  1.6864 -0.2159
12599SOL    HW240690   5.899   9.303   1.297 -0.4396  0.1545 -0.5839
12600SOL     OW40691   3.757   0.169   6.854  0.1154  0.1634 -0.1922
12600SOL    HW140692   3.694   0.238   6.879 -1.3268 -1.6994  1.6946
12600SOL    HW240693   3.748   0.163   6.759 -2.0111  0.5353 -0.0854
12601SOL     OW40694   8.225   7.786   9.257  0.2771  0.2914 -0.1310
12601SOL    HW140695   8.268   7.734   9.325 -0.1244  0.0554 -0.0550
12601SOL    HW240696   8.255   7.748   9.175 -0.3038 -0.3015 -0.0729
12602SOL     OW40697   6.910   2.269   0.680 -0.0310  0.3335 -0.8481
12602SOL    HW140698   6.930   2.234   0.593  3.1818 -0.4068  0.0858
12602SOL    HW240699   6.916   2.364   0.669 -2.2195  0.4363 -1.8999
12603SOL     OW40700   3.408   0.919   7.028  0.6060 -0.1540  0.1881
12603SOL    HW140701   3.327   0.948   7.070  0.4764  0.7615 -0.6648
12603SOL    HW240702   3.415   0.972   6.949  2.5604  0.4992  0.7414
12604SOL     OW40703   8.297   2.537   1.507 -0.4414  0.2276 -0.4550
12604SOL    HW140704   8.210   2.497   1.510 -0.8482  1.1041 -0.4853
12604SOL    HW240705   8.331   2.527   1.595 -0.7868  0.3570 -0.3071
12605SOL     OW40706   0.251   9.602   4.714 -0.0360  0.4310  0.6694
12605SOL    HW140707   0.155   9.610   4.710 -0.0609  1.6434  2.4798
12605SOL    HW240708   0.268   9.558   4.797  0.9702 -1.0750 -0.2910
12606SOL     OW40709   2.253   4.160   3.278  0.4813 -0.1944  0.0159
12606SOL    HW140710   2.276   4.239   3.230 -3.0433  0.9572 -0.0595
12606SOL    HW240711   2.178   4.123   3.231  0.5780 -2.3151  1.3518
12607SOL     OW40712   8.349   8.856   5.761  0.1797 -0.0566 -0.2763
12607SOL    HW140713   8.293   8.890   5.831  1.1805  0.0541  0.4881
12607SOL    HW240714   8.332   8.762   5.761  0.5418 -0.1310  0.4731
12608SOL     OW40715   3.896   1.275   6.244  0.5009  0.2000  0.1398
12608SOL    HW140716   3.953   1.214   6.197 -0.0339  0.3891 -0.7870
12608SOL    HW240717   3.819   1.284   6.188  0.2482  1.1561  0.6108
12609SOL     OW40718   5.882   8.788   1.408  0.3435 -0.0531  0.3146
12609SOL    HW140719   5.819   8.720   1.385 -1.7193  1.4851  1.0775
12609SOL    HW240720   5.844   8.832   1.484  0.2032  3.5558 -1.6133
12610SOL     OW40721   6.090   0.944   7.242  0.1164 -0.3261 -0.3441
12610SOL    HW140722   6.092   0.867   7.184  0.1638 -1.0225  0.5664
12610SOL    HW240723   5.997   0.963   7.253  0.1122  0.9280 -2.0623
12611SOL     OW40724   5.793   6.188   3.302 -0.3083 -0.1200  0.2490
12611SOL    HW140725   5.845   6.265   3.280 -0.0642 -0.3013  0.1887
12611SOL    HW240726   5.771   6.149   3.217  2.3909 -2.0090  0.2760
12612SOL     OW40727   0.835   6.319   3.924 -0.4586  0.0148 -0.1777
12612SOL    HW140728   0.891   6.322   3.846 -0.3243 -0.3803 -0.1002
12612SOL    HW240729   0.891   6.351   3.995 -0.9148  1.4153 -0.4279
12613SOL     OW40730   4.226   4.512   0.749 -0.4768 -0.2770 -0.0991
12613SOL    HW140731   4.210   4.548   0.836  1.7621  0.0010  0.2537
12613SOL    HW240732   4.186   4.575   0.689 -1.6808 -0.2612  0.6898
12614SOL     OW40733   2.607   8.111   1.464 -0.7851  0.0175 -0.0495
12614SOL    HW140734   2.606   8.123   1.369 -3.1026  0.5718 -0.0331
12614SOL    HW240735   2.646   8.192   1.498  2.1281 -1.0656 -0.4998
12615SOL     OW40736   1.618   2.582   3.125  0.7800  0.0945 -0.0120
12615SOL    HW140737   1.528   2.614   3.121  0.5603 -0.4075  0.7563
12615SOL    HW240738   1.665   2.650   3.173  1.5339  1.8773 -2.9439
12616SOL     OW40739   8.893   4.541   7.497  0.0666 -0.0447 -0.0085
12616SOL    HW140740   8.921   4.460   7.456  0.1864 -0.1674  0.3080
12616SOL    HW240741   8.974   4.582   7.528 -0.0747 -0.2804  0.6908
12617SOL     OW40742   0.825   7.662   0.533 -0.4795  0.2307 -0.2164
12617SOL    HW140743   0.796   7.614   0.455 -1.2028  0.0107  0.1725
12617SOL    HW240744   0.912   7.695   0.511 -0.0449 -1.1177 -0.5488
12618SOL     OW40745   8.898   4.910   6.141 -0.3697  0.1421 -0.0747
12618SOL    HW140746   8.844   4.834   6.118 -0.6452 -0.1249  1.3996
12618SOL    HW240747   8.871   4.933   6.230 -0.8538  2.4562 -0.7514
12619SOL     OW40748   7.039   5.318   4.889  0.1655 -0.2520 -0.0832
12619SOL    HW140749   6.948   5.340   4.868  1.1144  0.8661 -3.9421
12619SOL    HW240750   7.080   5.403   4.909  0.7614 -0.4080 -0.5887
12620SOL     OW40751   6.091   4.103   1.917  0.1887  0.6378  0.5271
12620SOL    HW140752   6.122   4.084   2.006 -0.2436  0.7209  0.7023
12620SOL    HW240753   6.094   4.199   1.911  2.3743  0.5620 -0.3559
12621SOL     OW40754   2.947   8.630   4.807  0.0289 -0.5339  0.0743
12621SOL    HW140755   2.995   8.600   4.885  0.2573 -0.8705 -0.1919
12621SOL    HW240756   2.968   8.565   4.740  0.3755  0.1196 -0.4600
12622SOL     OW40757   9.021   8.109   8.350 -0.0777 -0.2822 -0.0528
12622SOL    HW140758   8.962   8.100   8.424  0.0843  1.4847  0.3360
12622SOL    HW240759   8.974   8.071   8.276 -1.0788 -0.2520  0.5573
12623SOL     OW40760   0.582   2.860   8.561 -0.0316  0.2273  0.7420
12623SOL    HW140761   0.650   2.902   8.508  0.0197 -2.3694 -1.4773
12623SOL    HW240762   0.605   2.767   8.561 -3.5982 -0.8267 -0.2616
12624SOL     OW40763   5.364   1.796   3.953 -0.2479  0.1653 -0.1907
12624SOL    HW140764   5.301   1.816   4.023 -1.5486 -0.3098 -1.1923
12624SOL    HW240765   5.358   1.871   3.894  2.0413  1.3657  0.9445
12625SOL     OW40766   0.920   1.569   8.229 -0.1537 -0.3106  0.6619
12625SOL    HW140767   0.922   1.649   8.176  1.0011  0.0206  1.1729
12625SOL    HW240768   0.941   1.599   8.318 -0.6885 -1.0504  1.0452
12626SOL     OW40769   5.482   2.637   3.770 -0.5534 -0.4011 -0.8661
12626SOL    HW140770   5.550   2.625   3.836 -2.4734 -0.1784  1.2756
12626SOL    HW240771   5.501   2.723   3.732  1.7471 -1.3862 -2.1549
12627SOL     OW40772   8.394   7.343   4.198 -0.1494 -0.5206  0.8429
12627SOL    HW140773   8.369   7.293   4.276 -0.1488 -0.5307  0.8371
12627SOL    HW240774   8.464   7.292   4.159  2.0500  1.0344  2.5097
12628SOL     OW40775   4.862   1.484   4.474  0.0046  0.2658 -0.1390
12628SOL    HW140776   4.783   1.429   4.474  1.3125 -1.7262 -0.4549
12628SOL    HW240777   4.915   1.450   4.402  0.6580  2.3578 -0.7061
12629SOL     OW40778   1.169   8.663   2.454 -0.7558  0.0499  0.0129
12629SOL    HW140779   1.100   8.671   2.389  0.7074  0.9075 -1.5373
12629SOL    HW240780   1.149   8.730   2.520 -0.8919  0.9408 -0.9182
12630SOL     OW40781   5.575   4.262   8.610  0.4198 -0.1083 -0.2618
12630SOL    HW140782   5.508   4.196   8.627  1.4353 -0.9955  0.4537
12630SOL    HW240783   5.536   4.321   8.546 -2.0739  1.0141  2.0942
12631SOL     OW40784   0.968   2.061   8.927  0.8396 -0.0459 -0.3289
12631SOL    HW140785   1.032   2.110   8.978 -0.4193  1.1195  0.1820
12631SOL    HW240786   0.998   2.068   8.836  1.6722  0.0917 -0.0484
12632SOL     OW40787   6.511   9.361   1.273  0.0703 -0.2189 -0.5843
12632SOL    HW140788   6.470   9.281   1.303  0.8743 -0.1784  0.7076
12632SOL    HW240789   6.468   9.381   1.190 -2.1326 -0.4436  0.4457
12633SOL     OW40790   3.596   7.516   5.629  0.0792  0.3358 -0.0327
12633SOL    HW140791   3.527   7.462   5.668  0.2278 -1.3214 -1.9460
12633SOL    HW240792   3.678   7.476   5.657  0.1883 -0.6840 -1.7128
12634SOL     OW40793   4.273   5.491   2.147  0.2069 -0.2223 -0.0206
12634SOL    HW140794   4.194   5.437   2.142  0.0476  0.1284 -1.7557
12634SOL    HW240795   4.241   5.578   2.168  0.2530 -0.2872  0.3401
12635SOL     OW40796   6.888   1.744   4.199  0.0968 -0.0287 -1.0012
12635SOL    HW140797   6.915   1.664   4.244  0.9766  1.2993  0.9701
12635SOL    HW240798   6.794   1.736   4.189 -0.2860 -0.0563  1.9158
12636SOL     OW40799   8.680   1.388   5.041 -0.2838 -0.1179 -0.0642
12636SOL    HW140800   8.662   1.456   4.977  3.1273  0.1126 -1.0083
12636SOL    HW240801   8.604   1.389   5.100 -1.9859  1.9795 -2.1107
12637SOL     OW40802   6.113   3.331   7.420 -0.0717  0.2347 -0.2083
12637SOL    HW140803   6.168   3.253   7.409 -1.3248 -0.8723  0.9475
12637SOL    HW240804   6.128   3.357   7.511 -0.9377  0.3030 -0.0799
12638SOL     OW40805   6.950   6.078   2.525  0.3880 -0.1333 -0.0290
12638SOL    HW140806   6.949   6.093   2.619 -0.9910 -1.4757  0.2027
12638SOL    HW240807   7.043   6.074   2.502  0.7442 -1.0143  1.4792
12639SOL     OW40808   6.916   6.161   8.754 -0.0652 -0.3495 -0.2821
12639SOL    HW140809   6.991   6.193   8.804  0.1050 -0.9553 -0.1337
12639SOL    HW240810   6.869   6.104   8.815 -0.4190 -0.2931 -0.4998
12640SOL     OW40811   8.924   8.086   0.014 -0.1748  0.0357  0.6372
12640SOL    HW140812   8.841   8.043   0.035  0.3136 -1.2580  0.0074
12640SOL    HW240813   8.929   8.083  -0.081  1.0626 -0.8628  0.7064
12641SOL     OW40814   5.204   1.067   2.448 -0.1655 -0.0535 -0.1779
12641SOL    HW140815   5.146   0.997   2.416 -1.0867  0.3073  0.6604
12641SOL    HW240816   5.261   1.023   2.511 -0.7852 -0.0486  0.3962
12642SOL     OW40817   4.012   0.545   3.292  0.1868  0.0521  0.0309
12642SOL    HW140818   3.958   0.610   3.248 -0.1577  0.3312  0.8383
12642SOL    HW240819   3.960   0.464   3.288  0.8003 -0.2951 -1.3424
12643SOL     OW40820   2.997   5.041   5.022  0.0283 -0.2935 -0.2425
12643SOL    HW140821   2.955   4.974   4.969  0.7750 -0.9292 -0.0486
12643SOL    HW240822   3.007   5.002   5.109  0.6421 -0.0172 -0.1773
12644SOL     OW40823   9.222   8.943   6.638  0.2525  0.2994 -0.6544
12644SOL    HW140824   9.275   8.991   6.702 -1.5684  1.5282  0.0303
12644SOL    HW240825   9.267   8.956   6.555  1.8353 -0.0252  0.1174
12645SOL     OW40826   7.534   3.580   9.562 -0.0036 -0.0204  0.1763
12645SOL    HW140827   7.518   3.596   9.655  1.1140 -0.1051  0.3991
12645SOL    HW240828   7.619   3.622   9.545 -0.7576  1.0881 -1.1035
12646SOL     OW40829   6.557   7.974   3.811  0.6664  0.2058 -0.1999
12646SOL    HW140830   6.482   7.953   3.867  0.7711  0.1559 -0.0766
12646SOL    HW240831   6.628   7.992   3.872  0.3564  1.8616 -0.2739
12647SOL     OW40832   0.645   9.308   1.757 -0.2151  0.5246 -0.2314
12647SOL    HW140833   0.616   9.329   1.668 -0.4862  1.9050  0.1742
12647SOL    HW240834   0.565   9.286   1.804 -0.1729  0.6788 -0.0888
12648SOL     OW40835   5.850   1.783   8.352  0.4047 -0.2663 -0.2259
12648SOL    HW140836   5.859   1.688   8.361  0.1643 -0.1658  1.2142
12648SOL    HW240837   5.941   1.816   8.349  0.4903 -0.4622  0.2090
12649SOL     OW40838   8.487   2.220   2.742 -0.1065 -0.0422 -0.1385
12649SOL    HW140839   8.539   2.244   2.819  2.0293 -0.8072 -1.2396
12649SOL    HW240840   8.511   2.284   2.675 -1.7786  0.4945 -0.2496
12650SOL     OW40841   6.946   8.750   8.857  0.5133  0.3897 -0.7208
12650SOL    HW140842   6.956   8.692   8.933 -0.8957 -2.3626 -2.4981
12650SOL    HW240843   7.036   8.777   8.836  0.9701  1.0031  1.6640
12651SOL     OW40844   5.700   6.500   5.908  0.3112  0.9675  0.7139
12651SOL    HW140845   5.655   6.528   5.988  0.0965  0.0952  0.9069
12651SOL    HW240846   5.758   6.429   5.937 -0.1192  0.3232  0.0214
12652SOL     OW40847   6.417   7.976   3.331 -0.6733  0.5762  0.4189
12652SOL    HW140848   6.412   7.970   3.426  1.3422 -0.6978  0.5002
12652SOL    HW240849   6.504   7.943   3.309 -0.6550  1.8878 -1.8002
12653SOL     OW40850   4.066   1.287   0.705 -0.1054 -0.3835 -0.0073
12653SOL    HW140851   4.127   1.217   0.730 -1.0815 -1.1266  0.3517
12653SOL    HW240852   4.063   1.283   0.610  1.5416  0.6609 -0.1431
12654SOL     OW40853   5.808   1.711   9.191 -0.3044  0.0401 -0.0110
12654SOL    HW140854   5.784   1.631   9.238  1.3348 -0.1659  0.5538
12654SOL    HW240855   5.793   1.690   9.099  0.0053 -0.9049  0.1401
12655SOL     OW40856   4.543   3.924   7.044  0.0492 -0.1576 -0.1313
12655SOL    HW140857   4.538   3.877   7.127  1.1146  0.4446  0.2977
12655SOL    HW240858   4.504   3.864   6.980 -0.4849 -0.7662  0.7398
12656SOL     OW40859   2.557   1.937   0.599  0.5198  0.0882  0.3236
12656SOL    HW140860   2.644   1.928   0.560 -0.4819  2.2707 -2.8675
12656SOL    HW240861   2.503   1.875   0.550 -0.3035  1.1095 -0.1000
12657SOL     OW40862   7.700   5.587   9.040  0.3501  0.2635  0.1546
12657SOL    HW140863   7.746   5.585   8.956  1.1670  0.3879  0.5895
12657SOL    HW240864   7.730   5.668   9.081 -0.6546  0.5979  0.2378
12658SOL     OW40865   8.334   2.422   6.577 -0.1781  0.4801  0.7710
12658SOL    HW140866   8.346   2.513   6.605  1.0890  0.6853 -0.3623
12658SOL    HW240867   8.239   2.411   6.574 -0.4349  2.5759 -1.4908
12659SOL     OW40868   3.411   8.829   5.015 -0.3064  1.2822  0.7448
12659SOL    HW140869   3.373   8.915   5.036  0.5557  1.5572  1.2043
12659SOL    HW240870   3.415   8.784   5.099 -0.3712  0.9467  0.5680
12660SOL     OW40871   4.644   2.351   3.714  0.4436  0.0046  0.4326
12660SOL    HW140872   4.557   2.363   3.676 -0.6980 -1.3970  2.3796
12660SOL    HW240873   4.658   2.430   3.767  1.7684  1.6631 -2.2126
12661SOL     OW40874   2.607   8.764   8.760  0.2661 -0.3312  0.2281
12661SOL    HW140875   2.636   8.674   8.747 -1.8515 -0.9038 -0.9732
12661SOL    HW240876   2.565   8.764   8.846 -0.0760 -0.6007  0.0626
12662SOL     OW40877   2.663   0.371   6.469  0.1112  0.2626  0.0524
12662SOL    HW140878   2.612   0.305   6.515 -1.2872  0.9073 -0.5139
12662SOL    HW240879   2.602   0.444   6.457  1.2238  1.1270 -0.5070
12663SOL     OW40880   2.860   0.658   2.618 -0.0650 -0.0502 -0.0898
12663SOL    HW140881   2.776   0.703   2.607  0.2399  0.3336 -0.9097
12663SOL    HW240882   2.838   0.565   2.613 -0.5013  0.0377  0.1542
12664SOL     OW40883   9.274   1.700   9.451 -0.0032  0.2792  0.4649
12664SOL    HW140884   9.267   1.618   9.499  1.4016  0.4503  1.0192
12664SOL    HW240885   9.228   1.764   9.505 -0.5119 -0.0088  0.3725
12665SOL     OW40886   3.950   7.823   4.378  0.1417  0.3742  0.5205
12665SOL    HW140887   3.918   7.749   4.430 -0.2943  1.2267  1.5064
12665SOL    HW240888   4.009   7.784   4.313 -0.7593 -0.9192  0.4573
12666SOL     OW40889   8.262   5.606   0.670 -0.1317 -0.1091  0.3281
12666SOL    HW140890   8.203   5.645   0.606  1.2047 -0.0834 -0.9451
12666SOL    HW240891   8.331   5.566   0.618  0.3237 -1.2332  1.7252
12667SOL     OW40892   6.835   7.820   0.571 -0.2706  0.1214 -0.0197
12667SOL    HW140893   6.841   7.777   0.486 -1.8112  1.5153 -0.8836
12667SOL    HW240894   6.912   7.789   0.619 -0.4110 -2.2633 -1.1636
12668SOL     OW40895   3.290   0.982   9.277 -0.3547 -0.3500 -0.3433
12668SOL    HW140896   3.210   0.930   9.276 -0.5766 -0.0026 -1.3177
12668SOL    HW240897   3.261   1.070   9.303 -0.1392 -0.4513  0.2565
12669SOL     OW40898   6.562   0.407   4.617  0.0603 -0.0149 -0.0373
12669SOL    HW140899   6.590   0.408   4.526  0.8905  1.5265  0.2035
12669SOL    HW240900   6.641   0.432   4.666 -0.7613  0.6675  0.9719
12670SOL     OW40901   2.189   6.434   5.053  0.3800  0.2099  0.1459
12670SOL    HW140902   2.140   6.481   4.985  0.9886 -0.8222 -1.0488
12670SOL    HW240903   2.224   6.503   5.109 -0.4402  1.0757 -0.3703
12671SOL     OW40904   1.154   8.601   0.130  0.2989  0.2245  0.1859
12671SOL    HW140905   1.103   8.579   0.053  0.9336 -1.4378  0.1956
12671SOL    HW240906   1.130   8.691   0.150 -0.9694  0.2017 -1.0784
12672SOL     OW40907   0.780   2.788   0.107  0.0618  0.0795 -0.2773
12672SOL    HW140908   0.862   2.740   0.100 -0.5306 -0.7951 -1.5201
12672SOL    HW240909   0.720   2.728   0.153  0.2457  0.9262  1.1357
12673SOL     OW40910   2.873   4.498   6.839  0.1841  0.3541  0.1320
12673SOL    HW140911   2.787   4.501   6.881 -0.2610 -0.1238 -0.7212
12673SOL    HW240912   2.855   4.514   6.747  0.9519 -0.2276 -0.1234
12674SOL     OW40913   2.004   1.262   5.285 -0.7186  0.0053  0.0143
12674SOL    HW140914   1.933   1.234   5.227  0.6677 -0.4439 -1.5476
12674SOL    HW240915   2.027   1.183   5.334 -1.3938  0.1958  0.6525
12675SOL     OW40916   8.699   4.702   3.604  0.1004  0.1044  0.0763
12675SOL    HW140917   8.662   4.639   3.665  0.6685  0.0123  0.3322
12675SOL    HW240918   8.689   4.787   3.647  1.0732 -0.0281  0.5918
12676SOL     OW40919   2.290   9.397   8.694  0.1558  0.0835  0.3848
12676SOL    HW140920   2.322   9.308   8.703  1.4975  0.5641  0.6226
12676SOL    HW240921   2.201   9.388   8.661 -0.2353 -1.3778  1.7202
12677SOL     OW40922   8.875   2.433   6.292  0.2110  0.3321 -0.4466
12677SOL    HW140923   8.856   2.424   6.385  0.6370 -1.0612 -0.4629
12677SOL    HW240924   8.795   2.469   6.253  0.2091  1.4142  0.5157
12678SOL     OW40925   7.357   3.228   9.206  0.2476 -0.3491 -0.5564
12678SOL    HW140926   7.371   3.272   9.290  1.3844 -1.0808 -0.3391
12678SOL    HW240927   7.444   3.199   9.180 -0.4532 -2.4274 -0.7274
12679SOL     OW40928   7.584   1.568   0.285 -0.6037 -0.1260  0.6144
12679SOL    HW140929   7.544   1.613   0.210 -1.1418 -0.1132  0.9066
12679SOL    HW240930   7.642   1.634   0.324 -2.2592  0.7224  1.7326
12680SOL     OW40931   8.791   1.817   6.078  0.0536  0.5244  0.1671
12680SOL    HW140932   8.823   1.864   6.001 -1.3258  0.4618 -0.4689
12680SOL    HW240933   8.765   1.887   6.139 -0.5668  0.5984 -0.1700
12681SOL     OW40934   4.620   5.147   5.699  0.3500 -0.4122 -0.4226
12681SOL    HW140935   4.626   5.230   5.747 -0.4468  0.0744 -1.1205
12681SOL    HW240936   4.684   5.090   5.741 -0.4060 -0.0649  1.3123
12682SOL     OW40937   0.215   3.818   2.561  0.0026  0.1509  0.2361
12682SOL    HW140938   0.263   3.784   2.637  0.2290 -1.8735 -0.7505
12682SOL    HW240939   0.137   3.764   2.556  0.9601 -1.1548 -2.0965
12683SOL     OW40940   0.684   3.719   1.528 -0.0474 -0.5757 -0.4534
12683SOL    HW140941   0.604   3.725   1.581 -0.1289 -0.2331 -0.6147
12683SOL    HW240942   0.664   3.652   1.463 -1.3309  1.5428 -2.3952
12684SOL     OW40943   7.046   1.002   4.020 -0.2520 -0.1386 -0.2162
12684SOL    HW140944   7.009   1.089   4.005 -0.3210 -0.1569 -0.1464
12684SOL    HW240945   7.137   1.019   4.046 -1.0381  0.0658  2.6902
12685SOL     OW40946   1.320   5.982   6.241 -0.8029 -0.0397 -0.6614
12685SOL    HW140947   1.391   5.936   6.286  0.2823  1.1965 -1.0439
12685SOL    HW240948   1.355   5.999   6.153 -1.9528 -0.2540 -1.1781
12686SOL     OW40949   7.282   3.507   5.317  0.2402 -0.2131 -0.1770
12686SOL    HW140950   7.346   3.439   5.337  1.5941  1.0416 -0.0950
12686SOL    HW240951   7.233   3.518   5.399  0.9224 -0.1633  0.2358
12687SOL     OW40952   0.299   8.473   0.972  0.1832 -0.5196  0.4808
12687SOL    HW140953   0.390   8.445   0.962  0.7371  1.1961  0.3476
12687SOL    HW240954   0.280   8.461   1.065 -0.0283 -2.4272  0.2286
12688SOL     OW40955   6.527   5.748   3.181  0.1785 -0.0465 -0.1192
12688SOL    HW140956   6.461   5.767   3.248  0.3577  0.0197  0.0379
12688SOL    HW240957   6.601   5.712   3.230 -0.0878 -0.9822 -0.3897
12689SOL     OW40958   6.448   5.540   5.598 -0.2031  0.9591  0.1392
12689SOL    HW140959   6.478   5.564   5.686 -2.2442  2.5918  0.4719
12689SOL    HW240960   6.525   5.554   5.543  1.0069  0.2974  1.5704
12690SOL     OW40961   0.873   5.824   5.073 -0.7549 -0.2338  0.2918
12690SOL    HW140962   0.967   5.808   5.065 -0.8131 -0.7084  0.5485
12690SOL    HW240963   0.835   5.781   4.997 -0.9767 -1.9322  1.3157
12691SOL     OW40964   3.570   0.892   2.686  0.2378  0.4971 -0.1271
12691SOL    HW140965   3.494   0.889   2.743  0.0055  0.4547 -0.4382
12691SOL    HW240966   3.554   0.965   2.627  0.5367  0.6213 -0.0558
12692SOL     OW40967   5.105   2.039   2.282 -0.2077  0.0174 -0.1897
12692SOL    HW140968   5.132   2.020   2.192 -0.0744  1.8526 -0.5733
12692SOL    HW240969   5.024   2.088   2.273  0.5120  1.4054  0.6218
12693SOL     OW40970   5.883   5.046   5.443 -0.1274 -0.1153  0.6553
12693SOL    HW140971   5.819   5.089   5.500  0.7286 -1.5700  2.8761
12693SOL    HW240972   5.930   5.118   5.401 -2.0520  0.9942  0.2534
12694SOL     OW40973   1.644   4.935   7.962 -0.5907 -0.3212  0.2899
12694SOL    HW140974   1.582   4.892   7.904 -0.7624  0.0759  0.1705
12694SOL    HW240975   1.729   4.894   7.943 -0.7981 -0.7985  0.3847
12695SOL     OW40976   4.305   8.075   0.746 -0.4683  0.5360 -0.2346
12695SOL    HW140977   4.309   8.162   0.785 -0.6355 -0.5280  2.3545
12695SOL    HW240978   4.392   8.060   0.711 -0.5269  1.8227 -0.9934
12696SOL     OW40979   5.931   8.666   3.271 -0.1852  0.4022 -0.1518
12696SOL    HW140980   5.896   8.745   3.230  0.3379  0.2650 -0.8782
12696SOL    HW240981   6.024   8.685   3.284 -0.1478  0.0677  0.0693
12697SOL     OW40982   3.863   8.303   4.809  0.1561  0.3351 -0.3292
12697SOL    HW140983   3.877   8.382   4.861  1.8046 -0.3408  0.3075
12697SOL    HW240984   3.948   8.259   4.808 -0.5123 -1.0176 -1.3755
12698SOL     OW40985   1.375   1.805   5.268  0.4460  0.2290  0.1825
12698SOL    HW140986   1.290   1.817   5.224 -0.0362 -0.0327  1.0293
12698SOL    HW240987   1.437   1.854   5.213  0.0914 -1.0910 -1.4974
12699SOL     OW40988   1.522   8.752   7.282 -0.2186 -0.7076 -0.3185
12699SOL    HW140989   1.591   8.773   7.219  0.1735  0.0536  0.3497
12699SOL    HW240990   1.462   8.826   7.278  0.3966 -0.1018  0.9843
12700SOL     OW40991   7.531   0.105   3.367 -0.6497 -0.5182  0.6651
12700SOL    HW140992   7.497   0.184   3.326 -1.1424 -0.4206  1.2482
12700SOL    HW240993   7.568   0.135   3.450 -0.6021 -0.8606  0.7687
12701SOL     OW40994   4.442   0.885   2.305  0.6204  0.6109  0.0527
12701SOL    HW140995   4.478   0.796   2.307 -1.6804 -0.4398 -1.5754
12701SOL    HW240996   4.365   0.881   2.362 -0.6758  0.9618 -1.6129
12702SOL     OW40997   8.341   7.836   8.236  0.2317  0.1849 -0.5772
12702SOL    HW140998   8.247   7.847   8.248  0.5299  0.7844  1.8088
12702SOL    HW240999   8.369   7.914   8.189 -0.4524  0.0389 -1.2328
12703SOL     OW41000   7.814   0.875   8.702 -0.4446 -0.7281  0.1874
12703SOL    HW141001   7.779   0.881   8.791 -0.4575  0.8970  0.0940
12703SOL    HW241002   7.751   0.923   8.648  1.4880  1.6768 -0.0936
12704SOL     OW41003   4.460   8.276   6.730 -0.6130  0.7821  0.1754
12704SOL    HW141004   4.466   8.248   6.639 -0.2314  1.0953  0.1004
12704SOL    HW241005   4.381   8.329   6.735 -1.6174 -0.6819  0.4247
12705SOL     OW41006   9.573   1.170   0.843  0.1935  0.0589 -0.6576
12705SOL    HW141007   9.643   1.219   0.887  1.7303  0.3973 -3.2918
12705SOL    HW241008   9.506   1.237   0.823 -0.3651 -0.0393  0.7524
12706SOL     OW41009   3.770   3.069   0.909 -0.3971  0.6277 -0.1064
12706SOL    HW141010   3.733   2.984   0.932 -1.7172  1.1446 -0.2262
12706SOL    HW241011   3.715   3.133   0.956 -0.3216  1.4726 -1.1155
12707SOL     OW41012   1.477   5.053   4.503  0.6313  0.3103  0.0554
12707SOL    HW141013   1.528   5.024   4.579 -2.6012 -1.0397  1.9220
12707SOL    HW241014   1.450   5.142   4.525  1.8721  0.9510 -0.8457
12708SOL     OW41015   2.957   2.359   5.308  0.5333  0.2854 -0.2500
12708SOL    HW141016   3.047   2.361   5.274  0.6741 -0.0945  0.0936
12708SOL    HW241017   2.915   2.287   5.261  0.5997  0.0447  0.0560
12709SOL     OW41018   4.426   4.151   6.212  0.2431  0.1493  0.0190
12709SOL    HW141019   4.379   4.234   6.200  0.3591  0.5277  1.8240
12709SOL    HW241020   4.464   4.132   6.126  0.2589  2.0115 -0.4297
12710SOL     OW41021   9.528   0.211   0.353  0.1114 -0.7651 -0.5209
12710SOL    HW141022   9.457   0.157   0.388  0.3412 -0.8546 -0.2010
12710SOL    HW241023   9.485   0.293   0.328  0.0511 -0.4848  0.4929
12711SOL     OW41024   5.958   9.324   7.486 -0.0721  0.0754 -0.2748
12711SOL    HW141025   5.935   9.251   7.544  1.4338 -1.0188 -0.9683
12711SOL    HW241026   5.874   9.357   7.454 -0.8256 -0.7240  0.8040
12712SOL     OW41027   5.631   9.151   5.670 -0.2379 -0.2121 -0.3701
12712SOL    HW141028   5.654   9.077   5.614  0.4988  0.2026 -0.6269
12712SOL    HW241029   5.536   9.144   5.682 -0.3639 -0.4720 -1.4288
12713SOL     OW41030   6.827   4.504   7.369 -0.3300  0.0518 -0.0534
12713SOL    HW141031   6.791   4.442   7.432  2.7915 -0.8095  1.0161
12713SOL    HW241032   6.831   4.454   7.287 -1.1374  0.0413 -0.0988
12714SOL     OW41033   5.960   6.618   8.105  0.5012  0.5669 -0.4891
12714SOL    HW141034   5.969   6.575   8.190  4.3064  1.8813 -0.0735
12714SOL    HW241035   5.865   6.621   8.090 -0.2281 -1.2791  2.8313
12715SOL     OW41036   0.087   5.741   3.310  0.1170  0.4083  0.2386
12715SOL    HW141037   0.013   5.784   3.354 -0.0029  0.5058 -0.0479
12715SOL    HW241038   0.146   5.812   3.288  1.2714  0.1313  2.2201
12716SOL     OW41039   7.117   3.202   3.842  0.0136  0.6020  0.5049
12716SOL    HW141040   7.027   3.213   3.874 -0.6072 -1.0640 -0.5050
12716SOL    HW241041   7.116   3.117   3.797  2.4174 -0.0305  1.4962
12717SOL     OW41042   6.577   2.914   8.798  0.0504  0.3818  0.3076
12717SOL    HW141043   6.632   2.939   8.872 -0.4176  0.7265  0.5388
12717SOL    HW241044   6.488   2.914   8.832 -0.4406  2.7295 -0.7807
12718SOL     OW41045   6.265   1.274   9.432 -0.3776  0.0098 -0.2197
12718SOL    HW141046   6.241   1.191   9.474  0.7896 -0.3036 -0.1339
12718SOL    HW241047   6.197   1.288   9.367  0.2599 -1.8847 -1.3881
12719SOL     OW41048   3.512   1.660   6.747  0.7316 -0.0449 -0.3291
12719SOL    HW141049   3.426   1.666   6.705 -0.2645  2.4965  1.7974
12719SOL    HW241050   3.570   1.631   6.677 -1.7661 -1.6712 -1.9111
12720SOL     OW41051   4.344   9.535   7.670  0.0891 -0.9383  0.2368
12720SOL    HW141052   4.311   9.452   7.703 -0.6846 -0.3568  0.9824
12720SOL    HW241053   4.376   9.581   7.748 -0.3300 -0.1774 -0.0225
12721SOL     OW41054   3.099   7.016   2.656  0.4229  0.0546  0.2562
12721SOL    HW141055   3.044   6.985   2.728  1.2997 -0.6541  0.6244
12721SOL    HW241056   3.086   6.952   2.586 -1.1463  1.2235 -0.6010
12722SOL     OW41057   5.664   2.590   8.217 -0.0163 -0.1166  0.0026
12722SOL    HW141058   5.619   2.510   8.244 -0.5209  0.0135 -0.4521
12722SOL    HW241059   5.719   2.613   8.292  0.3215 -1.0241  0.0440
12723SOL     OW41060   0.037   2.538   8.937 -0.4683  0.3158  0.0325
12723SOL    HW141061   0.103   2.470   8.947  0.0236  0.6959 -0.5036
12723SOL    HW241062  -0.045   2.491   8.925  0.2397 -0.3136 -3.2759
12724SOL     OW41063   8.915   0.846   1.232  0.6817 -0.1597 -0.2267
12724SOL    HW141064   8.855   0.915   1.261 -0.7059 -1.2613 -0.3598
12724SOL    HW241065   8.980   0.891   1.178 -0.1719  1.0407 -0.2713
12725SOL     OW41066   2.206   9.012   8.991  0.2608  0.3818 -0.9461
12725SOL    HW141067   2.222   9.100   9.025  2.2196 -1.5540  3.9508
12725SOL    HW241068   2.121   8.987   9.027  1.5962 -1.0900  1.4336
12726SOL     OW41069   3.874   3.322   7.288 -0.1896 -0.7461 -0.3530
12726SOL    HW141070   3.819   3.278   7.353 -0.3911  0.7106  0.5184
12726SOL    HW241071   3.845   3.286   7.204 -1.4715 -1.0671  0.2007
12727SOL     OW41072   6.614   8.024   5.620  0.2789  0.1445 -0.3576
12727SOL    HW141073   6.690   7.977   5.586 -0.1934 -0.2237 -0.9260
12727SOL    HW241074   6.544   7.958   5.620 -0.1532  0.6021 -0.2678
12728SOL     OW41075   8.954   4.405   0.315 -0.5948  0.1912  0.2057
12728SOL    HW141076   8.915   4.364   0.238  2.1301 -0.7703 -0.8036
12728SOL    HW241077   9.022   4.462   0.280  0.1368  0.3883  1.8614
12729SOL     OW41078   7.951   9.517   7.827 -0.4416 -0.2619 -0.1628
12729SOL    HW141079   8.019   9.554   7.883 -1.5099  0.5551  0.6326
12729SOL    HW241080   7.878   9.499   7.887 -2.1997  2.0545 -1.4299
12730SOL     OW41081   6.137   1.335   8.374  0.2296  0.5808 -0.5517
12730SOL    HW141082   6.056   1.298   8.339 -0.9350  0.6481  1.8754
12730SOL    HW241083   6.200   1.326   8.302 -1.6592 -0.2958 -2.2115
12731SOL     OW41084   5.709   6.221   0.442 -0.2251  0.1886  0.2155
12731SOL    HW141085   5.765   6.294   0.415 -0.4216  0.8406  1.5182
12731SOL    HW241086   5.643   6.261   0.498 -1.5245 -0.6992 -0.6226
12732SOL     OW41087   1.818   4.795   0.341  0.7188 -0.1506  0.0085
12732SOL    HW141088   1.838   4.744   0.420 -0.0508  0.3462  0.5364
12732SOL    HW241089   1.903   4.807   0.299  1.4194  0.9433  1.6001
12733SOL     OW41090   0.100   2.407   1.022 -0.2394  0.3363 -0.0234
12733SOL    HW141091   0.016   2.391   0.979 -0.1656 -0.8363  0.2426
12733SOL    HW241092   0.164   2.365   0.965 -0.1224 -1.0750  1.1230
12734SOL     OW41093   9.260   6.669   5.241  0.6694 -0.1851 -0.2248
12734SOL    HW141094   9.271   6.579   5.272 -0.9357  0.0247  1.0461
12734SOL    HW241095   9.274   6.663   5.146  1.5124 -1.5949 -0.0425
12735SOL     OW41096   5.153   4.947   3.669 -0.4726 -0.6668  0.7701
12735SOL    HW141097   5.099   4.869   3.682 -1.8796  0.6141  3.3489
12735SOL    HW241098   5.098   5.005   3.617  0.4932 -1.2351 -0.9696
12736SOL     OW41099   1.103   8.951   5.259  0.6039 -0.0291 -0.4053
12736SOL    HW141100   1.086   9.007   5.335 -0.0535 -0.1194 -0.4776
12736SOL    HW241101   1.050   8.990   5.189 -0.4281 -1.1439 -0.2744
12737SOL     OW41102   5.996   9.531   9.016 -0.1034 -0.0796  0.0488
12737SOL    HW141103   6.033   9.619   9.020  0.9884 -0.5732  2.4101
12737SOL    HW241104   6.001   9.507   8.923  1.5408  1.5479 -0.3372
12738SOL     OW41105   8.530   3.014   0.999 -0.2653 -0.0619  0.0234
12738SOL    HW141106   8.528   2.966   0.916 -1.5363  2.3457 -1.4674
12738SOL    HW241107   8.470   2.967   1.056 -1.4829 -0.2611 -1.3761
12739SOL     OW41108   9.579   4.304   5.607 -0.3391 -0.3087 -0.4131
12739SOL    HW141109   9.624   4.364   5.547  0.4758 -0.2171  0.2774
12739SOL    HW241110   9.496   4.285   5.563 -1.9671  3.5593  0.5985
12740SOL     OW41111   1.803   1.187   2.074  0.0843 -0.3489  0.6296
12740SOL    HW141112   1.753   1.240   2.136  0.2895 -0.6535  1.0631
12740SOL    HW241113   1.844   1.251   2.015 -1.2422 -0.1178 -0.0760
12741SOL     OW41114   0.965   8.708   2.292  0.1123  0.2168  0.3365
12741SOL    HW141115   0.876   8.698   2.325 -0.5961  2.0543 -0.8149
12741SOL    HW241116   0.959   8.687   2.199  1.0146 -0.2009  0.3596
12742SOL     OW41117   0.218   7.683   7.272 -0.0204  0.9310 -0.6036
12742SOL    HW141118   0.169   7.721   7.199 -1.0723  0.0460 -0.3884
12742SOL    HW241119   0.172   7.601   7.291  0.4598  0.9716  0.8166
12743SOL     OW41120   5.067   5.645   5.314  0.5004  0.4398  0.3332
12743SOL    HW141121   5.092   5.602   5.232 -0.6059  0.6490 -0.1214
12743SOL    HW241122   5.036   5.731   5.288 -1.7104 -0.1810  0.7368
12744SOL     OW41123   2.092   3.940   0.671 -0.0666 -0.0506 -0.2575
12744SOL    HW141124   2.039   4.002   0.621  0.0818 -0.4996 -0.9849
12744SOL    HW241125   2.155   3.995   0.718 -0.4281  0.4019 -0.2908
12745SOL     OW41126   4.186   7.221   3.654 -0.5299  0.1232 -0.4019
12745SOL    HW141127   4.206   7.235   3.746 -1.8743  2.3636 -0.3873
12745SOL    HW241128   4.265   7.181   3.618  0.5976  0.6275  1.3991
12746SOL     OW41129   8.746   2.400   6.532  0.6010 -0.3538  0.1484
12746SOL    HW141130   8.702   2.318   6.508 -0.4517  0.3488 -0.3535
12746SOL    HW241131   8.794   2.377   6.612 -1.4890 -0.9098  1.3225
12747SOL     OW41132   6.832   2.070   6.716  0.0375  0.3653  0.1877
12747SOL    HW141133   6.901   2.007   6.733  0.1748  0.6537  0.6984
12747SOL    HW241134   6.751   2.018   6.716  0.3080 -0.0963 -1.1574
12748SOL     OW41135   7.478   6.233   4.273 -0.2909  0.2874  0.4232
12748SOL    HW141136   7.561   6.187   4.257 -0.6333 -0.4547  0.7032
12748SOL    HW241137   7.427   6.170   4.324 -1.1011  0.6609  0.0710
12749SOL     OW41138   0.766   0.569   6.931  0.4197 -0.2719  0.3046
12749SOL    HW141139   0.743   0.658   6.907  0.5495  0.8223  3.7838
12749SOL    HW241140   0.691   0.516   6.904  0.6370  0.6585 -2.4579
12750SOL     OW41141   2.571   6.880   0.404 -0.6828  0.2592 -0.4033
12750SOL    HW141142   2.630   6.894   0.478 -2.3921  2.1083  0.7096
12750SOL    HW241143   2.624   6.900   0.327  0.7189 -0.2200  0.4083
12751SOL     OW41144   2.662   9.393   8.866 -0.4555 -0.2259  0.3891
12751SOL    HW141145   2.744   9.436   8.888 -0.6208  1.0656 -1.3139
12751SOL    HW241146   2.600   9.466   8.853 -0.9586 -0.9762 -1.7541
12752SOL     OW41147   3.486   7.657   4.024 -0.5897 -0.1490  0.1684
12752SOL    HW141148   3.517   7.615   3.944 -1.1363 -1.4630  0.6062
12752SOL    HW241149   3.438   7.734   3.994 -0.5335 -0.4601 -0.7515
12753SOL     OW41150   8.276   2.798   6.083 -0.3038  0.4424 -0.1048
12753SOL    HW141151   8.185   2.789   6.112 -0.8442 -1.6105 -2.1403
12753SOL    HW241152   8.274   2.776   5.990  2.1749  1.1659 -0.3996
12754SOL     OW41153   7.014   5.762   9.267 -0.2631  0.0370 -0.6590
12754SOL    HW141154   7.106   5.737   9.261 -0.1531  0.1667  0.3093
12754SOL    HW241155   6.988   5.735   9.355 -1.4971 -1.1028 -1.3576
12755SOL     OW41156   4.343   2.769   8.781 -0.1541  0.5681  0.5827
12755SOL    HW141157   4.370   2.753   8.872 -0.0794 -0.1338  0.4423
12755SOL    HW241158   4.289   2.848   8.786 -2.0882 -0.7456  1.6029
12756SOL     OW41159   5.163   6.633   4.614 -0.1391  0.1848 -0.2975
12756SOL    HW141160   5.121   6.666   4.693  1.2652 -0.0317  0.5577
12756SOL    HW241161   5.212   6.556   4.642  0.1732 -0.0488 -1.4243
12757SOL     OW41162   2.269   1.962   4.092  0.1427  0.3750 -0.2260
12757SOL    HW141163   2.245   2.055   4.085  2.6830  1.2876  1.4331
12757SOL    HW241164   2.258   1.942   4.185  0.8002 -0.6265 -0.3532
12758SOL     OW41165   2.367   1.690   6.613 -0.6014  0.2233  0.1155
12758SOL    HW141166   2.352   1.755   6.681 -0.7920  1.4141 -1.0198
12758SOL    HW241167   2.458   1.703   6.587 -0.6741  0.1180 -0.2014
12759SOL     OW41168   6.099   7.716   6.946  0.0346  0.1614  0.3043
12759SOL    HW141169   6.190   7.688   6.952 -0.2964 -1.1495 -0.4048
12759SOL    HW241170   6.053   7.664   7.013 -0.3544  0.0676 -0.0283
12760SOL     OW41171   1.646   1.724   9.251 -0.6387 -0.2290 -0.2930
12760SOL    HW141172   1.721   1.689   9.299 -0.4630  0.6290  0.0742
12760SOL    HW241173   1.642   1.671   9.171 -1.0531 -1.8184  0.7313
12761SOL     OW41174   1.873   2.651   7.039  0.0921 -0.2940 -0.1076
12761SOL    HW141175   1.836   2.737   7.017 -0.0172 -0.5119 -0.7950
12761SOL    HW241176   1.825   2.624   7.117  0.5901  0.5588  0.5184
12762SOL     OW41177   4.526   9.278   7.729  0.3360 -0.4683 -0.3678
12762SOL    HW141178   4.531   9.374   7.729  2.3869 -0.4616 -2.7079
12762SOL    HW241179   4.462   9.258   7.661 -0.8024 -0.8086  0.7675
12763SOL     OW41180   3.675   4.262   1.095 -0.1440 -0.1077  0.2877
12763SOL    HW141181   3.687   4.301   1.182  1.5763  1.3160 -0.5226
12763SOL    HW241182   3.758   4.219   1.077 -0.9707 -1.5957 -0.1239
12764SOL     OW41183   6.831   2.371   4.625  0.3410  0.4192  0.1558
12764SOL    HW141184   6.807   2.463   4.618  0.4076  0.5227  1.1489
12764SOL    HW241185   6.748   2.325   4.639  0.4808  0.5593  1.6086
12765SOL     OW41186   6.630   7.645   7.274  0.2089 -0.0954 -0.1943
12765SOL    HW141187   6.699   7.588   7.309 -0.2599 -0.7731 -0.3431
12765SOL    HW241188   6.624   7.717   7.337  0.5194 -0.4357  0.2336
12766SOL     OW41189   5.436   7.241   8.075  0.1701 -0.0064 -0.2004
12766SOL    HW141190   5.410   7.238   8.167 -0.0136 -1.9110 -0.2717
12766SOL    HW241191   5.353   7.239   8.027  0.1878  2.4329 -0.4652
12767SOL     OW41192   0.984   1.530   6.777 -0.0612  0.9609  0.2946
12767SOL    HW141193   0.980   1.625   6.765  1.5542  1.0974  0.6098
12767SOL    HW241194   0.924   1.512   6.850  1.9318  2.2111  2.3965
12768SOL     OW41195   3.640   0.001   2.265  0.0802  0.1636 -0.5718
12768SOL    HW141196   3.656   0.083   2.312  1.3831  0.4742 -1.5171
12768SOL    HW241197   3.559   0.017   2.217 -0.2728  0.4849  0.1044
12769SOL     OW41198   4.815   2.405   0.831  0.3121 -0.0714 -0.3785
12769SOL    HW141199   4.748   2.352   0.788  0.5117  0.6549 -1.6184
12769SOL    HW241200   4.892   2.396   0.776  1.0082 -0.2539  0.6078
12770SOL     OW41201   3.338   1.846   8.347  0.4167 -0.4410 -0.5191
12770SOL    HW141202   3.359   1.870   8.256  0.4033 -1.6674 -0.8604
12770SOL    HW241203   3.252   1.885   8.362 -0.7041 -2.2260 -1.8812
12771SOL     OW41204   0.169   3.570   7.571 -0.3400 -0.3125  0.9184
12771SOL    HW141205   0.082   3.565   7.611 -2.8786  0.2565 -3.8004
12771SOL    HW241206   0.188   3.481   7.543  0.1914 -0.2683  1.1259
12772SOL     OW41207   4.984   0.620   4.061 -0.2020 -0.8833  0.4392
12772SOL    HW141208   5.045   0.635   3.989 -1.2340 -0.1878 -0.3003
12772SOL    HW241209   4.934   0.542   4.035  0.3256 -1.4331  1.0303
12773SOL     OW41210   8.967   4.613   4.825 -0.0468 -0.5672 -0.3807
12773SOL    HW141211   8.887   4.646   4.784 -0.2581  0.0214  0.4712
12773SOL    HW241212   8.935   4.559   4.898  0.3339 -0.2807 -0.0005
12774SOL     OW41213   6.081   3.789   2.135  0.3305 -0.4260  0.7036
12774SOL    HW141214   6.084   3.731   2.058  0.1933 -1.2620  1.3060
12774SOL    HW241215   6.005   3.845   2.120  2.8593  2.6766 -1.9891
12775SOL     OW41216   2.904   5.078   8.015 -0.5033 -0.3635 -0.5070
12775SOL    HW141217   2.881   5.008   7.955  1.7108  0.6927 -2.7819
12775SOL    HW241218   2.869   5.158   7.975  0.4003  0.2823 -0.0707
12776SOL     OW41219   4.666   0.522   0.502 -0.4566 -0.5421  0.8969
12776SOL    HW141220   4.591   0.473   0.467  1.1875 -3.4752  1.2299
12776SOL    HW241221   4.633   0.562   0.582 -2.4823  0.9307 -0.5580
12777SOL     OW41222   0.125   0.018   1.468  0.1320  0.0054 -0.1335
12777SOL    HW141223   0.055   0.027   1.404 -0.5011 -1.0082  0.3731
12777SOL    HW241224   0.205   0.016   1.417 -0.4705 -2.9283 -1.1687
12778SOL     OW41225   9.600   8.269   6.202  0.8518 -0.6867 -0.2470
12778SOL    HW141226   9.656   8.339   6.237  1.2647 -1.9310  1.7638
12778SOL    HW241227   9.661   8.199   6.181  0.4070 -0.6053 -1.9096
12779SOL     OW41228   0.505   4.367   7.122  0.1506 -0.1279  0.3814
12779SOL    HW141229   0.440   4.391   7.055 -0.3548 -0.4678  0.7405
12779SOL    HW241230   0.560   4.445   7.131 -0.0853  0.0956 -0.0727
12780SOL     OW41231   5.813   9.209   9.428  0.4499 -0.0143  0.0379
12780SOL    HW141232   5.774   9.282   9.381 -1.9648 -0.2791  1.5145
12780SOL    HW241233   5.853   9.156   9.359 -0.4724  1.0747 -1.3966
12781SOL     OW41234   4.241   4.371   9.492 -0.1949  0.2370  0.1659
12781SOL    HW141235   4.271   4.450   9.537  1.3083 -0.3136  0.1952
12781SOL    HW241236   4.231   4.306   9.561 -0.1600  0.0368 -0.0159
12782SOL     OW41237   8.664   5.045   0.157  0.0156 -0.2801 -0.3310
12782SOL    HW141238   8.598   5.113   0.147 -0.4093 -0.6791 -0.2673
12782SOL    HW241239   8.620   4.964   0.133 -0.3616 -0.9625  2.3142
12783SOL     OW41240   2.701   6.194   9.179  0.8611  0.5973  0.1587
12783SOL    HW141241   2.788   6.234   9.185  0.5362  1.1836  1.5131
12783SOL    HW241242   2.667   6.197   9.269 -1.3413  2.1698 -0.6234
12784SOL     OW41243   6.587   5.552   4.143  1.1311  0.2620  0.1174
12784SOL    HW141244   6.549   5.529   4.227 -0.1590 -2.1479 -1.0313
12784SOL    HW241245   6.682   5.542   4.156  1.0544  1.0887  1.5466
12785SOL     OW41246   7.511   6.502   8.550  0.4712 -0.0776  0.1334
12785SOL    HW141247   7.597   6.476   8.583  1.1780 -0.0669 -1.5665
12785SOL    HW241248   7.519   6.596   8.532 -0.7431  0.5162  2.3209
12786SOL     OW41249   3.469   3.863   6.243  0.1356 -0.0323  0.3039
12786SOL    HW141250   3.460   3.953   6.212  1.1869 -0.2661 -0.7540
12786SOL    HW241251   3.448   3.808   6.168  0.7564 -0.6477  0.5616
12787SOL     OW41252   9.469   2.775   6.900  0.0163 -0.0649  0.1446
12787SOL    HW141253   9.401   2.762   6.965 -0.7506  0.6235 -0.5064
12787SOL    HW241254   9.515   2.854   6.927 -1.7942  1.6090 -1.3509
12788SOL     OW41255   9.432   4.415   3.782  0.3027  0.3204 -0.1791
12788SOL    HW141256   9.409   4.329   3.749 -0.2047  0.0199  0.8975
12788SOL    HW241257   9.410   4.476   3.711 -0.6050 -0.3038 -0.4403
12789SOL     OW41258   1.553   5.613   0.625 -0.1161  0.0518  0.0349
12789SOL    HW141259   1.524   5.533   0.582  0.7256 -0.1811 -0.1347
12789SOL    HW241260   1.565   5.588   0.716 -1.4764  0.4310  0.3268
12790SOL     OW41261   6.672   9.034   2.691 -0.5116  0.4698  0.0515
12790SOL    HW141262   6.649   8.991   2.774  1.4770  2.3177  1.6969
12790SOL    HW241263   6.764   9.058   2.702 -0.4340  1.5490 -2.3968
12791SOL     OW41264   0.385   6.043   6.079 -0.2006  0.4247  0.0711
12791SOL    HW141265   0.449   6.014   6.014 -0.7796 -1.3376  0.2336
12791SOL    HW241266   0.426   6.025   6.163 -0.1606  1.0640  0.1922
12792SOL     OW41267   5.921   7.040   1.604 -0.1632  0.1425 -0.0178
12792SOL    HW141268   5.896   7.097   1.532  0.6793  0.6430  0.0741
12792SOL    HW241269   5.869   7.071   1.679  0.1711  0.6949 -0.0071
12793SOL     OW41270   0.878   0.011   5.105  0.1029  0.1452 -0.6912
12793SOL    HW141271   0.814  -0.002   5.175  1.4729  0.8807  0.7763
12793SOL    HW241272   0.835   0.070   5.044 -0.0625  2.0678  1.1611
12794SOL     OW41273   1.957   2.655   1.088 -0.1308 -0.0427  0.5533
12794SOL    HW141274   1.901   2.649   1.011 -1.9542  0.2220  1.7990
12794SOL    HW241275   2.040   2.690   1.055 -1.6014  2.2555 -0.9824
12795SOL     OW41276   3.422   4.392   3.328  0.7389 -1.1835 -0.0942
12795SOL    HW141277   3.474   4.324   3.370  0.9479 -0.2655  1.1805
12795SOL    HW241278   3.473   4.473   3.339 -0.0603 -0.5975 -0.5096
12796SOL     OW41279   0.040   4.494   5.440  0.3468  0.0984  0.0536
12796SOL    HW141280   0.106   4.529   5.500  1.4749  0.3929 -1.2925
12796SOL    HW241281   0.006   4.571   5.395 -1.9451  0.1072  1.6405
12797SOL     OW41282   9.636   8.255   5.353 -0.0789  0.5746 -0.4419
12797SOL    HW141283   9.563   8.247   5.415  0.4796  1.6050  0.3659
12797SOL    HW241284   9.602   8.310   5.282 -0.4398  0.1135 -0.6314
12798SOL     OW41285   4.758   2.219   9.165 -0.0726  0.0000  0.4735
12798SOL    HW141286   4.664   2.232   9.164  0.0762  1.2670  0.4431
12798SOL    HW241287   4.788   2.250   9.079  0.1726 -2.3606 -0.3606
12799SOL     OW41288   5.310   1.466   5.970  0.3273  0.2145  0.6899
12799SOL    HW141289   5.399   1.446   5.943 -0.0340 -0.4289 -0.0520
12799SOL    HW241290   5.317   1.549   6.016  1.0100  1.2318 -1.1563
12800SOL     OW41291   5.106   7.567   2.505  0.2276  0.0751 -0.0419
12800SOL    HW141292   5.082   7.639   2.563  1.9172  1.7003 -1.2343
12800SOL    HW241293   5.081   7.597   2.418  0.7336 -0.8884 -0.5401
12801SOL     OW41294   4.408   9.127   6.180 -0.7974 -0.1410  0.0973
12801SOL    HW141295   4.371   9.121   6.268  0.2426 -1.9993  0.4606
12801SOL    HW241296   4.487   9.180   6.190 -0.9546  0.0769  0.1830
12802SOL     OW41297   2.704   8.184   4.222 -0.0056  0.8210  0.2513
12802SOL    HW141298   2.634   8.135   4.180 -0.9216  1.0111  1.5163
12802SOL    HW241299   2.735   8.127   4.292  0.6180  1.0330  0.1533
12803SOL     OW41300   0.237   1.675   7.086 -0.1447 -0.1337  0.3488
12803SOL    HW141301   0.145   1.648   7.089 -0.3094  0.3687  0.0262
12803SOL    HW241302   0.285   1.595   7.067 -0.5874 -0.2774 -0.1791
12804SOL     OW41303   1.490   7.383   5.631  0.0930 -0.0790  0.4889
12804SOL    HW141304   1.471   7.292   5.608  0.5754  0.2511 -1.3252
12804SOL    HW241305   1.407   7.429   5.621 -0.8943 -0.7191  4.1172
12805SOL     OW41306   0.354   0.215   6.992 -0.2172 -0.4501 -0.0535
12805SOL    HW141307   0.371   0.137   7.045  0.0812  0.7229  1.6751
12805SOL    HW241308   0.262   0.237   7.011  0.0600  0.3096  0.4875
12806SOL     OW41309   5.940   3.099   4.070 -0.4700  0.5990  0.3239
12806SOL    HW141310   5.982   3.052   4.143 -0.8797  0.5782  0.5505
12806SOL    HW241311   5.938   3.190   4.099 -1.5865  0.4328  0.7991
12807SOL     OW41312   9.118   1.146   9.542  0.5644  0.8129  0.1283
12807SOL    HW141313   9.066   1.093   9.603  1.6008  1.1036  1.3220
12807SOL    HW241314   9.102   1.236   9.570  0.3266  1.0169 -0.6473
12808SOL     OW41315   5.662   8.507   0.830  0.0806  0.4131 -0.4075
12808SOL    HW141316   5.598   8.548   0.889  0.2438 -0.2698  0.2480
12808SOL    HW241317   5.667   8.416   0.859  0.5013  0.1796 -1.1911
12809SOL     OW41318   0.140   5.509   0.176 -0.5736 -0.0273 -0.0189
12809SOL    HW141319   0.147   5.414   0.171 -1.0680 -0.0138 -1.5003
12809SOL    HW241320   0.217   5.541   0.129 -1.3428  0.2712 -1.1059
12810SOL     OW41321   8.783   0.128   2.763  0.5539 -0.6399  0.4658
12810SOL    HW141322   8.845   0.060   2.737  1.0976 -0.3361  0.9510
12810SOL    HW241323   8.697   0.086   2.756  0.6552 -0.5858 -1.7537
12811SOL     OW41324   4.220   5.025   1.717 -0.1261 -0.3763 -0.2563
12811SOL    HW141325   4.152   5.092   1.711 -0.3122 -0.5427  0.0076
12811SOL    HW241326   4.181   4.954   1.768 -0.8685 -1.8359 -2.6564
12812SOL     OW41327   6.200   5.403   3.717 -0.1287 -0.2410 -0.1308
12812SOL    HW141328   6.185   5.451   3.799 -0.8157 -2.1071  0.8978
12812SOL    HW241329   6.282   5.356   3.732  0.1593  0.0289 -0.8435
12813SOL     OW41330   7.153   5.823   6.605  0.4099 -0.7226  0.1587
12813SOL    HW141331   7.082   5.884   6.623 -0.5455 -2.2246  1.9050
12813SOL    HW241332   7.138   5.794   6.515 -0.2601  0.1422 -0.0192
12814SOL     OW41333   7.950   7.510   0.246 -0.3669 -0.1308  0.0272
12814SOL    HW141334   7.859   7.479   0.241 -0.7240  0.7951  0.6021
12814SOL    HW241335   7.945   7.590   0.297  0.6500  0.4586 -0.7679
12815SOL     OW41336   6.043   4.304   1.578  0.3599  0.4832  0.0750
12815SOL    HW141337   6.056   4.386   1.530  1.6979 -0.3276 -1.0127
12815SOL    HW241338   5.973   4.259   1.531 -1.8926  1.8199  1.8861
12816SOL     OW41339   1.446   0.895   0.574 -0.3657 -0.6781 -0.9340
12816SOL    HW141340   1.410   0.929   0.656 -0.9357 -1.1413 -0.9809
12816SOL    HW241341   1.403   0.947   0.506  0.7495  0.2901 -0.9223
12817SOL     OW41342   9.032   0.102   0.293 -0.3188  0.0203 -0.2529
12817SOL    HW141343   8.994   0.051   0.364 -1.3449 -0.8151 -1.3445
12817SOL    HW241344   9.069   0.180   0.335 -0.0695 -0.8852  1.2761
12818SOL     OW41345   9.531   6.673   2.657  0.7238  0.0737 -0.3216
12818SOL    HW141346   9.484   6.750   2.628  0.8172  0.2132 -0.1108
12818SOL    HW241347   9.574   6.639   2.578  2.0083  1.1740 -0.1310
12819SOL     OW41348   6.426   7.276   5.860  0.2027  0.0985  0.6509
12819SOL    HW141349   6.451   7.340   5.927  0.5706  0.8087 -0.1439
12819SOL    HW241350   6.499   7.214   5.858  0.2102  0.0981  0.8672
12820SOL     OW41351   3.419   9.553   6.882  0.0631  0.4678  0.0177
12820SOL    HW141352   3.502   9.539   6.928  0.3531 -0.2318 -0.7018
12820SOL    HW241353   3.364   9.600   6.945  1.5108  2.2867 -0.0224
12821SOL     OW41354   5.975   4.484   0.827 -0.8089 -0.2583 -0.6268
12821SOL    HW141355   6.039   4.446   0.886 -1.5660 -0.0859  0.3274
12821SOL    HW241356   6.027   4.521   0.755  0.2362  0.6092  0.5346
12822SOL     OW41357   8.266   6.445   0.393  0.3147 -0.5928 -0.0543
12822SOL    HW141358   8.314   6.439   0.476  1.5102  1.7264 -0.4974
12822SOL    HW241359   8.175   6.453   0.419  0.8078  1.7360  1.1782
12823SOL     OW41360   8.497   5.079   3.957  0.3754 -0.7084  0.1557
12823SOL    HW141361   8.499   5.174   3.969 -0.6352 -0.6769  0.0958
12823SOL    HW241362   8.466   5.045   4.041 -0.1879 -0.9261 -0.1415
12824SOL     OW41363   3.753   8.707   9.168  0.4375 -0.4716 -0.4660
12824SOL    HW141364   3.681   8.718   9.107  0.8777 -0.6903 -1.0336
12824SOL    HW241365   3.716   8.655   9.239 -0.3436  0.5890 -0.0613
12825SOL     OW41366   7.105   0.035   3.313  0.5235 -0.2235 -0.1163
12825SOL    HW141367   7.140   0.089   3.384  1.5623 -0.3966 -0.4846
12825SOL    HW241368   7.181  -0.010   3.277  0.0970  0.1844 -1.6098
12826SOL     OW41369   7.629   3.239   8.721 -0.2396 -0.3338  0.5863
12826SOL    HW141370   7.717   3.215   8.750  0.3273 -0.6707 -1.2841
12826SOL    HW241371   7.614   3.326   8.759  0.2979 -0.8660  2.0893
12827SOL     OW41372   4.430   3.685   7.544 -0.0404  0.0789  0.1909
12827SOL    HW141373   4.348   3.660   7.501  0.3499 -1.1143  0.1009
12827SOL    HW241374   4.427   3.780   7.547 -1.5334  0.0562  0.3814
12828SOL     OW41375   3.208   7.478   4.797  0.2100 -0.1510  0.0374
12828SOL    HW141376   3.113   7.486   4.806  0.1284 -1.7639  1.1088
12828SOL    HW241377   3.244   7.541   4.859 -0.2391 -1.7691  2.0324
12829SOL     OW41378   6.706   2.929   3.026 -0.2244 -0.2379 -0.1464
12829SOL    HW141379   6.668   3.017   3.033  0.2206 -0.1181  1.0687
12829SOL    HW241380   6.631   2.871   3.014 -0.5492  0.2765 -0.6153
12830SOL     OW41381   8.071   8.678   8.608 -0.2230 -0.4552  0.1791
12830SOL    HW141382   8.153   8.720   8.635 -0.9462 -0.1114  1.9706
12830SOL    HW241383   8.037   8.736   8.540 -0.1015  0.6864  1.0431
12831SOL     OW41384   5.435   0.571   1.470  0.0853 -0.4655  0.0817
12831SOL    HW141385   5.341   0.585   1.471  0.3042  1.3158 -0.7573
12831SOL    HW241386   5.449   0.511   1.396 -0.4566 -1.4744  0.7837
12832SOL     OW41387   7.814   6.096   7.741 -0.7008  0.5388  0.3800
12832SOL    HW141388   7.801   6.006   7.711  1.4842  0.4020 -0.2983
12832SOL    HW241389   7.726   6.126   7.764 -1.5061 -1.6889  0.4381
12833SOL     OW41390   5.412   6.982   7.016 -0.0891  0.4019  0.2667
12833SOL    HW141391   5.497   6.980   6.972  0.0322  0.4008  0.5008
12833SOL    HW241392   5.356   7.033   6.958  0.0400  0.3055  0.0556
12834SOL     OW41393   2.919   3.569   2.105  0.7487  0.0288  0.0455
12834SOL    HW141394   2.896   3.632   2.173 -0.2899 -0.3151  0.0348
12834SOL    HW241395   2.939   3.488   2.152 -0.4068 -0.3372 -0.0563
12835SOL     OW41396   6.513   1.487   2.918  0.1962  0.5924  0.0432
12835SOL    HW141397   6.565   1.469   2.997  0.8843 -0.6395 -0.6583
12835SOL    HW241398   6.477   1.401   2.893 -0.0568  0.9757 -0.9577
12836SOL     OW41399   1.022   5.250   5.421 -0.3121  0.3410 -0.0557
12836SOL    HW141400   0.968   5.328   5.431 -0.9332  0.1367 -1.4601
12836SOL    HW241401   1.053   5.254   5.330  0.1722 -0.7057  0.0468
12837SOL     OW41402   6.577   6.914   7.176  0.0942  0.2176 -0.3536
12837SOL    HW141403   6.618   6.945   7.095  3.1106 -2.0984  0.0986
12837SOL    HW241404   6.646   6.921   7.242 -1.3657 -0.7017  1.3630
12838SOL     OW41405   1.711   7.227   7.078  0.0232  0.2002 -0.5708
12838SOL    HW141406   1.791   7.175   7.072 -0.4117 -0.3554 -1.7475
12838SOL    HW241407   1.648   7.169   7.119  0.0549  0.4550 -0.1504
12839SOL     OW41408   9.540   0.819   7.956  0.1913 -0.2314 -0.3750
12839SOL    HW141409   9.623   0.865   7.971 -0.4674  0.7560  0.3461
12839SOL    HW241410   9.473   0.877   7.994 -0.8007 -1.1538 -0.6731
12840SOL     OW41411   8.903   2.033   6.542 -0.1517  0.0821  0.0561
12840SOL    HW141412   8.856   1.960   6.581  0.9297 -0.7604 -0.1384
12840SOL    HW241413   8.836   2.097   6.520 -1.0444 -0.5304  0.9227
12841SOL     OW41414   5.703   6.195   0.129  0.1335 -0.0965 -0.3419
12841SOL    HW141415   5.728   6.254   0.200 -1.5415 -0.0431  0.2511
12841SOL    HW241416   5.620   6.230   0.097  0.4114 -0.6383 -1.7532
12842SOL     OW41417   3.468   0.572   6.513 -1.0313  0.3051  0.3730
12842SOL    HW141418   3.474   0.476   6.513  1.5212  0.3710  0.9587
12842SOL    HW241419   3.410   0.592   6.586 -0.1513 -0.7987  1.4224
12843SOL     OW41420   6.270   2.135   6.371  0.0437 -0.2681 -0.3708
12843SOL    HW141421   6.257   2.215   6.319 -1.0629 -0.1438  0.0658
12843SOL    HW241422   6.365   2.122   6.371  0.2634  1.1035 -0.3913
12844SOL     OW41423   4.047   7.536   2.319 -0.2185 -0.2502 -0.0635
12844SOL    HW141424   3.958   7.506   2.304  0.2487 -1.6290 -0.1981
12844SOL    HW241425   4.079   7.562   2.233 -1.3054  2.7751  0.3165
12845SOL     OW41426   6.118   9.421   4.519  0.2230  0.1758 -0.8109
12845SOL    HW141427   6.116   9.333   4.483 -1.2372 -0.4272  0.6338
12845SOL    HW241428   6.181   9.416   4.591 -0.9328 -0.1204  0.2161
12846SOL     OW41429   9.331   9.487   0.897 -0.2860  0.1529  0.0873
12846SOL    HW141430   9.410   9.465   0.847 -0.5902  2.3148 -1.4869
12846SOL    HW241431   9.358   9.480   0.988  1.4642 -0.0189 -0.4071
12847SOL     OW41432   7.921   5.410   8.190 -0.2345 -0.1899  0.1407
12847SOL    HW141433   7.878   5.356   8.257  0.4716  1.7291  2.2894
12847SOL    HW241434   7.854   5.472   8.163  0.4315  1.3513  1.8265
12848SOL     OW41435   9.552   3.971   3.455 -0.3401 -0.0383  0.4233
12848SOL    HW141436   9.647   3.967   3.439 -0.7433 -0.4540 -2.2211
12848SOL    HW241437   9.544   4.032   3.529  1.9364  0.6270  0.2219
12849SOL     OW41438   5.518   9.371   9.477  0.3864  0.0661 -0.0930
12849SOL    HW141439   5.524   9.392   9.384 -1.6980  0.2146 -0.2368
12849SOL    HW241440   5.463   9.441   9.514  0.8174 -0.2343  1.1651
12850SOL     OW41441   8.448   3.712   4.374  0.3500 -0.3053  0.0910
12850SOL    HW141442   8.470   3.629   4.332  0.7160 -0.8690  1.3824
12850SOL    HW241443   8.465   3.778   4.306  1.1836 -1.1730 -0.5662
12851SOL     OW41444   0.914   1.239   7.585  0.3408 -0.1967  0.2555
12851SOL    HW141445   0.954   1.244   7.498 -1.0656 -1.8859 -0.5440
12851SOL    HW241446   0.852   1.312   7.588  0.1788 -0.3077 -0.2811
12852SOL     OW41447   3.060   8.607   1.658 -0.4166 -0.1524 -0.1093
12852SOL    HW141448   3.023   8.695   1.655 -0.6432 -0.2461 -0.0458
12852SOL    HW241449   3.047   8.573   1.569  1.6943  0.7015 -0.8069
12853SOL     OW41450   6.396   6.750   8.331  0.2675 -0.0155 -0.0559
12853SOL    HW141451   6.396   6.669   8.280 -2.1385 -1.2197  1.6328
12853SOL    HW241452   6.368   6.817   8.268  2.1386 -0.4606 -1.4482
12854SOL     OW41453   5.052   9.519   5.273  0.2812 -0.1718 -0.2379
12854SOL    HW141454   5.110   9.562   5.336  0.0761 -0.6429  0.2831
12854SOL    HW241455   5.067   9.425   5.286 -0.1614 -0.2854 -0.5085
12855SOL     OW41456   3.614   7.553   1.633  0.2058  0.5663 -0.4570
12855SOL    HW141457   3.650   7.538   1.721 -0.2617  1.3721 -0.1069
12855SOL    HW241458   3.629   7.647   1.618 -1.2914  0.8210 -0.4850
12856SOL     OW41459   2.937   3.229   0.058 -0.0202  0.1344 -0.6671
12856SOL    HW141460   2.950   3.312   0.105  1.6826  0.6393 -1.9339
12856SOL    HW241461   2.881   3.252  -0.016 -0.6585 -0.1368 -0.2705
12857SOL     OW41462   8.435   8.014   3.989 -0.2410 -0.2468  0.0440
12857SOL    HW141463   8.488   8.092   4.008 -0.9715  0.2758 -0.0315
12857SOL    HW241464   8.458   7.952   4.058 -0.2086  0.3116  0.5406
12858SOL     OW41465   9.520   6.583   8.070  0.2514 -0.4249 -0.2889
12858SOL    HW141466   9.570   6.588   8.151 -0.9803  0.0909  0.4608
12858SOL    HW241467   9.516   6.490   8.049  4.3522 -0.4046 -2.2280
12859SOL     OW41468   2.766   4.203   0.948  0.6790 -0.0474 -0.1674
12859SOL    HW141469   2.789   4.240   0.862  0.2063  0.1809 -0.2032
12859SOL    HW241470   2.810   4.118   0.951  1.5468  0.3945 -0.2056
12860SOL     OW41471   4.788   6.717   7.899 -0.0284  0.2105  0.1063
12860SOL    HW141472   4.798   6.744   7.990  0.8439 -0.3580  0.1928
12860SOL    HW241473   4.777   6.799   7.851 -0.2643  0.5270  0.6936
12861SOL     OW41474   2.646   5.400   5.343  0.4180 -0.9816  0.3831
12861SOL    HW141475   2.641   5.459   5.418 -0.5368  1.0868 -1.2228
12861SOL    HW241476   2.560   5.405   5.302  0.7747 -2.4119 -0.6183
12862SOL     OW41477   6.753   4.249   7.447 -0.1060  0.7403 -0.0054
12862SOL    HW141478   6.805   4.187   7.396  0.4964  1.1393  0.1086
12862SOL    HW241479   6.778   4.233   7.538 -2.4128 -1.1334  0.4090
12863SOL     OW41480   8.768   1.609   0.340  0.6608  0.2146  0.6771
12863SOL    HW141481   8.750   1.561   0.259 -0.3136  1.9145 -0.1657
12863SOL    HW241482   8.840   1.668   0.317  1.8430 -0.8035  1.6921
12864SOL     OW41483   5.672   4.467   2.498  0.1388  0.1360  0.2652
12864SOL    HW141484   5.648   4.400   2.434 -2.0657  0.1258  1.0374
12864SOL    HW241485   5.635   4.548   2.463 -1.9702 -0.0338  1.9259
12865SOL     OW41486   4.339   2.869   1.604  0.1566  0.2034  0.2139
12865SOL    HW141487   4.307   2.817   1.530  0.0481  1.4810 -0.6831
12865SOL    HW241488   4.310   2.821   1.681 -2.1799  0.2101 -0.5528
12866SOL     OW41489   7.088   5.392   3.239 -0.1491  0.0794  0.0230
12866SOL    HW141490   7.041   5.428   3.315  1.1729  1.5506  0.1966
12866SOL    HW241491   7.031   5.414   3.165 -0.9839 -0.5143  0.4613
12867SOL     OW41492   3.062   4.854   1.523 -0.3311  0.4917  0.1867
12867SOL    HW141493   3.099   4.858   1.435  0.1606  1.4271  0.4196
12867SOL    HW241494   3.012   4.772   1.524  0.6598 -0.1520 -0.5598
12868SOL     OW41495   0.400   9.576   2.056  0.0355 -0.2102 -0.1183
12868SOL    HW141496   0.476   9.633   2.065 -0.0751 -0.3552  3.5267
12868SOL    HW241497   0.418   9.504   2.116 -2.1813 -1.2058 -0.5677
12869SOL     OW41498   8.678   0.076   7.089 -0.6516  0.2792  0.3133
12869SOL    HW141499   8.614   0.073   7.161 -0.1056 -1.6712  0.7866
12869SOL    HW241500   8.762   0.056   7.131 -0.5062 -2.2854 -0.9680
12870SOL     OW41501   1.685   7.488   9.195 -0.2507  0.6267  0.3665
12870SOL    HW141502   1.671   7.512   9.103 -0.0053  1.4166  0.5276
12870SOL    HW241503   1.695   7.572   9.240 -1.2575  0.2874  1.2676
12871SOL     OW41504   6.541   8.190   0.626 -0.3562 -0.0168  0.7755
12871SOL    HW141505   6.501   8.217   0.709 -0.9800  0.6796  0.2674
12871SOL    HW241506   6.510   8.254   0.562  0.3602 -0.3584  0.0539
12872SOL     OW41507   5.833   0.861   3.686  0.0705 -0.4691 -0.2131
12872SOL    HW141508   5.766   0.908   3.636  2.2930  2.0594 -1.0603
12872SOL    HW241509   5.859   0.922   3.755  1.9487 -1.0522 -0.3483
12873SOL     OW41510   9.219   9.359   8.679  0.0292 -0.7899 -0.0838
12873SOL    HW141511   9.247   9.268   8.669  1.3413 -0.5756  1.3286
12873SOL    HW241512   9.273   9.407   8.617 -0.6752 -0.9571 -0.8413
12874SOL     OW41513   4.011   8.590   4.396  0.2151  0.6540 -0.3288
12874SOL    HW141514   4.012   8.499   4.365 -0.0362  1.1571 -1.9436
12874SOL    HW241515   3.958   8.588   4.475  0.7201 -0.7019 -0.0034
12875SOL     OW41516   8.580   3.438   4.612 -0.4028  1.1101  0.5811
12875SOL    HW141517   8.642   3.486   4.668  0.9342 -0.1695  0.2705
12875SOL    HW241518   8.627   3.426   4.530 -0.2939 -1.4566  0.9293
12876SOL     OW41519   8.768   6.167   2.910 -0.4957  0.5629  0.0506
12876SOL    HW141520   8.835   6.215   2.862 -1.5027  2.6497  0.6036
12876SOL    HW241521   8.713   6.235   2.949 -1.2930 -1.0597  1.9286
12877SOL     OW41522   5.198   6.706   1.595 -0.1188  0.0250  0.0346
12877SOL    HW141523   5.150   6.787   1.582  1.9658  1.2407 -0.5049
12877SOL    HW241524   5.259   6.724   1.666  1.9444 -0.2456 -1.5483
12878SOL     OW41525   0.011   1.072   1.529  0.2455  0.0054  0.4253
12878SOL    HW141526  -0.072   1.071   1.481 -0.7421 -0.0069  2.0586
12878SOL    HW241527   0.068   1.129   1.477 -0.1498 -1.4412 -1.7046
12879SOL     OW41528   2.141   5.296   6.129  0.3200 -0.4112  0.1734
12879SOL    HW141529   2.200   5.276   6.201  0.2688 -2.7857 -0.3687
12879SOL    HW241530   2.060   5.326   6.172  1.3290  1.4076  0.9472
12880SOL     OW41531   9.496   2.957   9.025 -0.6111 -0.0003  0.6181
12880SOL    HW141532   9.520   3.049   9.016  0.6994 -0.3552  0.1760
12880SOL    HW241533   9.493   2.924   8.935  0.0722 -0.6403  0.8154
12881SOL     OW41534   2.321   7.321   4.470 -0.8108  0.2447  0.6379
12881SOL    HW141535   2.367   7.300   4.389 -0.7471  0.5040  0.6036
12881SOL    HW241536   2.262   7.248   4.484 -1.6463  0.7222 -0.2538
12882SOL     OW41537   8.553   4.358   0.090 -0.1031  0.2326  0.0921
12882SOL    HW141538   8.637   4.312   0.086  1.1081  2.3416 -0.4879
12882SOL    HW241539   8.574   4.441   0.133 -2.0828  0.4838  0.6535
12883SOL     OW41540   3.424   0.829   1.457  0.1897  0.7306  0.0883
12883SOL    HW141541   3.467   0.906   1.495  0.3802  0.3234  0.7166
12883SOL    HW241542   3.355   0.807   1.520  1.0724 -0.4798  0.6832
12884SOL     OW41543   7.472   5.113   4.088  0.1808  0.3236  0.0340
12884SOL    HW141544   7.497   5.107   4.181  1.4497  1.6315 -0.1853
12884SOL    HW241545   7.436   5.201   4.079 -1.2443 -0.2902 -0.4459
12885SOL     OW41546   0.028   9.357   0.519 -0.1984 -0.4861 -1.0415
12885SOL    HW141547   0.097   9.292   0.508 -1.0886 -1.5647 -0.4230
12885SOL    HW241548  -0.047   9.321   0.473 -1.1356 -0.6073  0.5129
12886SOL     OW41549   9.035   2.621   1.132 -0.4049 -0.4568  0.3594
12886SOL    HW141550   8.988   2.621   1.215  0.0855 -0.1684  0.6430
12886SOL    HW241551   9.096   2.547   1.139  1.7990  1.3779  1.5245
12887SOL     OW41552   4.230   4.648   8.486  0.0429  0.1203 -0.3939
12887SOL    HW141553   4.195   4.632   8.574  1.1812 -1.7352 -0.2445
12887SOL    HW241554   4.319   4.615   8.489  0.2624  0.4778 -2.1298
12888SOL     OW41555   5.765   1.143   5.826 -0.5571  0.4270 -0.4834
12888SOL    HW141556   5.800   1.106   5.744 -0.4857  0.5513 -0.5094
12888SOL    HW241557   5.754   1.067   5.883  0.7939  0.5005 -0.0889
12889SOL     OW41558   7.569   9.327   6.040 -0.2832  0.4117  0.4917
12889SOL    HW141559   7.536   9.252   6.089 -1.1970  0.0496 -0.6549
12889SOL    HW241560   7.660   9.337   6.070 -0.2159 -0.9905  0.8282
12890SOL     OW41561   4.539   4.623   0.487  0.1305 -0.8387  0.0676
12890SOL    HW141562   4.565   4.604   0.396  0.5803 -0.8038  0.1834
12890SOL    HW241563   4.606   4.684   0.517 -0.6633  0.0594  0.0532
12891SOL     OW41564   0.216   6.420   8.094  0.0096  0.6935 -0.2332
12891SOL    HW141565   0.229   6.374   8.011  0.3959 -1.8129  1.1086
12891SOL    HW241566   0.192   6.509   8.069 -1.5574 -0.4030 -3.0297
12892SOL     OW41567   4.344   9.327   5.769  0.1308 -0.3131 -0.4722
12892SOL    HW141568   4.344   9.240   5.811  0.8064 -0.6278 -1.1098
12892SOL    HW241569   4.260   9.332   5.725  0.9178 -1.5472 -2.2219
12893SOL     OW41570   0.217   1.106   1.775 -0.1285  0.8740  0.3730
12893SOL    HW141571   0.129   1.076   1.754 -0.3753  2.6834 -1.5485
12893SOL    HW241572   0.213   1.129   1.868 -1.6185  0.7035  0.3789
12894SOL     OW41573   3.135   0.197   1.553  0.3559 -0.1892 -0.1741
12894SOL    HW141574   3.091   0.112   1.556 -0.2998  0.1119 -0.9135
12894SOL    HW241575   3.102   0.238   1.473 -0.5884  1.4304  1.0032
12895SOL     OW41576   2.116   5.545   1.870  0.1548  0.3139  0.3803
12895SOL    HW141577   2.151   5.498   1.945 -0.0597  1.7855  1.4652
12895SOL    HW241578   2.021   5.537   1.878  0.1424 -0.9906 -0.7516
12896SOL     OW41579   5.998   4.151   8.811  0.1672  1.3674 -0.0733
12896SOL    HW141580   5.905   4.171   8.808 -0.1763 -0.1905 -1.6536
12896SOL    HW241581   6.014   4.122   8.901 -1.2586  0.0857 -0.1971
12897SOL     OW41582   0.458   8.798   3.587  0.0118  0.0401 -0.4389
12897SOL    HW141583   0.391   8.856   3.623 -1.0542 -1.2355 -0.2892
12897SOL    HW241584   0.456   8.815   3.493 -1.1518 -0.5867 -0.5479
12898SOL     OW41585   0.946   9.151   8.503 -0.3359  0.1617 -0.4111
12898SOL    HW141586   0.980   9.145   8.414 -1.0785  1.4066 -0.8086
12898SOL    HW241587   0.982   9.232   8.538 -0.3359 -0.1375  0.3088
12899SOL     OW41588   4.749   5.920   5.708 -0.3429 -0.3547 -0.1437
12899SOL    HW141589   4.835   5.903   5.746 -0.0244 -0.0675 -0.7253
12899SOL    HW241590   4.768   5.951   5.620 -1.0486 -0.3854 -0.3088
12900SOL     OW41591   0.284   4.117   5.145 -0.6062  0.2301 -0.7096
12900SOL    HW141592   0.347   4.162   5.089 -1.0588  0.6009 -0.9345
12900SOL    HW241593   0.252   4.044   5.091 -1.2527  0.7552 -1.0569
12901SOL     OW41594   5.676   3.822   5.271  0.0793 -0.1706 -0.3113
12901SOL    HW141595   5.713   3.835   5.359  1.3248 -0.6906 -0.7246
12901SOL    HW241596   5.604   3.761   5.284 -0.8617  1.0696  0.5693
12902SOL     OW41597   7.144   0.336   8.858 -0.0028  0.1219  0.0087
12902SOL    HW141598   7.092   0.409   8.893 -0.1454  0.6713 -1.2936
12902SOL    HW241599   7.161   0.281   8.934 -1.5935  0.4797  0.6704
12903SOL     OW41600   6.333   1.734   4.515  0.1235  0.0922 -0.0767
12903SOL    HW141601   6.316   1.642   4.496 -1.3562  0.2612  0.2837
12903SOL    HW241602   6.256   1.780   4.481  0.3187  1.0657  0.7423
12904SOL     OW41603   7.630   8.580   0.077  0.1036 -0.3210  0.3243
12904SOL    HW141604   7.560   8.600   0.139 -1.2740 -0.0014 -1.2605
12904SOL    HW241605   7.703   8.636   0.104 -0.0603 -0.9685  2.2684
12905SOL     OW41606   9.562   7.619   6.433  0.0401 -0.1673 -0.2892
12905SOL    HW141607   9.496   7.565   6.476  0.0223  0.7699  0.9359
12905SOL    HW241608   9.521   7.705   6.427  0.8796  0.2526 -0.1431
12906SOL     OW41609   4.590   1.623   1.809  0.5531  0.0490 -0.3718
12906SOL    HW141610   4.537   1.644   1.733  1.5574  0.4737 -0.9762
12906SOL    HW241611   4.593   1.704   1.860  0.4059 -0.0511 -0.2023
12907SOL     OW41612   7.436   3.053   8.378  0.0853 -0.4844 -0.1250
12907SOL    HW141613   7.460   3.122   8.316  0.3088  0.9205  1.4525
12907SOL    HW241614   7.345   3.032   8.358  0.6806 -1.4233 -2.1150
12908SOL     OW41615   8.081   4.345   5.546  0.0639 -0.2599 -0.2125
12908SOL    HW141616   8.011   4.373   5.605 -0.0754  1.2112 -1.0159
12908SOL    HW241617   8.037   4.289   5.481 -0.3409  0.4480 -0.5648
12909SOL     OW41618   0.579   8.973   5.193  0.4574 -0.1351  0.2014
12909SOL    HW141619   0.640   9.047   5.195  1.0298 -0.6159  2.2059
12909SOL    HW241620   0.632   8.897   5.219 -0.3822 -1.0812 -0.7322
12910SOL     OW41621   3.623   1.637   5.326  0.0110  0.1292  0.3341
12910SOL    HW141622   3.674   1.632   5.246 -1.7094  0.7107 -0.8484
12910SOL    HW241623   3.673   1.696   5.383  1.0101  0.0750 -0.4575
12911SOL     OW41624   8.691   5.240   5.092  0.2477 -0.2852  0.0176
12911SOL    HW141625   8.605   5.212   5.123 -0.6137  0.7240 -1.3591
12911SOL    HW241626   8.736   5.272   5.170 -1.3618  0.9898  0.4640
12912SOL     OW41627   2.098   1.359   3.719  0.2581 -0.4487  0.1826
12912SOL    HW141628   2.090   1.350   3.814  0.3136  2.4884  0.5604
12912SOL    HW241629   2.015   1.327   3.685 -0.4090 -0.0646  1.3752
12913SOL     OW41630   1.728   1.766   0.548 -0.0158  0.6710 -0.0753
12913SOL    HW141631   1.706   1.715   0.626  0.8330  0.7118  0.1970
12913SOL    HW241632   1.646   1.810   0.525 -0.9907 -1.3674 -0.7576
12914SOL     OW41633   1.781   2.417   6.230  0.6020 -0.1586  0.8534
12914SOL    HW141634   1.727   2.490   6.199  1.2188  0.6222  1.5605
12914SOL    HW241635   1.754   2.405   6.321  0.3572 -0.9688  0.6817
12915SOL     OW41636   9.046   5.908   4.676 -0.1457  0.5126 -0.0168
12915SOL    HW141637   9.096   5.846   4.728  0.5409 -0.2823 -1.5682
12915SOL    HW241638   8.962   5.864   4.660  0.4202 -0.1630 -1.2987
12916SOL     OW41639   0.320   2.894   2.220  0.1526  0.7221  0.2631
12916SOL    HW141640   0.339   2.936   2.137 -0.5883  0.2555 -0.1575
12916SOL    HW241641   0.236   2.850   2.206  1.0770 -1.2421  0.5271
12917SOL     OW41642   1.631   1.517   1.192  0.0146 -0.2593 -0.6375
12917SOL    HW141643   1.590   1.496   1.108  2.3785 -1.5696 -1.5551
12917SOL    HW241644   1.558   1.528   1.253 -1.7300 -4.3315 -1.7133
12918SOL     OW41645   1.661   2.659   2.380  0.1112 -0.5520 -0.3319
12918SOL    HW141646   1.694   2.712   2.453  0.4874 -0.1747 -0.7716
12918SOL    HW241647   1.707   2.692   2.303 -0.2766 -0.9529 -0.7444
12919SOL     OW41648   7.017   0.153   8.488 -0.4030 -0.1915  0.0449
12919SOL    HW141649   6.959   0.223   8.520  0.4828  0.6911 -0.2174
12919SOL    HW241650   7.093   0.158   8.546 -0.6903 -1.5338  0.5719
12920SOL     OW41651   0.263   3.852   0.096 -0.1346  0.2658 -0.6128
12920SOL    HW141652   0.231   3.772   0.138 -0.7472  0.9662  0.2927
12920SOL    HW241653   0.189   3.913   0.101  0.7555  1.3328 -0.0838
12921SOL     OW41654   6.294   6.090   3.491 -0.1160 -0.2723  0.4160
12921SOL    HW141655   6.210   6.072   3.533 -1.1016  0.4647 -1.1781
12921SOL    HW241656   6.338   6.151   3.550 -0.6832 -0.6596  1.2554
12922SOL     OW41657   8.052   0.686   5.025  0.4199  0.4624 -0.2750
12922SOL    HW141658   7.980   0.627   5.047  0.9181 -0.1085 -0.1273
12922SOL    HW241659   8.094   0.645   4.949  0.2311  1.1009 -0.7302
12923SOL     OW41660   8.267   9.142   6.912  0.2344  0.1960 -0.5962
12923SOL    HW141661   8.310   9.172   6.992  0.6108  0.1954 -0.7943
12923SOL    HW241662   8.286   9.210   6.848 -0.6137  0.5077 -0.5181
12924SOL     OW41663   7.872   2.035   7.066 -0.5735  0.5398 -0.4578
12924SOL    HW141664   7.925   1.979   7.009  0.3161  0.6140  0.2690
12924SOL    HW241665   7.896   2.009   7.155 -2.0243  0.3557 -0.0947
12925SOL     OW41666   9.077   5.246   5.266  0.3458  0.3642 -0.2323
12925SOL    HW141667   9.088   5.226   5.173 -0.5025  0.4089 -0.3486
12925SOL    HW241668   9.078   5.161   5.309  1.1903  0.3696 -0.2244
12926SOL     OW41669   7.878   3.530   6.902  0.6400 -0.6066 -1.0574
12926SOL    HW141670   7.897   3.507   6.993 -0.9988  0.6046 -0.3604
12926SOL    HW241671   7.785   3.509   6.891 -0.1775  2.7027 -1.2935
12927SOL     OW41672   0.120   5.164   4.559  0.6781 -0.2614 -0.0029
12927SOL    HW141673   0.162   5.098   4.503 -2.0004 -1.4337 -0.7820
12927SOL    HW241674   0.032   5.174   4.523  0.3022  2.2857  1.3520
12928SOL     OW41675   6.876   8.450   6.133 -0.2608 -0.0759  0.2880
12928SOL    HW141676   6.799   8.490   6.093  0.2040 -0.6720 -1.2986
12928SOL    HW241677   6.902   8.382   6.071  1.5039  0.0804  0.8045
12929SOL     OW41678   8.363   5.550   5.126  0.3676  0.0930  0.1034
12929SOL    HW141679   8.297   5.617   5.109 -2.1130 -2.3103 -0.5012
12929SOL    HW241680   8.402   5.532   5.041 -0.3939 -0.5715 -0.1177
12930SOL     OW41681   6.013   0.689   5.629 -0.2238  0.4058 -0.3415
12930SOL    HW141682   5.997   0.776   5.665 -0.7415  0.1605  0.0438
12930SOL    HW241683   5.952   0.632   5.677 -0.7392  0.0262 -1.4012
12931SOL     OW41684   8.504   6.683   2.694  0.1368 -0.6092 -0.3246
12931SOL    HW141685   8.591   6.698   2.660  0.2415 -0.8399 -0.1643
12931SOL    HW241686   8.445   6.714   2.625  0.3383 -1.7037 -1.0178
12932SOL     OW41687   2.018   6.138   4.732  0.4286 -0.5467  0.5651
12932SOL    HW141688   2.098   6.129   4.783  0.9540  0.3425 -0.0842
12932SOL    HW241689   2.003   6.232   4.726 -0.7962 -0.7057  0.8637
12933SOL     OW41690   0.341   8.604   8.958 -0.2961  0.5108 -0.5134
12933SOL    HW141691   0.385   8.616   8.874  0.0599 -2.1579 -0.8059
12933SOL    HW241692   0.366   8.516   8.986  0.2905  1.6024  2.8535
12934SOL     OW41693   9.391   9.109   8.673  0.7061  0.3155  0.5857
12934SOL    HW141694   9.315   9.061   8.638  1.1554  0.5048 -0.6965
12934SOL    HW241695   9.437   9.044   8.725 -0.5541  0.3092  1.7496
12935SOL     OW41696   1.051   5.922   1.793 -0.1931 -0.0891  0.1487
12935SOL    HW141697   1.038   5.978   1.717 -1.2200 -0.1705  0.2574
12935SOL    HW241698   1.145   5.929   1.812 -0.3484  1.9541  0.4108
12936SOL     OW41699   7.073   1.995   1.972 -0.0216 -0.7069 -0.1774
12936SOL    HW141700   7.167   1.992   1.989  0.0490 -0.4541 -0.5240
12936SOL    HW241701   7.035   2.027   2.054  0.6235  4.0059 -1.4151
12937SOL     OW41702   7.178   7.354   1.965 -0.3155  0.6389  0.2715
12937SOL    HW141703   7.197   7.331   2.056 -0.2953 -0.8141 -0.0827
12937SOL    HW241704   7.214   7.442   1.954  3.1329 -0.5975  0.6181
12938SOL     OW41705   0.703   5.371   0.097  0.5824  0.0959 -0.1761
12938SOL    HW141706   0.694   5.309   0.169 -0.9846 -0.6911 -0.9854
12938SOL    HW241707   0.797   5.386   0.089  0.9536 -1.7294  0.4344
12939SOL     OW41708   8.290   3.645   8.769  0.1044  0.4599  0.1193
12939SOL    HW141709   8.319   3.588   8.698 -0.1759 -0.1237  0.4633
12939SOL    HW241710   8.369   3.690   8.798  0.2216  0.7136 -0.5597
12940SOL     OW41711   1.434   7.248   1.119 -0.1943 -0.1062 -0.8235
12940SOL    HW141712   1.525   7.218   1.129 -0.3830 -0.1987  0.8809
12940SOL    HW241713   1.440   7.323   1.060  1.4041  1.7437  1.5377
12941SOL     OW41714   1.358   6.356   5.771 -1.3163 -0.4099 -0.7556
12941SOL    HW141715   1.423   6.295   5.737  2.1434  2.5471 -0.1041
12941SOL    HW241716   1.360   6.430   5.711 -2.7048  0.6015  0.3625
12942SOL     OW41717   2.215   5.932   1.517  0.1590  0.2446  0.0337
12942SOL    HW141718   2.305   5.955   1.538 -0.0885  0.1995  1.2088
12942SOL    HW241719   2.205   5.842   1.546 -0.7556  0.8091  1.5804
12943SOL     OW41720   0.913   4.523   6.897 -0.3105 -0.1852  0.3338
12943SOL    HW141721   0.968   4.508   6.974 -1.2321 -1.3306  0.7971
12943SOL    HW241722   0.885   4.436   6.870  0.5285  0.1470 -1.7294
12944SOL     OW41723   9.258   4.168   3.763 -0.2165 -0.8465  0.9213
12944SOL    HW141724   9.201   4.177   3.686  0.4162 -1.0373  0.4235
12944SOL    HW241725   9.215   4.221   3.830 -0.7868 -0.6851  0.4399
12945SOL     OW41726   8.780   9.352   7.409  0.2876 -0.8468  0.7619
12945SOL    HW141727   8.687   9.354   7.435  0.1358  2.7590  0.5185
12945SOL    HW241728   8.778   9.334   7.315 -0.2483 -0.0133  0.6053
12946SOL     OW41729   5.153   1.819   8.238  0.3588 -0.6727  0.4908
12946SOL    HW141730   5.161   1.824   8.142  2.3898 -2.4178  0.4972
12946SOL    HW241731   5.087   1.885   8.260 -0.2638 -0.3166 -2.1161
12947SOL     OW41732   9.409   3.625   1.650 -0.5881 -0.1677 -0.1170
12947SOL    HW141733   9.374   3.554   1.703 -0.6969  0.6603  0.9472
12947SOL    HW241734   9.497   3.597   1.627 -1.0164 -1.1277 -0.6540
12948SOL     OW41735   6.692   3.533   6.187 -0.2402 -0.5356 -0.1265
12948SOL    HW141736   6.728   3.617   6.214  0.6717 -1.1022  0.4649
12948SOL    HW241737   6.599   3.538   6.212 -0.6163  0.9154 -1.6101
12949SOL     OW41738   9.437   1.540   5.655  0.1838  0.0611  0.1256
12949SOL    HW141739   9.453   1.537   5.750 -2.4308  0.7817  0.6784
12949SOL    HW241740   9.419   1.632   5.638 -0.8502 -0.2969 -0.7809
12950SOL     OW41741   2.017   3.467   3.562 -0.3310 -0.0686  0.5454
12950SOL    HW141742   1.973   3.388   3.594 -1.0218 -0.3187 -0.9860
12950SOL    HW241743   2.109   3.454   3.588 -0.6737 -0.7251  1.5054
12951SOL     OW41744   5.424   1.880   0.215 -0.4095  0.1312  0.1159
12951SOL    HW141745   5.380   1.911   0.136 -0.8506 -0.6004  0.0655
12951SOL    HW241746   5.389   1.935   0.285 -1.0287 -0.1142  0.0034
12952SOL     OW41747   2.026   9.552   3.096  0.5594 -0.0770 -0.0142
12952SOL    HW141748   2.067   9.497   3.029  2.1432 -1.5348  1.9957
12952SOL    HW241749   1.996   9.489   3.162 -3.2619  1.0819 -0.3803
12953SOL     OW41750   8.772   2.803   6.512 -0.5694  0.0220  0.1017
12953SOL    HW141751   8.857   2.834   6.544  0.6378 -1.4804 -1.4996
12953SOL    HW241752   8.714   2.812   6.587  1.6048 -1.3023  2.0647
12954SOL     OW41753   6.989   4.754   8.222 -0.3486  0.2772 -0.0396
12954SOL    HW141754   7.029   4.809   8.289  0.5164 -0.0628 -0.2690
12954SOL    HW241755   7.057   4.691   8.198 -2.2935 -3.1109  2.5638
12955SOL     OW41756   9.225   6.631   7.361  0.1883  0.2917 -0.9606
12955SOL    HW141757   9.142   6.588   7.338 -0.9031  2.4816 -1.3801
12955SOL    HW241758   9.200   6.697   7.426  1.8224  0.2159 -0.2090
12956SOL     OW41759   9.380   4.478   8.938  0.8561 -0.5509 -0.2775
12956SOL    HW141760   9.408   4.406   8.882 -0.0480 -0.9402 -0.2320
12956SOL    HW241761   9.389   4.444   9.028 -0.8333 -1.0998 -0.2862
12957SOL     OW41762   0.493   7.821   0.718  0.0363  0.0633 -0.7774
12957SOL    HW141763   0.562   7.886   0.730  0.5677 -0.3783 -1.3791
12957SOL    HW241764   0.430   7.863   0.659  0.5919 -0.1301 -1.5056
12958SOL     OW41765   7.148   5.714   6.880  0.1795 -0.1115  0.3285
12958SOL    HW141766   7.127   5.751   6.795 -1.6925  1.0475  1.2317
12958SOL    HW241767   7.064   5.686   6.916  0.6252  1.0455  2.4836
12959SOL     OW41768   5.399   2.971   6.591  0.1860  0.0498 -0.7517
12959SOL    HW141769   5.357   2.919   6.522 -0.1562 -1.7600  0.7662
12959SOL    HW241770   5.328   2.996   6.649  0.2958  2.5793 -1.5928
12960SOL     OW41771   7.521   3.272   5.380  0.4413  0.3958  0.3670
12960SOL    HW141772   7.533   3.178   5.370 -1.8251 -0.2492  2.4907
12960SOL    HW241773   7.596   3.312   5.335  2.1644 -2.4344  0.5155
12961SOL     OW41774   6.265   1.802   5.102 -0.2515  0.4233 -0.1265
12961SOL    HW141775   6.306   1.883   5.072  0.5899  0.3904  0.8569
12961SOL    HW241776   6.339   1.743   5.119 -0.7492  0.0199  0.7284
12962SOL     OW41777   8.674   0.558   7.533 -0.2897  0.5013 -0.8706
12962SOL    HW141778   8.623   0.521   7.604 -0.9992  0.5072 -1.3650
12962SOL    HW241779   8.672   0.653   7.548 -0.6596  0.5224 -1.0363
12963SOL     OW41780   8.378   7.226   4.441 -0.4081  0.0391  0.0180
12963SOL    HW141781   8.350   7.207   4.530  1.1071 -0.2215  0.4676
12963SOL    HW241782   8.396   7.140   4.403 -0.0938  0.2019 -0.2083
12964SOL     OW41783   1.466   6.093   0.962  0.7514  0.4344 -0.1106
12964SOL    HW141784   1.471   5.999   0.980 -1.5935  0.2478 -0.0792
12964SOL    HW241785   1.513   6.105   0.880  0.6690 -0.8585 -0.3615
12965SOL     OW41786   1.713   3.217   1.171  0.9990  0.4323  0.5791
12965SOL    HW141787   1.631   3.258   1.200  1.1389  0.7369  0.5529
12965SOL    HW241788   1.746   3.171   1.247  0.4466 -0.2872  0.4030
12966SOL     OW41789   0.264   2.142   1.225 -0.6872  0.3968  0.1035
12966SOL    HW141790   0.310   2.158   1.307  0.8733  0.6581 -0.7802
12966SOL    HW241791   0.172   2.144   1.249 -0.2676 -0.3270  1.9906
12967SOL     OW41792   4.606   2.713   9.224 -0.2272 -0.3116  0.0275
12967SOL    HW141793   4.571   2.625   9.241 -2.3347  0.5176  0.2875
12967SOL    HW241794   4.696   2.698   9.196 -1.0698 -2.6990 -1.7518
12968SOL     OW41795   8.246   5.223   5.503 -0.8105  0.2499 -0.5441
12968SOL    HW141796   8.295   5.257   5.427 -1.4420 -1.1502 -1.6297
12968SOL    HW241797   8.245   5.128   5.490 -0.0461 -0.1485  1.8026
12969SOL     OW41798   2.333   1.788   5.944 -0.3761 -0.3999 -0.0661
12969SOL    HW141799   2.324   1.704   5.988  0.7599 -0.8093 -0.5653
12969SOL    HW241800   2.309   1.770   5.853 -1.7292  0.2066  0.1490
12970SOL     OW41801   9.626   5.724   2.420 -0.2024  0.4039 -0.9517
12970SOL    HW141802   9.698   5.750   2.364  0.1432 -1.3351 -1.3564
12970SOL    HW241803   9.581   5.806   2.441  0.4709  1.2382 -2.6351
12971SOL     OW41804   4.786   0.009   5.898 -0.5572 -0.2042  0.3018
12971SOL    HW141805   4.720  -0.060   5.905 -0.2180 -0.6786 -0.9441
12971SOL    HW241806   4.750   0.070   5.834  0.1682 -0.4268 -0.3275
12972SOL     OW41807   7.280   2.916   7.506 -0.3116  0.1216 -0.1329
12972SOL    HW141808   7.282   3.009   7.483  0.5367  0.0081 -0.5632
12972SOL    HW241809   7.323   2.911   7.591 -1.2340  0.2356  0.3501
12973SOL     OW41810   8.508   8.986   1.325 -0.0526  0.0333  0.3503
12973SOL    HW141811   8.512   8.950   1.236 -0.8392  0.3597  0.1739
12973SOL    HW241812   8.595   9.022   1.340 -0.2748  1.1463 -0.8088
12974SOL     OW41813   4.292   5.320   8.673 -0.3590 -0.2777 -0.5328
12974SOL    HW141814   4.250   5.261   8.611 -1.8030 -1.8109  1.7434
12974SOL    HW241815   4.376   5.341   8.633 -0.2350 -3.0430 -1.9559
12975SOL     OW41816   8.579   1.874   7.887 -0.0090  0.6136  0.0323
12975SOL    HW141817   8.635   1.934   7.937  0.0215  1.8486 -1.3970
12975SOL    HW241818   8.640   1.821   7.836 -0.0403 -0.6486  1.2322
12976SOL     OW41819   1.522   1.095   5.447  0.0984 -0.1590  0.5434
12976SOL    HW141820   1.529   1.186   5.416 -0.8472 -0.3251 -0.2107
12976SOL    HW241821   1.612   1.068   5.463  0.3403  1.2227  1.7205
12977SOL     OW41822   4.217   0.946   4.973  0.0656  0.2131  0.2292
12977SOL    HW141823   4.208   0.931   4.879 -2.1550 -0.3603  0.4778
12977SOL    HW241824   4.298   0.997   4.982  0.6328 -0.2393 -1.9141
12978SOL     OW41825   8.434   5.129   4.685  0.3030  0.1417  0.1714
12978SOL    HW141826   8.425   5.115   4.779  0.5493  0.9700  0.3274
12978SOL    HW241827   8.465   5.045   4.651  2.2059  0.3961  1.1356
12979SOL     OW41828   6.000   8.002   1.226  0.1361 -0.3359 -0.5303
12979SOL    HW141829   5.915   7.968   1.255  0.8737 -1.0835  0.8186
12979SOL    HW241830   5.977   8.078   1.172 -1.4041 -0.7678 -0.5452
12980SOL     OW41831   5.181   2.901   2.137 -0.3445 -0.0554  0.9850
12980SOL    HW141832   5.154   2.975   2.083 -1.2581 -1.0840 -0.0063
12980SOL    HW241833   5.102   2.875   2.185 -0.3082 -1.0094  0.5603
12981SOL     OW41834   4.448   1.981   2.895 -0.4097  0.7939 -0.1674
12981SOL    HW141835   4.524   1.978   2.838  0.6283 -1.0732  1.2314
12981SOL    HW241836   4.377   1.942   2.843  0.5751 -1.1072 -0.1535
12982SOL     OW41837   5.490   2.019   4.496 -0.1968 -0.3058 -0.1269
12982SOL    HW141838   5.469   1.928   4.481 -3.4394  0.5205 -1.3605
12982SOL    HW241839   5.531   2.049   4.415 -1.4296 -0.1158 -0.7023
12983SOL     OW41840   4.441   7.225   4.242  0.3022 -0.5377 -0.6137
12983SOL    HW141841   4.440   7.285   4.167 -1.9760  0.2146 -0.0613
12983SOL    HW241842   4.513   7.257   4.296  0.6688  0.1807 -1.4841
12984SOL     OW41843   4.539   9.122   0.596  0.1195  0.3614  0.2813
12984SOL    HW141844   4.596   9.193   0.625  0.5012 -0.0240  0.4941
12984SOL    HW241845   4.500   9.153   0.515 -0.0846  1.0011  0.6227
12985SOL     OW41846   0.092   8.277   2.776  0.3752 -0.1080 -0.3957
12985SOL    HW141847   0.169   8.319   2.814 -0.1012  0.1582  0.3014
12985SOL    HW241848   0.109   8.276   2.682  2.5886 -2.8032 -0.0764
12986SOL     OW41849   6.457   6.732   6.484 -0.0556 -0.0921 -0.6748
12986SOL    HW141850   6.532   6.766   6.436  0.3095 -0.6824 -0.5233
12986SOL    HW241851   6.381   6.762   6.433  0.1892  1.8841  0.0391
12987SOL     OW41852   4.904   0.184   9.191  0.5719  0.0471  0.2182
12987SOL    HW141853   4.918   0.278   9.179  1.2691  0.1456  1.5319
12987SOL    HW241854   4.940   0.166   9.278  0.3439 -1.4185  0.0342
12988SOL     OW41855   7.503   7.788   0.307 -0.1106 -0.2964 -0.3771
12988SOL    HW141856   7.449   7.853   0.261 -1.3920 -0.9006  0.2215
12988SOL    HW241857   7.452   7.707   0.301  0.3132 -0.6825  0.9827
12989SOL     OW41858   1.599   2.358   2.410 -0.1145 -0.0970 -0.0114
12989SOL    HW141859   1.613   2.453   2.412 -2.0385  0.2131  0.0352
12989SOL    HW241860   1.611   2.330   2.501 -1.1799  0.3735  0.2844
12990SOL     OW41861   4.214   9.286   7.787 -0.1077 -0.8078 -0.3359
12990SOL    HW141862   4.211   9.223   7.859 -0.1838 -0.4958 -0.0630
12990SOL    HW241863   4.141   9.262   7.731 -2.4099  1.1984  1.5945
12991SOL     OW41864   0.930   4.295   8.998 -0.0860 -0.4757 -0.2992
12991SOL    HW141865   0.843   4.266   8.974 -0.3070 -0.1038  0.0323
12991SOL    HW241866   0.973   4.217   9.033  0.2272 -1.0181 -1.8079
12992SOL     OW41867   2.940   0.777   7.945  0.2238 -0.1120 -0.1357
12992SOL    HW141868   2.895   0.795   8.027 -1.3536  0.1853 -1.0242
12992SOL    HW241869   2.921   0.685   7.927  0.3407 -0.1040 -0.3047
12993SOL     OW41870   8.115   1.442   0.219 -0.1810 -0.4105  0.1918
12993SOL    HW141871   8.197   1.455   0.267  2.0366  0.3267 -3.4068
12993SOL    HW241872   8.078   1.530   0.211  0.2377 -0.3010 -0.6359
12994SOL     OW41873   8.711   6.429   8.410 -0.5052 -0.4642  0.1981
12994SOL    HW141874   8.779   6.373   8.372 -0.7141 -1.5400  1.3445
12994SOL    HW241875   8.680   6.381   8.486 -0.8991  1.1065  1.0756
12995SOL     OW41876   2.416   1.689   0.460 -0.2530  0.3415 -0.3578
12995SOL    HW141877   2.482   1.633   0.420  0.1533  0.4684  0.1256
12995SOL    HW241878   2.367   1.631   0.519 -0.3797  0.3101 -0.4949
12996SOL     OW41879   6.846   4.516   5.514 -0.0847 -0.1927  0.2189
12996SOL    HW141880   6.895   4.584   5.467  1.3477 -2.0681 -1.1588
12996SOL    HW241881   6.781   4.564   5.566  1.2824  2.2384 -0.1841
12997SOL     OW41882   3.984   6.344   5.123 -0.2919  0.2289  0.2000
12997SOL    HW141883   3.901   6.319   5.082  0.7756 -0.8478 -1.4280
12997SOL    HW241884   4.006   6.428   5.083 -0.7566  0.6846  0.8925
12998SOL     OW41885   7.838   0.955   2.834 -0.2512 -0.1647  0.0924
12998SOL    HW141886   7.778   0.998   2.895 -0.7402 -0.2269 -0.3370
12998SOL    HW241887   7.780   0.911   2.771  0.2230 -1.5134  0.5609
12999SOL     OW41888   0.608   9.073   7.803  0.6184  0.8590  0.3254
12999SOL    HW141889   0.604   9.023   7.884  0.2520 -0.1253 -0.2795
12999SOL    HW241890   0.702   9.075   7.782  0.7790  1.6437  1.0784
13000SOL     OW41891   2.840   8.227   5.792 -0.9547 -0.1824 -0.2211
13000SOL    HW141892   2.773   8.294   5.783 -0.3786  0.2471 -1.4850
13000SOL    HW241893   2.915   8.261   5.744 -0.1921 -1.1415  0.2491
13001SOL     OW41894   8.139   5.420   7.959 -0.1515 -0.0882 -0.3698
13001SOL    HW141895   8.190   5.351   8.002 -0.4896 -0.3529 -0.3848
13001SOL    HW241896   8.063   5.433   8.017 -0.2164  0.0939 -0.4954
13002SOL     OW41897   2.614   9.029   1.812 -0.0113  0.3712  0.2378
13002SOL    HW141898   2.686   9.069   1.764  0.7128  1.6324  2.2571
13002SOL    HW241899   2.637   9.039   1.904 -2.8048  0.9200  0.9790
13003SOL     OW41900   2.439   4.292   3.119  0.5748  0.1650 -0.4683
13003SOL    HW141901   2.444   4.375   3.165  1.0155  0.1861 -0.5512
13003SOL    HW241902   2.518   4.244   3.145  0.6105  0.0027 -0.8563
13004SOL     OW41903   7.306   7.487   2.915 -0.1207  0.0461  0.0830
13004SOL    HW141904   7.256   7.405   2.912 -1.7123  0.9579  0.0964
13004SOL    HW241905   7.340   7.492   3.004 -3.2586  1.1416  1.3698
13005SOL     OW41906   3.251   1.664   9.070  0.1817  0.1488 -0.3500
13005SOL    HW141907   3.324   1.623   9.117  0.6181  0.3954 -0.7993
13005SOL    HW241908   3.200   1.707   9.138 -0.2548 -1.0812  0.1246
13006SOL     OW41909   9.022   4.779   5.368 -0.5192  0.4059 -0.1324
13006SOL    HW141910   9.095   4.770   5.307  0.6735  1.4319  1.0748
13006SOL    HW241911   9.011   4.691   5.404  1.0910  0.4861  0.6743
13007SOL     OW41912   9.119   0.725   3.675 -0.2424 -0.2835 -0.2224
13007SOL    HW141913   9.098   0.780   3.750  0.1885  1.0436 -1.0350
13007SOL    HW241914   9.039   0.727   3.622  0.6191  1.9485 -1.6240
13008SOL     OW41915   2.788   6.538   9.093  0.1137  0.0580 -0.7466
13008SOL    HW141916   2.847   6.470   9.125  0.5295  0.7486 -0.0177
13008SOL    HW241917   2.701   6.511   9.122  0.5270  0.9176  1.4880
13009SOL     OW41918   5.417   8.925   4.728 -0.3907 -0.1272  0.1197
13009SOL    HW141919   5.415   8.833   4.700 -0.2274 -0.0684 -0.0852
13009SOL    HW241920   5.391   8.974   4.650 -0.1312  0.0237  0.1293
13010SOL     OW41921   7.060   5.678   5.046 -0.0820 -0.4126 -0.3253
13010SOL    HW141922   7.104   5.593   5.053  0.2025 -0.2008  0.6486
13010SOL    HW241923   7.123   5.740   5.083 -0.0987  0.2982 -1.4584
13011SOL     OW41924   8.721   7.679   2.938  0.1412 -0.9618  0.1416
13011SOL    HW141925   8.664   7.749   2.905  1.8271 -0.9893 -3.1557
13011SOL    HW241926   8.696   7.602   2.887  1.7102 -1.4820  0.1276
13012SOL     OW41927   4.574   2.977   8.681  0.1567 -0.2727 -0.0070
13012SOL    HW141928   4.579   2.993   8.587  0.8903 -1.2484 -0.1640
13012SOL    HW241929   4.520   2.898   8.689  1.1090 -0.9260  0.2639
13013SOL     OW41930   5.555   5.019   4.331  0.3569  0.5362  0.5592
13013SOL    HW141931   5.560   4.985   4.241 -0.2290  0.9464  0.3643
13013SOL    HW241932   5.600   4.953   4.384  0.4638  0.1505  0.0025
13014SOL     OW41933   3.806   7.995   1.066  0.1314  0.3143 -0.0441
13014SOL    HW141934   3.787   7.911   1.108  1.4230 -0.3943 -0.8197
13014SOL    HW241935   3.734   8.007   1.004  1.3889 -1.6702 -2.0083
13015SOL     OW41936   9.104   0.690   2.193 -0.3782 -0.1089  0.0450
13015SOL    HW141937   9.032   0.685   2.131  0.5553 -0.3212 -1.0528
13015SOL    HW241938   9.106   0.605   2.236 -0.3133 -0.3732 -0.4741
13016SOL     OW41939   8.457   1.203   4.444  0.0390  0.2023  0.0872
13016SOL    HW141940   8.526   1.247   4.494 -0.2130  1.6275 -0.7734
13016SOL    HW241941   8.425   1.135   4.503  1.2971  0.3455  0.9888
13017SOL     OW41942   5.655   4.837   9.262  0.3402 -0.3160  0.1895
13017SOL    HW141943   5.658   4.926   9.299  1.4464  0.3857 -1.4565
13017SOL    HW241944   5.747   4.811   9.255  0.1436 -0.6906 -1.3763
13018SOL     OW41945   4.757   6.058   0.133  0.2273  0.0847  0.5742
13018SOL    HW141946   4.705   6.061   0.053  1.1267 -1.3097 -0.0980
13018SOL    HW241947   4.711   5.995   0.189  0.4145 -0.0741  0.5505
13019SOL     OW41948   3.166   5.141   6.337 -0.2832 -0.6536  0.3381
13019SOL    HW141949   3.185   5.211   6.276  1.5932 -1.7235 -0.4123
13019SOL    HW241950   3.085   5.167   6.380 -1.1182  0.6172 -1.8590
13020SOL     OW41951   8.602   1.069   4.795 -0.0177 -0.4537 -0.5042
13020SOL    HW141952   8.510   1.077   4.771 -0.4005  2.0473  1.2992
13020SOL    HW241953   8.647   1.129   4.735  0.4873 -1.7289 -1.4332
13021SOL     OW41954   7.168   6.233   0.618 -0.0889 -0.0901 -0.1035
13021SOL    HW141955   7.132   6.322   0.613  0.0683  0.0320  0.7274
13021SOL    HW241956   7.260   6.245   0.639 -0.3706 -0.4457  1.5159
13022SOL     OW41957   4.597   2.461   1.038 -0.4979  0.4783  0.1166
13022SOL    HW141958   4.590   2.365   1.032  2.4350  0.1533  0.4446
13022SOL    HW241959   4.674   2.482   0.986 -2.3889  3.0274 -1.9772
13023SOL     OW41960   8.842   6.410   4.854  0.3542 -0.3784 -0.2575
13023SOL    HW141961   8.917   6.454   4.815  0.1783  0.3478  0.2002
13023SOL    HW241962   8.767   6.466   4.834 -0.0153 -0.9188 -0.4138
13024SOL     OW41963   6.772   2.272   4.323 -0.8206  0.2895 -0.3011
13024SOL    HW141964   6.685   2.278   4.285 -1.8887  1.5780  2.0847
13024SOL    HW241965   6.765   2.320   4.406  1.8153 -0.6825  0.5932
13025SOL     OW41966   7.862   7.200   5.578 -0.1305 -0.1962 -0.0715
13025SOL    HW141967   7.777   7.236   5.552  0.1625 -0.3093 -1.2386
13025SOL    HW241968   7.908   7.273   5.618 -1.4023 -0.5477  2.1812
13026SOL     OW41969   5.486   2.593   6.152  0.0127 -0.1053 -0.4223
13026SOL    HW141970   5.523   2.587   6.240 -0.4872 -0.4007 -0.2226
13026SOL    HW241971   5.396   2.562   6.162 -0.2670  0.5317 -0.9058
13027SOL     OW41972   6.023   2.163   3.909  0.4047 -1.0883 -0.2247
13027SOL    HW141973   6.112   2.131   3.927 -0.0051 -1.6462  0.8886
13027SOL    HW241974   6.027   2.194   3.819  1.5762 -1.6760 -0.3966
13028SOL     OW41975   6.378   8.172   0.840 -0.6890  0.0032 -0.4582
13028SOL    HW141976   6.346   8.253   0.880 -0.8597 -0.3581  0.1428
13028SOL    HW241977   6.418   8.124   0.912  1.4640  0.5418 -1.2087
13029SOL     OW41978   9.217   5.161   0.447 -0.2261 -0.3243  0.7455
13029SOL    HW141979   9.188   5.195   0.363  0.4435 -2.1134 -0.2754
13029SOL    HW241980   9.145   5.180   0.507 -1.1814  0.0603 -0.4740
13030SOL     OW41981   3.838   2.315   4.097 -0.3610 -0.4335 -0.2522
13030SOL    HW141982   3.896   2.241   4.081 -0.7254 -0.8785  0.4116
13030SOL    HW241983   3.831   2.359   4.012  0.9256 -0.3718 -0.3407
13031SOL     OW41984   8.298   8.484   6.010  0.8568 -0.2397 -0.6506
13031SOL    HW141985   8.309   8.390   6.027 -0.7713 -0.2966  0.3290
13031SOL    HW241986   8.292   8.523   6.097  0.3573  0.6039 -1.0517
13032SOL     OW41987   5.915   8.454   1.090 -0.2562  0.0137 -0.5760
13032SOL    HW141988   5.894   8.520   1.024  0.1422 -2.1878 -3.0614
13032SOL    HW241989   6.005   8.472   1.115 -0.9221  1.8598  0.6844
13033SOL     OW41990   8.415   7.282   1.811  0.5322  0.0477 -0.0130
13033SOL    HW141991   8.437   7.189   1.808 -1.0032 -0.5316  2.7631
13033SOL    HW241992   8.352   7.294   1.740 -0.2622 -1.4150  0.3933
13034SOL     OW41993   6.912   2.683   8.186 -0.0035  0.4450  0.2543
13034SOL    HW141994   6.859   2.717   8.114  0.1759  0.9609  0.3543
13034SOL    HW241995   6.904   2.750   8.255 -0.7536 -0.3854  0.9935
13035SOL     OW41996   6.906   6.114   0.569 -0.1116 -0.1687 -0.1699
13035SOL    HW141997   6.990   6.158   0.581 -0.0244 -0.5292  0.5579
13035SOL    HW241998   6.857   6.173   0.511  0.9501 -0.3708 -1.3288
13036SOL     OW41999   8.524   7.781   7.407 -0.3369 -0.6350 -0.1846
13036SOL    HW142000   8.430   7.798   7.417 -0.0746  1.0845 -0.3528
13036SOL    HW242001   8.567   7.856   7.450  0.9310 -0.6167 -1.4174
13037SOL     OW42002   2.969   4.159   6.282  0.2961 -0.1587  0.0075
13037SOL    HW142003   2.958   4.091   6.349  0.1797  0.4995  0.6745
13037SOL    HW242004   2.932   4.121   6.203  0.6582 -1.0500  0.2495
13038SOL     OW42005   4.874   8.480   4.018 -0.0342  0.2876  0.0203
13038SOL    HW142006   4.781   8.506   4.014 -0.1897  0.4269  2.7940
13038SOL    HW242007   4.871   8.387   4.041  0.5467  0.0696 -0.7563
13039SOL     OW42008   7.972   6.911   5.781 -0.0586 -0.0226 -0.1823
13039SOL    HW142009   7.903   6.887   5.842  1.8776 -0.0013  2.1602
13039SOL    HW242010   7.926   6.945   5.704 -2.6121 -0.6528  0.9724
13040SOL     OW42011   2.066   9.174   2.389  0.0755 -0.0876  0.6178
13040SOL    HW142012   2.146   9.176   2.442 -0.2417 -0.6905  1.1244
13040SOL    HW242013   2.043   9.081   2.383  0.4366 -0.1073 -1.0897
13041SOL     OW42014   0.067   5.987   3.844 -0.3335  0.0572 -0.1762
13041SOL    HW142015  -0.023   5.988   3.876 -0.6725  0.2765 -1.0805
13041SOL    HW242016   0.073   5.909   3.788  0.5503 -0.9077  1.2047
13042SOL     OW42017   2.980   4.885   3.650 -0.2601 -0.5206 -0.0655
13042SOL    HW142018   2.932   4.864   3.730  0.9118 -0.9222  0.5644
13042SOL    HW242019   2.966   4.979   3.638 -3.0123 -0.9835 -1.1800
13043SOL     OW42020   7.698   2.487   9.460 -0.1516  0.6649 -0.0863
13043SOL    HW142021   7.647   2.415   9.423 -0.4165  2.0711 -2.6771
13043SOL    HW242022   7.640   2.563   9.453  0.3441  1.3036  2.0184
13044SOL     OW42023   6.808   4.470   0.460  0.6452  0.5169 -0.1644
13044SOL    HW142024   6.727   4.420   0.453  1.5285 -1.3310  1.6211
13044SOL    HW242025   6.854   4.452   0.377  0.3795 -0.6572 -0.0744
13045SOL     OW42026   0.799   3.822   8.987 -0.5226  0.1070  0.4526
13045SOL    HW142027   0.706   3.831   9.008 -0.6202  2.5003 -0.6854
13045SOL    HW242028   0.824   3.737   9.024 -3.6442 -1.6426 -1.0663
13046SOL     OW42029   6.495   3.980   8.667 -0.0848 -0.4238 -0.2712
13046SOL    HW142030   6.432   3.943   8.605  0.6422  1.5126 -2.3173
13046SOL    HW242031   6.447   4.048   8.714  0.4061  1.1974 -1.9787
13047SOL     OW42032   7.926   0.204   9.354 -0.6028  0.3282 -0.5288
13047SOL    HW142033   8.021   0.198   9.347 -0.4003 -1.4307  2.2992
13047SOL    HW242034   7.893   0.165   9.273  1.0769  0.2269 -1.1849
13048SOL     OW42035   1.161   3.628   0.191 -0.3962 -0.1577 -0.2957
13048SOL    HW142036   1.233   3.689   0.204  1.2295 -2.3532  1.8135
13048SOL    HW242037   1.087   3.667   0.237  0.5881  0.2521  0.9668
13049SOL     OW42038   9.089   1.077   5.186 -0.3451  0.0656 -0.6108
13049SOL    HW142039   9.025   1.012   5.214  0.5280 -0.6369 -0.1904
13049SOL    HW242040   9.037   1.154   5.163 -1.5199 -1.2049 -2.4494
13050SOL     OW42041   7.949   7.477   3.755  0.2199 -0.0040  0.1402
13050SOL    HW142042   8.008   7.444   3.823  0.9927 -0.8554 -0.9055
13050SOL    HW242043   7.880   7.523   3.803  1.0031 -0.1679  1.4647
13051SOL     OW42044   2.688   5.802   9.420 -0.7883  0.2543 -0.4368
13051SOL    HW142045   2.663   5.774   9.508 -0.5456 -0.8416 -0.7068
13051SOL    HW242046   2.747   5.876   9.435  0.2206 -0.6776  0.3717
13052SOL     OW42047   9.485   8.181   7.746 -0.0647 -0.1931 -0.0790
13052SOL    HW142048   9.493   8.217   7.835  0.4344 -1.8722  0.6003
13052SOL    HW242049   9.545   8.234   7.694  0.0509  0.4732  0.7019
13053SOL     OW42050   8.133   0.093   4.641 -0.3677 -0.2991 -0.1632
13053SOL    HW142051   8.131   0.148   4.719 -0.7368  1.0572 -1.0835
13053SOL    HW242052   8.172   0.010   4.670 -1.1110 -0.0733  1.5837
13054SOL     OW42053   5.575   1.809   7.170  0.0535 -0.3477 -0.5576
13054SOL    HW142054   5.663   1.845   7.183 -0.0402 -0.2048 -0.3092
13054SOL    HW242055   5.588   1.714   7.165  0.4440 -0.2370 -2.3764
13055SOL     OW42056   9.582   1.971   9.011 -0.4041  0.1744 -0.0538
13055SOL    HW142057   9.518   1.998   9.076  0.6224 -1.1040  1.5829
13055SOL    HW242058   9.664   2.012   9.039  0.0801 -0.4800 -0.4723
13056SOL     OW42059   4.332   7.861   6.922 -0.0809  0.1493  0.0276
13056SOL    HW142060   4.267   7.925   6.892  0.7069  0.7978 -0.3145
13056SOL    HW242061   4.328   7.866   7.018 -0.6363  0.0765  0.0136
13057SOL     OW42062   5.096   8.204   4.933 -0.1524  0.4018 -0.2682
13057SOL    HW142063   5.071   8.117   4.963 -0.2559  0.6058  0.2385
13057SOL    HW242064   5.014   8.246   4.909 -0.1371  0.4893 -0.1659
13058SOL     OW42065   6.365   4.383   2.679  0.1788  0.1858 -0.2571
13058SOL    HW142066   6.377   4.324   2.753  0.1828  1.8082  1.1078
13058SOL    HW242067   6.270   4.395   2.674  0.2554  2.5347  1.6479
13059SOL     OW42068   2.880   2.200   8.654 -0.0954  0.3326  0.1918
13059SOL    HW142069   2.853   2.288   8.626  0.2530 -0.0153 -1.3055
13059SOL    HW242070   2.900   2.154   8.573 -0.6402 -1.2708  0.9384
13060SOL     OW42071   0.787   0.916   4.824 -0.4361 -0.2135 -0.0647
13060SOL    HW142072   0.857   0.863   4.786 -0.4910 -0.2483 -0.1165
13060SOL    HW242073   0.706   0.876   4.792 -0.4690  0.3731 -0.7246
13061SOL     OW42074   6.094   2.946   1.956 -0.1628  0.1299  0.1515
13061SOL    HW142075   6.155   2.929   1.884 -1.8476 -2.1452 -0.8591
13061SOL    HW242076   6.146   2.994   2.021  2.7096 -1.6593 -0.6372
13062SOL     OW42077   7.058   8.786   4.260 -0.1735  0.4391 -0.7968
13062SOL    HW142078   7.060   8.691   4.250 -0.3237  0.5329 -1.8645
13062SOL    HW242079   7.025   8.818   4.176 -0.7958  1.4013 -0.2050
13063SOL     OW42080   5.634   3.385   4.099  0.0318 -0.3555 -0.5159
13063SOL    HW142081   5.581   3.323   4.049 -0.2401  0.8890 -1.8362
13063SOL    HW242082   5.587   3.395   4.182  0.2896 -2.1721 -0.1130
13064SOL     OW42083   7.827   1.619   4.213  0.6726  0.4530  0.0332
13064SOL    HW142084   7.746   1.628   4.162  1.0552  1.2418 -0.4537
13064SOL    HW242085   7.798   1.589   4.299  0.0227 -1.1029 -0.6927
13065SOL     OW42086   0.169   7.016   8.082 -0.1593  0.6188  0.3272
13065SOL    HW142087   0.207   7.019   8.170 -0.6173 -0.3789  0.5727
13065SOL    HW242088   0.209   6.939   8.041  0.6780  1.5351 -0.6517
13066SOL     OW42089   2.584   3.401   2.968 -0.1866 -0.0364  0.0747
13066SOL    HW142090   2.578   3.468   3.036 -0.6269  3.4224 -3.0526
13066SOL    HW242091   2.659   3.428   2.915  0.4570 -2.8868 -0.6363
13067SOL     OW42092   4.896   5.814   6.619  0.4924 -0.0923 -0.2225
13067SOL    HW142093   4.885   5.908   6.634 -0.1677 -0.2971  0.6733
13067SOL    HW242094   4.825   5.791   6.560  1.4115  0.1910 -1.4745
13068SOL     OW42095   8.632   1.119   0.042  0.0256 -0.0236 -0.1357
13068SOL    HW142096   8.583   1.046   0.005 -2.0470  1.2496 -0.0879
13068SOL    HW242097   8.656   1.173  -0.033  0.3614 -0.0618 -0.0579
13069SOL     OW42098   3.317   0.665   0.060 -0.3909  0.6635 -0.5010
13069SOL    HW142099   3.360   0.749   0.045  0.2498  0.2621 -0.9684
13069SOL    HW242100   3.228   0.676   0.024 -0.4039  1.2242 -0.3004
13070SOL     OW42101   2.614   7.432   6.299 -0.4064  0.0686 -0.3176
13070SOL    HW142102   2.608   7.527   6.310 -0.7485  0.4461 -2.9619
13070SOL    HW242103   2.532   7.408   6.256 -0.3462 -1.4603  0.3570
13071SOL     OW42104   5.995   1.103   1.324 -0.3823 -0.4915 -0.0497
13071SOL    HW142105   5.987   1.097   1.229 -1.7801 -0.6194  0.0570
13071SOL    HW242106   5.999   1.197   1.342 -0.6656 -0.4505 -0.1974
13072SOL     OW42107   8.776   1.060   6.270 -0.2729  0.1602 -0.6043
13072SOL    HW142108   8.836   1.017   6.332  1.7809  0.8129 -2.0335
13072SOL    HW242109   8.734   0.988   6.224 -0.6736 -0.3208  0.4863
13073SOL     OW42110   8.171   1.868   7.028  0.2859 -0.6804  0.3091
13073SOL    HW142111   8.181   1.807   7.100  0.9291 -1.9911 -0.8521
13073SOL    HW242112   8.100   1.832   6.974  0.2645 -0.0847 -0.0803
13074SOL     OW42113   2.292   2.070   1.311  0.0871 -0.0824  0.3985
13074SOL    HW142114   2.379   2.035   1.332  0.3379 -0.5688 -1.2676
13074SOL    HW242115   2.243   1.993   1.282 -0.9198  0.1924  1.3282
13075SOL     OW42116   4.835   0.743   1.293 -0.3353 -0.1464 -0.2801
13075SOL    HW142117   4.854   0.651   1.310 -3.6401 -0.8218  0.2855
13075SOL    HW242118   4.783   0.743   1.212 -0.2601  1.2569 -0.3584
13076SOL     OW42119   8.104   9.403   6.745  0.0677 -0.3593  0.1395
13076SOL    HW142120   8.171   9.349   6.702  1.0690  0.3705  0.7496
13076SOL    HW242121   8.151   9.451   6.812 -0.6554  1.8822 -0.8829
13077SOL     OW42122   5.346   8.676   6.916 -0.3081  0.6018  0.1414
13077SOL    HW142123   5.350   8.704   7.008 -0.2764  0.0761  0.3019
13077SOL    HW242124   5.385   8.589   6.916 -2.7050 -0.5346  0.0774
13078SOL     OW42125   1.596   4.637   2.101  0.8218 -0.2726  0.0780
13078SOL    HW142126   1.517   4.583   2.107  1.1995 -0.6893  1.5838
13078SOL    HW242127   1.659   4.593   2.158  0.9902  2.0342  1.7720
13079SOL     OW42128   2.377   8.215   3.345  0.5087  0.0307 -0.3474
13079SOL    HW142129   2.294   8.215   3.392  0.4549 -1.6902 -0.3752
13079SOL    HW242130   2.359   8.172   3.262  1.5511 -1.0446 -0.0525
13080SOL     OW42131   3.708   2.973   4.734 -0.5819  0.0817 -0.7469
13080SOL    HW142132   3.723   2.913   4.661  1.2931 -0.7370  0.2446
13080SOL    HW242133   3.793   2.979   4.778 -1.6608  0.4928  1.4218
13081SOL     OW42134   3.093   1.660   6.591  0.4342 -0.1390 -0.4145
13081SOL    HW142135   3.083   1.748   6.557  2.0376 -0.2049 -1.1513
13081SOL    HW242136   3.146   1.614   6.526  0.2533 -1.4361  0.3018
13082SOL     OW42137   3.243   0.384   5.607  0.2733 -0.2073  0.0085
13082SOL    HW142138   3.255   0.443   5.681  0.1469  0.1073 -0.2151
13082SOL    HW242139   3.320   0.398   5.552 -0.2270  0.4904 -0.5370
13083SOL     OW42140   4.451   2.754   5.312  0.8279 -0.0663 -0.0395
13083SOL    HW142141   4.536   2.771   5.352  0.9960 -1.6181  0.2980
13083SOL    HW242142   4.399   2.711   5.380 -0.5739  1.6285  0.0564
13084SOL     OW42143   7.917   4.599   2.525  0.2402 -0.1964  0.1286
13084SOL    HW142144   7.939   4.509   2.501 -2.6766 -1.1111  0.3809
13084SOL    HW242145   7.892   4.593   2.617 -2.4423  0.2608 -0.4865
13085SOL     OW42146   4.445   5.587   8.598  0.1911  0.6794  0.1661
13085SOL    HW142147   4.446   5.626   8.511  0.6624 -1.1264 -0.6881
13085SOL    HW242148   4.536   5.566   8.617 -0.1097 -0.6860  0.2340
13086SOL     OW42149   2.099   0.705   3.765  0.1911 -0.4042  0.1805
13086SOL    HW142150   2.067   0.620   3.734 -3.7303  0.6994  0.5864
13086SOL    HW242151   2.055   0.769   3.709  1.1092  1.4134  1.4283
13087SOL     OW42152   3.078   9.191   9.356  0.2771  0.6185 -0.2428
13087SOL    HW142153   3.154   9.246   9.338  0.3895  0.5972  0.1733
13087SOL    HW242154   3.088   9.116   9.297  2.5547 -1.2816  2.3550
13088SOL     OW42155   4.180   8.505   1.138 -0.2818  0.1364 -0.5318
13088SOL    HW142156   4.160   8.521   1.230  0.4296 -0.7845 -0.2013
13088SOL    HW242157   4.252   8.442   1.140 -0.2860  0.0773 -1.7225
13089SOL     OW42158   5.586   3.785   9.457 -0.3313  0.4107  0.1910
13089SOL    HW142159   5.568   3.868   9.501 -1.2210 -0.2583  1.1130
13089SOL    HW242160   5.611   3.725   9.527 -0.6643 -0.3684 -0.3496
13090SOL     OW42161   7.153   7.207   4.109 -0.3834 -0.3382  0.6312
13090SOL    HW142162   7.089   7.270   4.078  0.3240 -0.0858 -0.3601
13090SOL    HW242163   7.123   7.183   4.197 -0.7529  1.2495  0.9589
13091SOL     OW42164   4.454   9.618   9.496 -0.0215  0.0098  0.4059
13091SOL    HW142165   4.522   9.662   9.445 -1.4209 -0.0306 -1.6432
13091SOL    HW242166   4.452   9.664   9.579 -0.3642  2.8484 -1.0675
13092SOL     OW42167   6.124   2.261   1.192 -0.4948  0.7812  0.1464
13092SOL    HW142168   6.141   2.354   1.174  0.9765  0.1338 -2.3055
13092SOL    HW242169   6.211   2.220   1.192 -1.0669 -0.5497  1.7600
13093SOL     OW42170   1.091   4.423   4.663 -0.5071  0.5507 -0.6948
13093SOL    HW142171   1.005   4.406   4.626  0.7096 -1.3704 -2.8807
13093SOL    HW242172   1.079   4.413   4.758 -2.7669  0.9316 -0.8972
13094SOL     OW42173   6.546   8.686   8.769  0.1142 -0.0396  0.5221
13094SOL    HW142174   6.614   8.698   8.702  0.2917  0.5660  0.8056
13094SOL    HW242175   6.590   8.707   8.851  0.0707 -1.3901  0.9085
13095SOL     OW42176   2.032   0.481   6.527 -0.1323  0.2384  0.2938
13095SOL    HW142177   2.076   0.411   6.478 -0.6677  0.2647 -0.2370
13095SOL    HW242178   2.009   0.545   6.461 -2.1581 -0.3807  0.3345
13096SOL     OW42179   7.757   3.833   3.326  0.0151  0.0876 -0.0750
13096SOL    HW142180   7.761   3.929   3.328 -0.5118  0.1486 -1.1756
13096SOL    HW242181   7.674   3.812   3.368  0.7162  0.0342  1.3240
13097SOL     OW42182   2.002   0.084   3.299 -0.1809 -0.0497  0.2274
13097SOL    HW142183   1.996   0.065   3.205 -0.4690  0.8045  0.0669
13097SOL    HW242184   2.092   0.059   3.322  0.4468  1.2673 -0.6386
13098SOL     OW42185   1.969   1.299   0.690  0.6685 -0.3070 -0.0340
13098SOL    HW142186   1.937   1.352   0.617  0.1277 -1.9620 -1.0660
13098SOL    HW242187   1.976   1.210   0.654  0.8988 -1.0806  1.7832
13099SOL     OW42188   5.927   2.346   0.873  0.2954 -0.5993  0.1258
13099SOL    HW142189   5.852   2.289   0.890  1.2128 -1.2293  2.4770
13099SOL    HW242190   5.911   2.423   0.928  0.9749 -0.3850  0.0305
13100SOL     OW42191   5.470   1.795   5.149 -0.6242  0.1250  0.1080
13100SOL    HW142192   5.436   1.707   5.167  1.3189 -0.9719 -1.1751
13100SOL    HW242193   5.563   1.790   5.172 -0.6548  2.1725  0.9129
13101SOL     OW42194   3.151   0.962   3.330  0.3909  0.5612 -0.1535
13101SOL    HW142195   3.206   0.897   3.287 -0.1354  0.0569 -0.0786
13101SOL    HW242196   3.069   0.916   3.347  0.1121  1.1645  0.1534
13102SOL     OW42197   2.834   3.726   2.315  0.2714  0.8235 -0.5336
13102SOL    HW142198   2.866   3.782   2.385  0.9430 -2.7121  2.3028
13102SOL    HW242199   2.739   3.721   2.329  0.5903 -1.3340  1.5553
13103SOL     OW42200   8.624   8.861   8.397  0.4636  0.2645  0.1242
13103SOL    HW142201   8.603   8.844   8.489  1.6521  3.0688  1.0395
13103SOL    HW242202   8.558   8.925   8.370  0.6652  0.1318 -0.6963
13104SOL     OW42203   3.869   0.813   8.557 -0.6256 -0.2497 -0.0258
13104SOL    HW142204   3.885   0.898   8.516 -2.6418 -0.1862 -0.7651
13104SOL    HW242205   3.957   0.779   8.575  0.2655  1.1479 -1.4448
13105SOL     OW42206   5.374   4.613   8.725  0.3298  0.1561  0.5008
13105SOL    HW142207   5.455   4.622   8.675 -0.6190  0.4970 -1.0443
13105SOL    HW242208   5.387   4.667   8.803  1.6247  0.0935  0.3530
13106SOL     OW42209   2.091   8.214   1.386  0.3921  0.6684  0.1009
13106SOL    HW142210   2.172   8.177   1.349  0.8034  1.4687  0.1836
13106SOL    HW242211   2.064   8.151   1.452 -0.9557 -1.3836 -2.2190
13107SOL     OW42212   7.754   4.728   4.057 -0.4447 -0.2640 -0.5366
13107SOL    HW142213   7.821   4.692   4.115 -1.5143  1.9015  2.2861
13107SOL    HW242214   7.683   4.663   4.059 -0.2012 -0.5176  0.1076
13108SOL     OW42215   3.112   0.622   2.516  0.2295 -0.1647 -0.2541
13108SOL    HW142216   3.048   0.621   2.587  0.8687 -0.4635  0.3325
13108SOL    HW242217   3.149   0.710   2.518  0.5789 -0.3161  0.0952
13109SOL     OW42218   8.276   7.880   7.397  0.0247  0.0782  0.1307
13109SOL    HW142219   8.215   7.942   7.437  1.1668  1.0153  0.4619
13109SOL    HW242220   8.312   7.926   7.322 -1.2297 -1.2567 -1.3615
13110SOL     OW42221   3.501   3.276   0.542 -0.2739 -0.3760  0.5260
13110SOL    HW142222   3.443   3.351   0.552  2.4443  1.9706  0.1347
13110SOL    HW242223   3.483   3.243   0.455 -0.1565  1.1330 -0.0979
13111SOL     OW42224   0.539   3.307   4.286  0.1220  0.0748 -1.0484
13111SOL    HW142225   0.596   3.362   4.233  0.4872  0.1580 -0.5779
13111SOL    HW242226   0.599   3.250   4.334 -0.2948 -1.8008 -2.6588
13112SOL     OW42227   1.835   7.652   8.394  0.0748 -0.5145 -0.2270
13112SOL    HW142228   1.757   7.654   8.449 -0.1055 -0.4523 -0.4843
13112SOL    HW242229   1.810   7.701   8.316  0.5742  0.0527 -0.0371
13113SOL     OW42230   1.225   9.405   2.445  0.1107  0.1687  0.4999
13113SOL    HW142231   1.212   9.499   2.428 -0.5030 -0.1592 -0.9571
13113SOL    HW242232   1.192   9.393   2.534 -1.4982  1.0349  0.0763
13114SOL     OW42233   0.645   8.560   5.054 -0.4534 -0.1477 -0.3049
13114SOL    HW142234   0.608   8.592   4.972 -0.3406  0.1909 -0.2250
13114SOL    HW242235   0.570   8.546   5.111 -0.6395 -1.5067 -0.8492
13115SOL     OW42236   7.022   8.873   4.674  0.0334 -0.0843 -0.1522
13115SOL    HW142237   7.022   8.948   4.616  0.4148  0.7346  0.8691
13115SOL    HW242238   6.980   8.803   4.624  0.6440  0.4955 -1.5079
13116SOL     OW42239   6.518   4.957   0.649  0.4388  0.1628  0.1789
13116SOL    HW142240   6.588   4.987   0.591  0.7467  0.2968  0.6077
13116SOL    HW242241   6.526   4.862   0.650 -0.0448  0.1062 -0.5783
13117SOL     OW42242   1.691   4.835   8.247  0.2402 -0.3010  0.1017
13117SOL    HW142243   1.781   4.813   8.224  1.7230  2.7614  2.1921
13117SOL    HW242244   1.660   4.889   8.174  0.4890 -0.5569 -0.1936
13118SOL     OW42245   7.311   9.448   5.143 -0.2538  0.8260  0.0389
13118SOL    HW142246   7.350   9.361   5.134 -1.2931  0.4506 -1.0586
13118SOL    HW242247   7.277   9.468   5.056 -0.6766  2.0263  0.4589
13119SOL     OW42248   2.906   6.999   1.956  0.3510 -0.0002  0.0157
13119SOL    HW142249   2.966   7.064   1.917  1.0094 -1.0489 -0.7922
13119SOL    HW242250   2.819   7.034   1.939  0.6680  0.2552 -1.2096
13120SOL     OW42251   0.622   0.890   5.816 -0.3540  0.3835 -0.2137
13120SOL    HW142252   0.610   0.795   5.820 -1.3997  0.5148 -0.0437
13120SOL    HW242253   0.538   0.924   5.785 -0.0088  1.2579 -0.2120
13121SOL     OW42254   4.715   2.217   6.381 -0.1682 -0.1040 -0.0562
13121SOL    HW142255   4.717   2.248   6.291 -0.3806  0.5582  0.1642
13121SOL    HW242256   4.807   2.199   6.402 -0.0814  0.0559 -0.2963
13122SOL     OW42257   2.438   0.910   0.407 -0.6087 -0.2943 -0.0791
13122SOL    HW142258   2.436   0.985   0.466 -0.7217  0.8467 -1.4646
13122SOL    HW242259   2.427   0.948   0.319 -0.1649 -1.8859 -0.8708
13123SOL     OW42260   6.106   1.587   6.941 -0.3035 -0.3027  0.3039
13123SOL    HW142261   6.101   1.519   6.874 -0.5525 -0.3986  0.4164
13123SOL    HW242262   6.025   1.576   6.992 -0.4585  0.2325  0.1720
13124SOL     OW42263   2.764   8.307   6.147  0.0024 -0.2412 -0.2209
13124SOL    HW142264   2.672   8.321   6.128  0.4087  1.5041 -1.1339
13124SOL    HW242265   2.772   8.324   6.241 -0.3718  1.2253 -0.4200
13125SOL     OW42266   4.039   9.561   1.075  0.3117 -0.2577 -0.6183
13125SOL    HW142267   4.069   9.495   1.013 -0.5967 -0.3280 -1.0022
13125SOL    HW242268   3.992   9.512   1.143  0.1515 -0.0699 -0.5884
13126SOL     OW42269   9.249   8.608   4.306  0.1684 -0.3877  0.5304
13126SOL    HW142270   9.192   8.674   4.267  1.0908  0.6522  0.8868
13126SOL    HW242271   9.219   8.603   4.397 -0.8713 -1.5781  0.1560
13127SOL     OW42272   3.602   6.321   1.744 -0.0091  0.1246  0.4471
13127SOL    HW142273   3.642   6.290   1.826  1.0603  0.1945 -0.0249
13127SOL    HW242274   3.668   6.379   1.706 -1.2098  1.5014  0.3783
13128SOL     OW42275   5.422   8.676   4.613  0.1583  0.1063  0.0207
13128SOL    HW142276   5.449   8.678   4.521 -0.7407  0.1467 -0.2425
13128SOL    HW242277   5.442   8.587   4.641 -0.6418 -0.2668 -0.5496
13129SOL     OW42278   4.373   0.105   6.554  0.2029  0.3632 -0.4077
13129SOL    HW142279   4.416   0.148   6.628  2.1653 -2.4721  0.2533
13129SOL    HW242280   4.427   0.127   6.479  0.3659  0.2118 -0.3339
13130SOL     OW42281   0.448   4.485   5.331  0.7537  0.0397 -0.3903
13130SOL    HW142282   0.387   4.412   5.329 -0.4902  1.0184  0.0005
13130SOL    HW242283   0.431   4.533   5.249 -0.4015  1.3640  0.5699
13131SOL     OW42284   4.492   1.188   2.299  0.2872 -0.1591  0.2322
13131SOL    HW142285   4.462   1.110   2.252  1.1138  0.2815 -1.0861
13131SOL    HW242286   4.446   1.184   2.383 -2.2778 -0.2785 -1.0739
13132SOL     OW42287   0.224   2.416   2.389 -0.0071  0.7070  0.0269
13132SOL    HW142288   0.313   2.399   2.358 -0.1415 -2.7271  1.0201
13132SOL    HW242289   0.170   2.352   2.341 -1.7090  1.7348  0.5041
13133SOL     OW42290   8.103   0.480   1.218 -0.0432 -0.7228 -0.0145
13133SOL    HW142291   8.168   0.478   1.147 -0.7937  0.6125 -0.7711
13133SOL    HW242292   8.156   0.480   1.298  0.9239  0.3701 -0.6172
13134SOL     OW42293   7.896   6.931   7.543  0.3941  0.0706 -0.3462
13134SOL    HW142294   7.854   6.878   7.610  1.0056  0.2646  0.2022
13134SOL    HW242295   7.941   7.000   7.592  3.0977 -1.2980 -0.7156
13135SOL     OW42296   1.400   7.116   3.248 -0.2407 -0.3836 -0.1837
13135SOL    HW142297   1.366   7.205   3.258 -1.0065 -0.7613  0.6608
13135SOL    HW242298   1.330   7.059   3.280  0.9950 -1.1968  1.1788
13136SOL     OW42299   5.101   1.335   1.216 -0.4016  0.5878  0.2207
13136SOL    HW142300   5.154   1.336   1.295 -1.3932 -1.1115  0.9664
13136SOL    HW242301   5.018   1.294   1.243 -0.9462  0.3919 -1.5805
13137SOL     OW42302   1.604   8.550   0.957  0.2081  0.3201  0.5240
13137SOL    HW142303   1.585   8.593   0.873 -1.1757  0.8658  1.0806
13137SOL    HW242304   1.565   8.608   1.023  2.1122  0.3928  1.6422
13138SOL     OW42305   3.786   3.269   9.614 -0.3055 -0.2150  0.4389
13138SOL    HW142306   3.715   3.276   9.550 -0.4266  0.4779  0.6450
13138SOL    HW242307   3.814   3.177   9.609  0.3150  0.0366 -1.2901
13139SOL     OW42308   5.455   4.024   9.131  0.7571 -0.0207  0.5188
13139SOL    HW142309   5.521   3.956   9.147 -1.5291 -1.6521  4.6119
13139SOL    HW242310   5.465   4.084   9.205 -2.2709 -0.4477  1.4325
13140SOL     OW42311   2.100   3.167   3.036  0.0079 -0.4483 -0.0841
13140SOL    HW142312   2.195   3.165   3.027  0.2805  2.6302  0.9064
13140SOL    HW242313   2.079   3.089   3.087  2.0368 -1.0473 -0.1005
13141SOL     OW42314   7.794   9.204   3.849  0.5390 -0.2583 -0.4521
13141SOL    HW142315   7.741   9.277   3.883  0.1241 -0.4861 -0.6012
13141SOL    HW242316   7.768   9.129   3.901  1.3767 -0.1908  0.0760
13142SOL     OW42317   7.549   0.830   2.435 -0.5337  0.2698 -0.1729
13142SOL    HW142318   7.458   0.819   2.408 -0.3679 -0.0186 -0.6300
13142SOL    HW242319   7.598   0.837   2.353 -0.3405  2.2341  0.0698
13143SOL     OW42320   0.407   5.099   8.157 -0.2201  0.3458  0.5346
13143SOL    HW142321   0.389   5.029   8.219  1.4984  1.5732  2.5554
13143SOL    HW242322   0.501   5.115   8.164 -0.1375  1.2289 -1.6949
13144SOL     OW42323   6.243   7.862   0.546 -0.3186 -0.1939  0.0250
13144SOL    HW142324   6.201   7.790   0.593 -1.8940  2.1534  2.4880
13144SOL    HW242325   6.211   7.941   0.589  0.0523  2.1356 -3.5496
13145SOL     OW42326   7.432   6.316   0.673 -0.0634  0.3095  0.3045
13145SOL    HW142327   7.510   6.281   0.631 -1.0500  0.6089 -1.9194
13145SOL    HW242328   7.460   6.337   0.762  1.9440 -1.0659  0.0759
13146SOL     OW42329   8.708   6.970   2.360  0.5594 -0.1378  0.5399
13146SOL    HW142330   8.717   6.876   2.347 -0.0589 -0.0856 -0.3844
13146SOL    HW242331   8.691   7.005   2.273  0.6055  0.8118  0.8966
13147SOL     OW42332   6.533   1.214   1.630  0.4648 -0.3273  0.2339
13147SOL    HW142333   6.621   1.251   1.628  0.3628 -0.0873 -1.6358
13147SOL    HW242334   6.545   1.126   1.665  1.2672  0.1050  1.0924
13148SOL     OW42335   1.846   1.257   3.696  0.3620  0.8243 -0.0035
13148SOL    HW142336   1.794   1.301   3.629 -1.5039 -1.3597 -0.0923
13148SOL    HW242337   1.793   1.182   3.722  1.4626  1.0469  3.2529
13149SOL     OW42338   8.241   0.832   1.253  0.4063 -0.1567  0.8312
13149SOL    HW142339   8.195   0.822   1.170 -2.1168  3.5354  1.5284
13149SOL    HW242340   8.333   0.839   1.229 -0.2164  0.3574 -1.6341
13150SOL     OW42341   7.814   5.624   3.775 -0.4302  0.2049  0.4126
13150SOL    HW142342   7.905   5.628   3.805  0.1789  0.1480 -1.3271
13150SOL    HW242343   7.808   5.541   3.727 -0.9802  0.9010 -0.7577
13151SOL     OW42344   3.865   1.793   5.084  0.0060 -0.0499  0.5974
13151SOL    HW142345   3.862   1.877   5.129  0.2342 -0.4657  1.4181
13151SOL    HW242346   3.892   1.814   4.995 -0.5168  0.8014  0.6292
13152SOL     OW42347   0.441   2.931   3.825 -0.3782 -0.1625 -0.5999
13152SOL    HW142348   0.409   2.940   3.915 -0.2746  1.5184 -0.6972
13152SOL    HW242349   0.525   2.976   3.824 -0.5788  0.2273 -1.6300
13153SOL     OW42350   8.438   6.057   3.906 -0.2702  0.0499  0.2766
13153SOL    HW142351   8.431   6.090   3.996 -2.0397  2.7599 -0.7600
13153SOL    HW242352   8.532   6.050   3.891  0.0743  0.4484  2.0235
13154SOL     OW42353   2.420   4.859   7.161  0.1666  0.3000  0.4501
13154SOL    HW142354   2.429   4.945   7.119 -0.2429 -0.2494 -0.8233
13154SOL    HW242355   2.510   4.826   7.166  0.0974 -0.5210 -2.0546
13155SOL     OW42356   5.666   8.378   7.413 -0.6756  0.2817 -0.0455
13155SOL    HW142357   5.619   8.318   7.471 -0.7728 -0.5232 -0.9209
13155SOL    HW242358   5.742   8.407   7.464  1.0392 -2.8899 -0.5278
13156SOL     OW42359   6.448   4.762   3.767  0.1128 -0.2252  0.1603
13156SOL    HW142360   6.428   4.814   3.846  3.1384  0.4169  0.6408
13156SOL    HW242361   6.420   4.818   3.694 -0.6151  0.2037  0.7589
13157SOL     OW42362   4.180   1.710   2.321 -0.7411  0.6851  0.3179
13157SOL    HW142363   4.246   1.726   2.254 -0.8763 -0.9079 -0.2489
13157SOL    HW242364   4.226   1.661   2.389 -1.0551  0.6163  0.4827
13158SOL     OW42365   6.304   2.075   3.795 -0.2309 -0.7376 -0.5397
13158SOL    HW142366   6.361   2.000   3.814 -0.3045 -0.6175  0.1819
13158SOL    HW242367   6.330   2.141   3.858 -1.1241 -0.6513 -0.2448
13159SOL     OW42368   7.066   9.088   9.091 -0.1736  0.3040 -0.0788
13159SOL    HW142369   6.973   9.113   9.089 -0.7037 -1.5340 -1.3542
13159SOL    HW242370   7.099   9.127   9.172 -2.4062 -0.1227  1.1292
13160SOL     OW42371   4.529   4.724   3.733  0.4223  0.1381 -0.3486
13160SOL    HW142372   4.607   4.778   3.747 -0.4847  1.7948 -1.3509
13160SOL    HW242373   4.544   4.683   3.647 -0.5482  1.9305 -1.4409
13161SOL     OW42374   8.382   9.639   1.002  0.0082 -0.2541  0.4908
13161SOL    HW142375   8.339   9.724   1.013  0.9896 -0.0037  2.9985
13161SOL    HW242376   8.352   9.609   0.916 -1.9551  1.6952  0.3839
13162SOL     OW42377   8.286   4.965   1.866 -0.6342  0.2738 -0.0108
13162SOL    HW142378   8.267   4.883   1.911  2.6689 -0.6124  0.0151
13162SOL    HW242379   8.327   5.020   1.933 -0.7231  1.0825 -0.6014
13163SOL     OW42380   4.010   6.054   2.171  0.4119  0.1440 -0.4397
13163SOL    HW142381   4.096   6.094   2.161  0.7165 -0.3450  0.1886
13163SOL    HW242382   4.020   5.966   2.135  0.8050 -0.7056  1.6053
13164SOL     OW42383   8.157   7.911   6.583  0.2162  0.1921  0.0768
13164SOL    HW142384   8.196   7.845   6.642 -0.3834  0.4160  0.7391
13164SOL    HW242385   8.223   7.980   6.579  1.3268 -0.8810 -1.4722
13165SOL     OW42386   6.477   8.376   2.418  0.0649  0.3428  0.1374
13165SOL    HW142387   6.418   8.426   2.473 -1.2209  0.0529 -0.9202
13165SOL    HW242388   6.419   8.329   2.357  1.3179 -0.9108 -0.1436
13166SOL     OW42389   2.511   6.294   3.039  0.1863 -0.0292  0.0365
13166SOL    HW142390   2.439   6.261   3.092 -1.0308 -0.6817 -1.9447
13166SOL    HW242391   2.584   6.235   3.059  0.1960  0.5571  1.9591
13167SOL     OW42392   4.046   7.336   5.898  0.1938 -0.8175  0.7609
13167SOL    HW142393   4.099   7.283   5.838  0.0143 -1.3099  1.0290
13167SOL    HW242394   3.956   7.308   5.881 -0.0032  0.0696  0.2542
13168SOL     OW42395   5.939   0.758   2.008  0.3158 -0.4100 -0.5938
13168SOL    HW142396   5.861   0.752   1.953 -0.2058 -0.1282  0.1018
13168SOL    HW242397   5.905   0.760   2.098  1.1822 -1.5252 -0.2151
13169SOL     OW42398   2.746   0.117   8.841  0.3222  0.2752  0.0695
13169SOL    HW142399   2.832   0.090   8.807 -0.2210 -1.9255  0.3466
13169SOL    HW242400   2.684   0.092   8.772 -0.4167 -1.0886  1.1885
13170SOL     OW42401   9.007   3.187   2.015 -0.4271 -0.0470  0.0204
13170SOL    HW142402   8.988   3.106   1.969 -0.6392 -0.0611  0.1300
13170SOL    HW242403   9.102   3.194   2.014 -0.4104 -0.2787 -0.0181
13171SOL     OW42404   5.344   7.424   0.608 -0.1359  0.1101 -0.0623
13171SOL    HW142405   5.360   7.475   0.687  2.1964 -0.3692 -0.1397
13171SOL    HW242406   5.333   7.489   0.538 -0.4934  0.5245  0.3796
13172SOL     OW42407   7.295   1.791   6.045 -0.3934 -0.2183 -0.1398
13172SOL    HW142408   7.214   1.741   6.061 -0.8183  0.5476  0.1856
13172SOL    HW242409   7.280   1.833   5.960  0.3216 -1.3091 -0.8329
13173SOL     OW42410   6.086   8.719   0.762  0.1085 -0.4852 -0.3473
13173SOL    HW142411   6.135   8.723   0.680 -0.5566  0.0234 -0.7231
13173SOL    HW242412   6.124   8.789   0.816  1.1395 -1.3752  0.1278
13174SOL     OW42413   7.425   4.298   1.668 -0.6407 -0.2033 -0.3641
13174SOL    HW142414   7.339   4.340   1.668  0.5841  2.5360 -1.2429
13174SOL    HW242415   7.471   4.339   1.742 -0.2498 -2.0936  0.4951
13175SOL     OW42416   4.673   2.211   7.649 -0.2375  0.0468  0.1112
13175SOL    HW142417   4.710   2.128   7.676 -1.9210 -1.6389 -2.3343
13175SOL    HW242418   4.578   2.199   7.657 -0.6577  3.4614  4.1891
13176SOL     OW42419   8.949   1.567   8.771  0.0216  0.3535  0.3900
13176SOL    HW142420   8.893   1.518   8.710 -1.0239  0.9347  0.8446
13176SOL    HW242421   9.004   1.500   8.811  1.1086  0.0158 -1.5306
13177SOL     OW42422   8.324   1.803   3.314  0.2061  1.1068  0.1815
13177SOL    HW142423   8.399   1.743   3.321 -0.4721  0.4324  3.4141
13177SOL    HW242424   8.358   1.879   3.267  2.1880 -0.2109 -0.6628
13178SOL     OW42425   4.656   9.089   2.824 -0.0237 -0.1339  0.0243
13178SOL    HW142426   4.750   9.091   2.803  0.3276 -0.6815  1.3981
13178SOL    HW242427   4.653   9.048   2.911 -1.5941 -0.7393 -0.2932
13179SOL     OW42428   1.475   3.132   4.967 -0.9313 -0.0241  0.2293
13179SOL    HW142429   1.475   3.227   4.954 -0.6974 -0.0610 -0.0439
13179SOL    HW242430   1.449   3.120   5.058 -0.6357  0.3159  0.3593
13180SOL     OW42431   0.046   9.244   2.253  0.0165  0.4248  0.3366
13180SOL    HW142432  -0.005   9.325   2.247 -0.1110  0.3259  0.0717
13180SOL    HW242433   0.067   9.223   2.163  0.7026  0.5727  0.4594
13181SOL     OW42434   6.738   0.637   5.366 -0.1935 -0.3277 -0.4664
13181SOL    HW142435   6.791   0.564   5.334  1.1711  0.0559  0.7903
13181SOL    HW242436   6.648   0.614   5.342  0.2160 -2.3418 -0.2465
13182SOL     OW42437   5.021   3.120   1.994  0.2608 -0.3014 -0.2382
13182SOL    HW142438   5.005   3.204   1.951 -0.1101 -0.5105 -0.5124
13182SOL    HW242439   5.013   3.139   2.087 -1.1471 -0.2949 -0.3433
13183SOL     OW42440   0.963   4.781   8.647  0.2584  0.0250  0.3002
13183SOL    HW142441   0.935   4.872   8.652 -1.5023 -0.5439  2.2871
13183SOL    HW242442   1.059   4.785   8.642  0.2506  1.9476  1.0919
13184SOL     OW42443   3.143   4.145   1.065 -0.5554 -0.0333  0.7449
13184SOL    HW142444   3.125   4.143   1.158 -1.0940 -2.4216  0.6439
13184SOL    HW242445   3.238   4.130   1.058 -0.4831  0.3369  0.8835
13185SOL     OW42446   8.401   7.658   2.060 -0.1846 -0.4080  0.9261
13185SOL    HW142447   8.444   7.637   2.143  0.8571 -0.5692  0.3515
13185SOL    HW242448   8.467   7.643   1.993 -0.9939 -0.2183  0.0561
13186SOL     OW42449   6.524   4.094   5.925  0.4163  0.0962  0.3513
13186SOL    HW142450   6.532   4.183   5.891 -1.6039  0.1295 -0.1272
13186SOL    HW242451   6.469   4.103   6.003 -0.5409 -0.8281 -0.1969
13187SOL     OW42452   6.305   5.484   6.021 -0.2587 -0.4083  0.2866
13187SOL    HW142453   6.383   5.509   6.071 -0.0675  0.3967 -0.3874
13187SOL    HW242454   6.254   5.430   6.082  0.5641 -0.5031  0.9155
13188SOL     OW42455   2.416   1.019   0.144 -0.3962 -0.3055 -0.0033
13188SOL    HW142456   2.460   1.100   0.121  1.5354 -0.9394  1.1805
13188SOL    HW242457   2.419   0.966   0.065  1.6468 -0.5815  0.2146
13189SOL     OW42458   0.776   6.905   1.953 -0.1756  0.2358 -0.2538
13189SOL    HW142459   0.770   6.967   2.026 -0.6380 -0.3469  0.2149
13189SOL    HW242460   0.732   6.827   1.985  0.3137 -0.3035 -0.8779
13190SOL     OW42461   6.541   4.336   3.113 -0.0260 -0.6394  0.6949
13190SOL    HW142462   6.562   4.261   3.058 -1.9785 -0.5271 -0.2917
13190SOL    HW242463   6.452   4.319   3.144 -0.0643  0.7147  1.4122
13191SOL     OW42464   3.016   6.126   2.411 -0.2627 -0.4529 -0.0638
13191SOL    HW142465   3.041   6.116   2.319  0.8077  0.0289  0.1549
13191SOL    HW242466   3.100   6.133   2.458 -0.7978  0.2440  0.8334
13192SOL     OW42467   9.319   9.554   1.312  0.2964  0.1554 -0.1282
13192SOL    HW142468   9.379   9.627   1.300 -0.5826  0.8903 -0.1185
13192SOL    HW242469   9.323   9.535   1.406  1.0651 -0.2986 -0.2403
13193SOL     OW42470   5.815   1.490   1.200  0.7028 -0.0613 -0.3932
13193SOL    HW142471   5.839   1.449   1.283 -0.7625 -1.1671 -0.4726
13193SOL    HW242472   5.868   1.570   1.196  2.0905 -0.8688  0.7650
13194SOL     OW42473   6.103   0.727   7.053 -0.2002 -0.6207  0.0212
13194SOL    HW142474   6.028   0.687   7.096  0.0637 -1.5343 -0.3461
13194SOL    HW242475   6.072   0.748   6.965 -0.0869 -0.8040 -0.0630
13195SOL     OW42476   6.664   7.213   5.306 -0.0510 -0.0561 -0.3551
13195SOL    HW142477   6.702   7.228   5.392 -1.4606 -1.2228  0.5111
13195SOL    HW242478   6.572   7.235   5.316 -0.5117 -1.4770 -1.1896
13196SOL     OW42479   3.245   2.878   5.970 -0.0451  0.1535  0.4121
13196SOL    HW142480   3.149   2.879   5.961  0.0723 -0.6919 -1.3489
13196SOL    HW242481   3.262   2.799   6.022 -0.1871 -1.7224 -2.1943
13197SOL     OW42482   4.436   5.699   9.077 -0.5803 -0.1240 -0.1070
13197SOL    HW142483   4.460   5.788   9.053  0.2191  0.1313  1.4639
13197SOL    HW242484   4.374   5.671   9.010  0.8925  0.7637 -1.9224
13198SOL     OW42485   3.150   5.236   4.073 -0.4074  0.3053  0.1452
13198SOL    HW142486   3.075   5.181   4.047  1.9824 -1.6423 -3.6240
13198SOL    HW242487   3.127   5.324   4.044 -1.4521 -0.1413 -0.4249
13199SOL     OW42488   9.221   4.880   8.822  0.3682  0.0904  0.1628
13199SOL    HW142489   9.173   4.824   8.884 -0.9718  1.8071  0.7520
13199SOL    HW242490   9.312   4.874   8.851 -0.0269 -0.2626  1.4249
13200SOL     OW42491   1.122   6.458   6.196 -0.6394 -0.3735  0.0535
13200SOL    HW142492   1.171   6.383   6.231  1.4574  0.4046 -1.0858
13200SOL    HW242493   1.182   6.532   6.204 -1.2078  0.4313 -2.3418
13201SOL     OW42494   4.069   0.568   1.438  0.1757 -0.4523  0.0997
13201SOL    HW142495   4.013   0.628   1.487 -0.1596  2.0314 -2.9827
13201SOL    HW242496   4.008   0.513   1.389  0.3379  0.6907 -1.4738
13202SOL     OW42497   9.252   5.565   4.296 -0.2228 -0.5409  0.3749
13202SOL    HW142498   9.326   5.524   4.341  0.6138  0.8759  0.3400
13202SOL    HW242499   9.251   5.655   4.329 -0.2758  0.2200 -1.5611
13203SOL     OW42500   0.231   5.001   7.411  0.1967  0.0705 -0.0825
13203SOL    HW142501   0.178   4.962   7.340 -0.7750  0.8236  0.2080
13203SOL    HW242502   0.265   5.082   7.374 -0.2550  0.4312  0.2841
13204SOL     OW42503   6.834   7.580   2.618 -0.4016  0.0299 -0.4292
13204SOL    HW142504   6.898   7.637   2.661 -0.9281  1.2957 -1.2826
13204SOL    HW242505   6.864   7.574   2.527  0.4687 -2.2864 -0.0560
13205SOL     OW42506   1.848   6.738   3.512  0.0062 -0.3463 -0.3350
13205SOL    HW142507   1.925   6.788   3.542 -1.3033  1.1612  0.6523
13205SOL    HW242508   1.803   6.798   3.452 -2.2794  0.2683  1.8277
13206SOL     OW42509   9.460   8.799   3.303  0.1710  0.1750 -0.2154
13206SOL    HW142510   9.465   8.798   3.399  2.4582  0.0354 -0.2870
13206SOL    HW242511   9.385   8.855   3.284 -1.0265 -0.7117  1.6546
13207SOL     OW42512   0.929   9.062   2.554  0.4261  0.1077  0.0470
13207SOL    HW142513   0.876   8.983   2.550 -0.1678  0.5472 -1.9037
13207SOL    HW242514   0.894   9.111   2.628 -0.5626 -0.5371  0.0262
13208SOL     OW42515   4.387   9.226   1.961  0.2812 -0.6812 -0.7107
13208SOL    HW142516   4.316   9.163   1.973  0.7660 -1.0903  0.1178
13208SOL    HW242517   4.452   9.201   2.026 -0.4269  2.0340  1.2171
13209SOL     OW42518   4.358   3.920   6.824 -0.2108  0.1124 -0.2635
13209SOL    HW142519   4.347   4.012   6.805  0.1938  0.3796  0.7016
13209SOL    HW242520   4.407   3.885   6.750  0.4829  0.8928 -0.1889
13210SOL     OW42521   5.163   6.543   8.771 -0.7064  0.0430 -0.4357
13210SOL    HW142522   5.178   6.633   8.799 -0.2848  0.4249 -1.8172
13210SOL    HW242523   5.243   6.497   8.795 -1.6803 -0.4718  2.0923
13211SOL     OW42524   6.351   4.787   6.039  0.4892 -0.0565 -0.1819
13211SOL    HW142525   6.262   4.812   6.067  0.3131 -1.7271  0.8824
13211SOL    HW242526   6.349   4.692   6.036  2.5573 -0.1934  0.9359
13212SOL     OW42527   0.935   1.812   8.082  0.0751 -0.4889  0.5507
13212SOL    HW142528   0.847   1.848   8.074  0.5237  0.8609  1.4102
13212SOL    HW242529   0.989   1.884   8.115  1.5488 -1.2291 -0.1023
13213SOL     OW42530   3.187   8.041   3.949  0.7664  0.6807 -0.2680
13213SOL    HW142531   3.119   8.009   3.889  0.4685 -0.5902  0.7104
13213SOL    HW242532   3.264   8.054   3.893 -0.0316  1.4166 -1.2568
13214SOL     OW42533   6.656   2.506   5.380 -0.3156  0.7821 -0.7166
13214SOL    HW142534   6.563   2.509   5.359 -0.4426  0.0221 -0.3072
13214SOL    HW242535   6.697   2.561   5.313 -0.8610 -0.4344 -2.1200
13215SOL     OW42536   7.207   4.824   5.633  0.6746  0.1309  0.3392
13215SOL    HW142537   7.263   4.746   5.639  1.0724  0.3185 -0.6443
13215SOL    HW242538   7.260   4.895   5.670  1.1577  0.3309 -0.6968
13216SOL     OW42539   8.476   1.415   1.751 -0.7004 -0.2362 -0.4497
13216SOL    HW142540   8.447   1.463   1.674 -0.1993  0.6511 -0.1128
13216SOL    HW242541   8.447   1.325   1.737 -1.1112  0.0364 -1.3996
13217SOL     OW42542   1.704   5.707   2.804  0.6130 -0.2540  0.2749
13217SOL    HW142543   1.782   5.752   2.837  0.9399 -2.1298  2.3068
13217SOL    HW242544   1.734   5.662   2.725  1.0635  0.6064 -0.0601
13218SOL     OW42545   9.417   0.410   2.935  0.1831  0.5136 -0.7816
13218SOL    HW142546   9.473   0.486   2.953  2.0046 -0.5782 -1.5597
13218SOL    HW242547   9.474   0.335   2.949 -1.3211 -0.6929 -0.9267
13219SOL     OW42548   6.361   1.265   8.196  0.4084  0.8287 -0.2316
13219SOL    HW142549   6.340   1.190   8.140  0.3007  0.2676  0.5391
13219SOL    HW242550   6.456   1.261   8.208  0.0959 -1.5949  2.9880
13220SOL     OW42551   6.956   0.937   3.724 -0.1518 -0.9333  0.0496
13220SOL    HW142552   6.993   0.917   3.638 -0.5460  0.9384 -0.5995
13220SOL    HW242553   7.031   0.964   3.777 -0.1603 -0.1280 -0.3354
13221SOL     OW42554   3.864   0.905   4.064  0.0358 -0.0289  0.3339
13221SOL    HW142555   3.940   0.855   4.035 -0.2907 -1.0306  1.1536
13221SOL    HW242556   3.793   0.875   4.007 -0.4809 -1.5910  1.7295
13222SOL     OW42557   8.344   7.109   5.581 -0.5184 -0.7597 -0.6740
13222SOL    HW142558   8.291   7.112   5.661  0.4158 -1.3715 -0.0137
13222SOL    HW242559   8.376   7.019   5.577  0.4505 -0.4054 -1.0812
13223SOL     OW42560   6.494   8.456   2.085 -0.0501  0.2637 -0.2941
13223SOL    HW142561   6.477   8.391   2.154  1.1185  1.1393  0.8790
13223SOL    HW242562   6.447   8.423   2.009  1.2476 -2.5000 -0.0456
13224SOL     OW42563   5.243   6.732   0.001 -0.1009 -0.3852  0.5289
13224SOL    HW142564   5.319   6.678  -0.021  1.6616  3.0996 -2.9484
13224SOL    HW242565   5.268   6.777   0.082  1.5240  0.5831 -0.4783
13225SOL     OW42566   6.032   2.366   4.123  0.0038  0.4376 -0.1612
13225SOL    HW142567   6.111   2.323   4.157 -0.5573  0.1348  0.8254
13225SOL    HW242568   6.030   2.344   4.030  1.7310  1.4817 -0.4725
13226SOL     OW42569   8.826   1.044   2.520  0.2495 -0.4230 -0.1710
13226SOL    HW142570   8.863   1.126   2.487 -0.1969 -0.1277  0.0612
13226SOL    HW242571   8.879   0.976   2.479 -0.5491 -0.0846 -1.8269
13227SOL     OW42572   1.343   2.283   8.238 -0.0945  0.2053  0.1325
13227SOL    HW142573   1.291   2.283   8.158 -0.9591  0.3881  0.6810
13227SOL    HW242574   1.433   2.296   8.208 -0.1958 -1.2326 -0.9285
13228SOL     OW42575   8.286   0.738   6.040 -0.3475  0.7830  0.6227
13228SOL    HW142576   8.249   0.741   6.128 -2.9931 -0.8471 -0.3199
13228SOL    HW242577   8.276   0.827   6.007 -0.8127  1.0383  1.4239
13229SOL     OW42578   8.145   5.780   2.149  0.3675 -0.0602 -0.0179
13229SOL    HW142579   8.060   5.759   2.187 -0.4870  0.8371 -1.3671
13229SOL    HW242580   8.208   5.754   2.216 -1.0218  0.7562  1.6754
13230SOL     OW42581   7.364   8.206   6.740  0.4717  0.3849  0.1940
13230SOL    HW142582   7.300   8.273   6.717  0.8847  0.1669 -1.7628
13230SOL    HW242583   7.449   8.246   6.720  0.9920  0.5622  2.4610
13231SOL     OW42584   3.109   2.424   1.686 -0.1426  0.4292  0.5510
13231SOL    HW142585   3.020   2.423   1.649 -1.0048  0.9912  2.5139
13231SOL    HW242586   3.144   2.510   1.662  0.1994 -0.0554 -0.8393
13232SOL     OW42587   8.740   9.094   2.678 -0.0458 -0.1645  0.3039
13232SOL    HW142588   8.734   9.041   2.757 -0.2472 -0.6306 -0.0259
13232SOL    HW242589   8.658   9.144   2.676 -0.0985 -0.2529  0.3123
13233SOL     OW42590   7.445   4.519   2.335 -0.0291 -0.2348 -0.1525
13233SOL    HW142591   7.519   4.573   2.309  1.2494  0.2604  3.8204
13233SOL    HW242592   7.471   4.430   2.313  0.9433  0.1200 -0.4773
13234SOL     OW42593   1.993   0.182   0.218  0.5398  0.6234 -0.3852
13234SOL    HW142594   1.971   0.273   0.199 -0.0155  0.5682 -0.0299
13234SOL    HW242595   1.908   0.138   0.229  0.8086  0.2371  0.2357
13235SOL     OW42596   7.190   4.738   1.002  0.0330  0.6017  0.9371
13235SOL    HW142597   7.248   4.686   1.058  0.4685  1.9739  1.8173
13235SOL    HW242598   7.218   4.716   0.913  0.8467  0.0564  1.3104
13236SOL     OW42599   6.504   4.137   7.610 -0.0654  0.5463  0.0398
13236SOL    HW142600   6.450   4.129   7.532  1.0894 -2.2476 -0.5900
13236SOL    HW242601   6.593   4.145   7.577  0.6075 -2.1378  0.9606
13237SOL     OW42602   2.481   4.388   7.726  0.1086  0.0429  0.9763
13237SOL    HW142603   2.568   4.347   7.730 -0.4277 -1.1991  0.5188
13237SOL    HW242604   2.479   4.432   7.641 -0.4522 -1.7613  0.0016
13238SOL     OW42605   0.956   8.578   9.277 -0.2925  0.0051  0.2769
13238SOL    HW142606   0.900   8.502   9.260  1.7750 -1.4245 -0.6290
13238SOL    HW242607   0.965   8.620   9.192  0.5234 -0.1858  0.2613
13239SOL     OW42608   6.743   9.024   6.059  0.0750  0.4637 -0.4659
13239SOL    HW142609   6.717   9.043   5.968  1.2598 -0.2887 -0.9872
13239SOL    HW242610   6.785   9.104   6.089  0.2061  0.5129 -0.7777
13240SOL     OW42611   3.760   4.822   0.812 -0.5464 -0.4072  0.4292
13240SOL    HW142612   3.727   4.864   0.733  1.0134  0.8147  0.3766
13240SOL    HW242613   3.807   4.892   0.858  2.3515 -2.0918  0.2508
13241SOL     OW42614   7.913   4.379   7.729  0.5059  0.1392  0.0275
13241SOL    HW142615   7.860   4.345   7.657  0.2781 -1.7215  1.0226
13241SOL    HW242616   7.878   4.467   7.744 -0.9499 -0.2883 -0.6593
13242SOL     OW42617   1.131   0.157   2.108  0.2971  0.4882 -0.2704
13242SOL    HW142618   1.086   0.232   2.070 -0.9482 -1.3081 -2.5630
13242SOL    HW242619   1.223   0.172   2.089  0.0518  1.3801 -0.7955
13243SOL     OW42620   8.594   6.997   0.518  0.0822  0.2569 -0.1169
13243SOL    HW142621   8.520   7.057   0.523  0.3009  0.4869  0.3884
13243SOL    HW242622   8.579   6.934   0.588  0.3414  0.2858 -0.0317
13244SOL     OW42623   8.611   6.398   2.916 -0.5949 -0.7632 -0.2673
13244SOL    HW142624   8.638   6.408   2.825 -0.6876 -2.1957 -0.4746
13244SOL    HW242625   8.516   6.410   2.913 -0.7069 -1.6042 -0.5140
13245SOL     OW42626   8.528   6.628   9.215  0.6092 -0.2882  0.4105
13245SOL    HW142627   8.533   6.556   9.152  1.3297  0.9535 -1.0108
13245SOL    HW242628   8.434   6.637   9.234  0.2793 -0.1866 -1.1395
13246SOL     OW42629   5.120   0.709   4.711  0.1845  0.1674 -0.0094
13246SOL    HW142630   5.060   0.743   4.645  0.5609 -0.8723 -0.9263
13246SOL    HW242631   5.201   0.691   4.663  0.8832  0.5676  0.9971
13247SOL     OW42632   3.980   0.566   5.116 -0.2482 -0.0010 -0.2650
13247SOL    HW142633   4.035   0.598   5.045  0.3830  2.7735  1.3356
13247SOL    HW242634   3.907   0.627   5.119 -0.6460 -0.5160  1.0048
13248SOL     OW42635   2.065   0.103   0.575 -0.1687 -0.0173  0.0131
13248SOL    HW142636   2.112   0.131   0.497 -0.6774  1.4316  0.1950
13248SOL    HW242637   2.114   0.028   0.607 -0.1713 -0.8913 -1.9022
13249SOL     OW42638   4.993   7.075   3.365 -0.0545 -0.0086 -0.1423
13249SOL    HW142639   4.978   7.124   3.284  1.6783  1.1395  0.1942
13249SOL    HW242640   4.983   7.139   3.435 -1.1779 -0.9144  0.5808
13250SOL     OW42641   7.161   8.142   6.156  0.1840 -0.1962  0.3858
13250SOL    HW142642   7.203   8.064   6.119 -0.5772 -0.5496  0.2380
13250SOL    HW242643   7.143   8.118   6.248  0.9305  0.2094  0.6393
13251SOL     OW42644   2.230   4.314   6.674 -0.3302 -0.5035  0.3107
13251SOL    HW142645   2.228   4.338   6.581 -2.4423 -1.6578  0.0021
13251SOL    HW242646   2.261   4.223   6.674  0.6311 -0.1952  0.8596
13252SOL     OW42647   5.737   3.241   0.933 -0.0763  0.3063  0.2079
13252SOL    HW142648   5.654   3.251   0.886 -0.6197  1.9166  1.4326
13252SOL    HW242649   5.713   3.250   1.026  0.9229 -2.8823  0.9311
13253SOL     OW42650   9.458   5.038   0.383  0.4288  0.0106  0.1998
13253SOL    HW142651   9.441   4.981   0.309 -0.3065  1.5630 -0.8657
13253SOL    HW242652   9.372   5.054   0.422  0.7778 -0.6025  1.2944
13254SOL     OW42653   6.888   3.481   2.523  0.1969 -0.4375 -0.1698
13254SOL    HW142654   6.945   3.488   2.599  0.0315  0.8570 -0.1387
13254SOL    HW242655   6.829   3.408   2.543 -0.3689  0.3872  1.3296
13255SOL     OW42656   4.122   5.042   8.309  0.1058 -0.7032  0.1026
13255SOL    HW142657   4.050   5.103   8.298 -0.4900 -1.1781  1.1902
13255SOL    HW242658   4.144   5.047   8.402  1.0828 -0.9979 -0.0976
13256SOL     OW42659   7.384   8.261   9.013  0.1523  0.2588 -0.4887
13256SOL    HW142660   7.394   8.167   9.029 -4.1599 -0.0033  2.2794
13256SOL    HW242661   7.364   8.268   8.920 -1.5305 -1.9417 -0.3760
13257SOL     OW42662   1.943   7.491   2.413 -0.1716 -0.5431  0.1448
13257SOL    HW142663   1.949   7.579   2.376  1.1746 -0.5843  0.2189
13257SOL    HW242664   1.981   7.499   2.501  0.7389 -1.3475 -0.1487
13258SOL     OW42665   7.491   6.621   3.959 -0.1063  0.3284  0.3027
13258SOL    HW142666   7.453   6.696   3.913  0.4283 -0.4425 -1.4746
13258SOL    HW242667   7.496   6.650   4.051 -2.3204  1.4928  0.1540
13259SOL     OW42668   7.962   8.308   8.342  0.6767 -0.5941  0.0066
13259SOL    HW142669   8.042   8.303   8.289  0.1395 -0.1717 -0.8810
13259SOL    HW242670   7.991   8.337   8.428  1.3849  0.5154 -0.5786
13260SOL     OW42671   4.523   1.000   5.754 -0.5186 -0.1556 -0.2210
13260SOL    HW142672   4.567   1.080   5.784  0.8355 -1.1952  0.7285
13260SOL    HW242673   4.498   1.019   5.664 -3.2374  2.5018  0.9330
13261SOL     OW42674   8.371   1.671   9.000  0.3142  0.1424 -0.4565
13261SOL    HW142675   8.340   1.721   8.924 -0.3289 -0.0406 -0.3186
13261SOL    HW242676   8.411   1.593   8.963 -0.9949 -0.4999 -0.5832
13262SOL     OW42677   1.148   2.815   8.914 -0.0923  0.3602  0.1425
13262SOL    HW142678   1.100   2.815   8.997 -1.3958 -2.0458 -0.5375
13262SOL    HW242679   1.081   2.819   8.847  0.7995 -0.3851 -0.8252
13263SOL     OW42680   6.408   7.862   1.482 -0.1010 -0.5873  0.1773
13263SOL    HW142681   6.458   7.943   1.493  0.7008 -1.2007  1.3538
13263SOL    HW242682   6.322   7.882   1.521  0.0768 -0.2954  0.4282
13264SOL     OW42683   0.251   3.864   7.613  0.4054  0.5700  0.2750
13264SOL    HW142684   0.157   3.879   7.626  0.1034  1.7764 -2.6503
13264SOL    HW242685   0.259   3.770   7.597 -0.1057  0.2724  1.6170
13265SOL     OW42686   0.610   2.337   9.562 -0.5279  0.2293  0.1341
13265SOL    HW142687   0.612   2.252   9.604 -1.0566  1.0494  1.9092
13265SOL    HW242688   0.533   2.335   9.506  0.2182 -0.8966 -0.9018
13266SOL     OW42689   5.986   8.295   1.850  0.0934 -0.0823 -0.4928
13266SOL    HW142690   6.010   8.202   1.851 -0.3004 -0.1986 -1.2796
13266SOL    HW242691   5.965   8.314   1.759 -0.3363  0.6568 -0.2521
13267SOL     OW42692   0.815   7.138   5.414  0.6224 -0.2184 -0.5444
13267SOL    HW142693   0.749   7.074   5.387 -0.3332  0.8213 -0.7092
13267SOL    HW242694   0.810   7.137   5.510  0.0252  0.2053 -0.5684
13268SOL     OW42695   7.069   4.920   7.019  0.1180  0.1576 -0.1507
13268SOL    HW142696   7.123   4.913   7.097  1.5796  0.6082 -1.0910
13268SOL    HW242697   7.049   4.829   6.996 -2.1646  0.0389  1.9166
13269SOL     OW42698   8.482   0.210   5.833 -0.7928 -0.3789 -0.3624
13269SOL    HW142699   8.519   0.168   5.911  1.4958 -0.7027 -1.5228
13269SOL    HW242700   8.464   0.300   5.860 -0.4372 -0.5990  0.6460
13270SOL     OW42701   5.524   4.987   7.033 -0.1060  0.6012 -0.0602
13270SOL    HW142702   5.445   4.965   7.081  0.6620 -0.0476  0.9641
13270SOL    HW242703   5.518   5.081   7.016 -0.4863  0.8193  1.1718
13271SOL     OW42704   8.728   9.569   5.237 -0.0278  0.0209  0.3693
13271SOL    HW142705   8.757   9.494   5.184  1.1674  0.4778  0.3402
13271SOL    HW242706   8.634   9.573   5.223  0.1498 -0.3304 -1.1415
13272SOL     OW42707   3.563   3.596   0.467  0.2391  0.8717 -0.2227
13272SOL    HW142708   3.542   3.570   0.377  2.3600 -0.4677 -0.4087
13272SOL    HW242709   3.479   3.592   0.513 -0.4140 -1.7019 -1.4135
13273SOL     OW42710   5.926   7.981   8.468  0.0980 -0.0200  0.5893
13273SOL    HW142711   5.950   8.044   8.536  1.8265 -0.8364  0.7919
13273SOL    HW242712   5.865   8.028   8.412  0.9908  1.6881  0.9925
13274SOL     OW42713   7.799   0.979   5.443  0.1986  0.4067  0.2392
13274SOL    HW142714   7.724   0.968   5.501 -0.9498 -0.2238 -1.3016
13274SOL    HW242715   7.854   0.903   5.459 -2.2277 -2.1310 -2.4237
13275SOL     OW42716   2.746   6.262   7.641 -0.2525 -0.3773 -0.0574
13275SOL    HW142717   2.674   6.283   7.701 -0.7170 -1.4656 -0.2045
13275SOL    HW242718   2.774   6.174   7.666  0.6892 -0.1720 -0.3410
13276SOL     OW42719   8.155   2.633   0.600 -0.1708  0.3850 -0.2689
13276SOL    HW142720   8.205   2.710   0.628  1.4895 -1.0168  0.7939
13276SOL    HW242721   8.221   2.567   0.580 -1.4313 -2.2440  3.1043
13277SOL     OW42722   7.051   5.470   8.018  0.1646  0.0965 -0.4562
13277SOL    HW142723   6.996   5.537   7.976  0.2336 -0.8399 -2.0923
13277SOL    HW242724   6.993   5.430   8.084  0.2597  2.0249  0.9101
13278SOL     OW42725   7.293   7.431   3.985 -0.0603 -0.6351  0.2597
13278SOL    HW142726   7.274   7.347   4.027 -0.0910  0.2321  2.1072
13278SOL    HW242727   7.208   7.470   3.969 -0.0249 -0.5972  0.1624
13279SOL     OW42728   0.638   4.592   4.643 -0.1423  0.4889  0.1225
13279SOL    HW142729   0.593   4.664   4.599  0.7996  1.2418  0.3450
13279SOL    HW242730   0.636   4.615   4.736  1.5484  1.0910  0.0560
13280SOL     OW42731   6.460   4.545   5.289  0.0933 -0.5433 -0.1719
13280SOL    HW142732   6.514   4.616   5.325 -0.2644 -0.3471 -0.0179
13280SOL    HW242733   6.510   4.512   5.215  1.9831 -2.4779  1.8248
13281SOL     OW42734   1.919   2.791   2.270  0.1906  0.0886 -0.4082
13281SOL    HW142735   1.989   2.740   2.311 -0.0828 -0.5903 -0.7864
13281SOL    HW242736   1.952   2.809   2.182 -0.3979 -0.8388 -0.8329
13282SOL     OW42737   7.709   1.903   2.308 -0.4466 -0.0559 -0.5202
13282SOL    HW142738   7.715   1.905   2.213 -1.8995 -0.9329 -0.6696
13282SOL    HW242739   7.677   1.815   2.329  2.8822 -1.0643  1.0499
13283SOL     OW42740   2.917   6.939   5.931 -0.5719 -0.0995 -0.0896
13283SOL    HW142741   2.853   7.010   5.924 -0.4905 -0.0207 -0.0382
13283SOL    HW242742   2.872   6.862   5.895 -0.5573  0.0426 -0.4152
13284SOL     OW42743   1.492   5.554   1.617  0.3303  1.0692  0.2566
13284SOL    HW142744   1.450   5.518   1.695 -0.6202 -0.8505 -1.0527
13284SOL    HW242745   1.586   5.547   1.634  0.2812 -3.1221 -0.2399
13285SOL     OW42746   2.507   2.043   4.855  0.6946  0.3344  0.1616
13285SOL    HW142747   2.602   2.046   4.853  0.6733  1.1193 -1.6284
13285SOL    HW242748   2.479   2.120   4.805 -0.9029  0.5832  1.3290
13286SOL     OW42749   6.004   3.317   9.481 -0.2197 -0.0748  0.0364
13286SOL    HW142750   6.067   3.246   9.474 -0.3894 -0.0825 -2.4120
13286SOL    HW242751   5.946   3.292   9.553  0.3246 -1.8925 -0.1217
13287SOL     OW42752   4.214   8.970   1.955  0.6522 -0.0920 -0.0810
13287SOL    HW142753   4.136   9.001   2.001 -0.2831 -1.2443 -0.8388
13287SOL    HW242754   4.182   8.941   1.870  1.8605 -0.9361 -0.2756
13288SOL     OW42755   1.854   8.064   6.036 -0.7044 -0.3167 -0.6645
13288SOL    HW142756   1.826   8.132   6.099 -0.5609 -0.3796 -0.5315
13288SOL    HW242757   1.917   8.109   5.980 -0.8954 -0.2381 -0.8180
13289SOL     OW42758   8.763   2.623   7.243 -0.1782 -0.5555 -0.4989
13289SOL    HW142759   8.786   2.561   7.312 -0.9003  0.4464  0.6902
13289SOL    HW242760   8.707   2.688   7.286 -1.8064 -0.6418 -2.3399
13290SOL     OW42761   0.103   7.463   2.616  0.0862  0.5448 -0.4489
13290SOL    HW142762   0.010   7.454   2.637 -0.0591  1.1089 -0.8216
13290SOL    HW242763   0.143   7.383   2.649 -0.2576  1.0223  1.2698
13291SOL     OW42764   4.904   8.525   8.167  0.0332 -0.1721  0.2431
13291SOL    HW142765   4.820   8.570   8.180 -0.8141 -1.5668 -0.1827
13291SOL    HW242766   4.924   8.539   8.074 -0.0222 -0.3315  0.2076
13292SOL     OW42767   1.554   8.136   3.305  0.1605  0.1850  0.0762
13292SOL    HW142768   1.536   8.069   3.371 -1.7064  1.0957  0.5786
13292SOL    HW242769   1.620   8.192   3.346  0.5162 -0.3936  0.3167
13293SOL     OW42770   3.862   7.092   0.272  0.4414 -0.2866  0.2178
13293SOL    HW142771   3.891   7.175   0.310  0.2448  0.7546 -1.7694
13293SOL    HW242772   3.941   7.052   0.237  0.4211 -0.5414  0.4674
13294SOL     OW42773   3.978   8.035   3.059 -0.7828 -0.1408  0.0234
13294SOL    HW142774   3.967   8.070   2.971  3.3651 -2.2045 -1.5851
13294SOL    HW242775   3.914   7.964   3.064  0.3555 -1.4671 -2.3592
13295SOL     OW42776   6.260   9.195   1.247  0.3964 -0.4465 -0.5935
13295SOL    HW142777   6.277   9.105   1.273 -1.2688 -0.9129 -1.0312
13295SOL    HW242778   6.166   9.206   1.258  0.6082  1.3340 -0.2821
13296SOL     OW42779   7.735   9.491   0.805 -0.1736 -0.1892 -0.2032
13296SOL    HW142780   7.703   9.416   0.756  0.5437 -0.9648  0.4934
13296SOL    HW242781   7.701   9.479   0.893 -1.1536  1.0110 -0.3922
13297SOL     OW42782   4.084   6.001   6.897 -0.2736 -0.1063 -0.7625
13297SOL    HW142783   4.004   5.963   6.934 -0.5185  1.6783  0.6453
13297SOL    HW242784   4.147   5.928   6.898 -1.5004 -1.2096 -0.7575
13298SOL     OW42785   8.594   6.667   0.913  0.5814  0.0410 -0.0281
13298SOL    HW142786   8.643   6.698   0.989  0.6863 -2.5281  1.0701
13298SOL    HW242787   8.657   6.613   0.865  0.1897  0.7292 -1.3692
13299SOL     OW42788   5.967   8.374   0.648 -0.1915 -0.2791  0.0442
13299SOL    HW142789   6.015   8.358   0.729  0.5150  0.0199 -0.3044
13299SOL    HW242790   5.887   8.323   0.657 -1.0030  1.1655  1.7268
13300SOL     OW42791   3.091   0.726   5.543  0.2025  0.0896 -0.3949
13300SOL    HW142792   3.145   0.755   5.616  0.6640 -0.1610 -0.6255
13300SOL    HW242793   3.090   0.630   5.551 -0.7420  0.1265 -0.0250
13301SOL     OW42794   4.931   6.392   2.790  0.2070 -0.4743 -0.1578
13301SOL    HW142795   4.964   6.402   2.701  1.9689  2.0550  0.6536
13301SOL    HW242796   5.008   6.404   2.846 -1.1562  0.0272  1.7309
13302SOL     OW42797   7.245   2.345   2.962  0.0434  0.2675 -0.0589
13302SOL    HW142798   7.202   2.431   2.958  0.0342  0.2807  0.2573
13302SOL    HW242799   7.234   2.318   3.053  0.1585 -0.0133 -0.1291
13303SOL     OW42800   2.834   9.318   0.971 -0.6730 -0.1913 -0.1957
13303SOL    HW142801   2.890   9.349   0.900 -1.3475 -2.0172 -1.6065
13303SOL    HW242802   2.780   9.394   0.995  1.4174  1.2203  0.2959
13304SOL     OW42803   6.587   1.030   0.677  0.5803 -0.1813  0.0210
13304SOL    HW142804   6.654   0.990   0.621  0.3519 -0.7070  0.1151
13304SOL    HW242805   6.522   1.064   0.616  1.8738  2.1197 -0.1718
13305SOL     OW42806   3.800   3.365   0.400 -0.3839  0.5211 -0.2052
13305SOL    HW142807   3.782   3.420   0.324 -0.6495 -0.0423 -0.5604
13305SOL    HW242808   3.716   3.359   0.446 -0.4903  0.0018 -0.4525
13306SOL     OW42809   0.921   7.615   5.035 -0.3993 -0.0732  0.2704
13306SOL    HW142810   0.852   7.551   5.050 -1.0917  0.8710  1.2226
13306SOL    HW242811   0.958   7.631   5.122  2.2767 -1.8997 -0.4096
13307SOL     OW42812   1.072   2.774   6.690 -0.2923  0.0883 -0.1646
13307SOL    HW142813   1.155   2.785   6.735  0.5749 -1.6913 -1.2033
13307SOL    HW242814   1.032   2.861   6.692  0.1464  0.3543  3.0167
13308SOL     OW42815   0.527   2.175   6.291 -0.1997 -0.1467 -0.2317
13308SOL    HW142816   0.496   2.212   6.208 -0.4180 -1.3139 -0.6994
13308SOL    HW242817   0.622   2.170   6.280 -0.2624 -0.7054 -0.6123
13309SOL     OW42818   0.690   2.853   6.488  0.4302 -0.4018 -0.0597
13309SOL    HW142819   0.643   2.879   6.567 -0.1374 -2.0720  0.1756
13309SOL    HW242820   0.641   2.894   6.416  0.6836  0.7413  0.3973
13310SOL     OW42821   0.558   7.417   4.364  0.5106 -0.4627 -0.9904
13310SOL    HW142822   0.519   7.457   4.441  2.3110 -2.1732  0.9327
13310SOL    HW242823   0.483   7.396   4.307 -0.9307  0.2584  0.5604
13311SOL     OW42824   3.461   2.815   4.541  0.0303 -0.0363  1.0295
13311SOL    HW142825   3.553   2.832   4.561 -0.2760  1.0598  1.5589
13311SOL    HW242826   3.430   2.761   4.614  0.5096 -1.3625  0.2993
13312SOL     OW42827   1.247   8.033   9.096  0.0504  0.1886  0.6457
13312SOL    HW142828   1.292   8.073   9.022  1.0477 -1.6649  0.2020
13312SOL    HW242829   1.236   7.942   9.071 -2.3755  0.1696  1.5110
13313SOL     OW42830   7.129   5.327   3.887 -0.0686  0.2160  0.0241
13313SOL    HW142831   7.208   5.377   3.869  0.0887  0.0071  0.1289
13313SOL    HW242832   7.158   5.236   3.886 -0.5002  0.0764 -0.9687
13314SOL     OW42833   8.535   5.387   6.952 -0.5604 -0.0154 -0.2294
13314SOL    HW142834   8.459   5.349   6.997 -0.6223 -1.0749 -1.1853
13314SOL    HW242835   8.498   5.448   6.889 -0.6906 -1.0354 -1.1732
13315SOL     OW42836   2.271   4.293   4.849  0.2135 -0.2594 -0.2365
13315SOL    HW142837   2.363   4.278   4.867  0.6293  1.0902 -1.1036
13315SOL    HW242838   2.264   4.291   4.753 -0.6539 -0.3151 -0.1840
13316SOL     OW42839   6.132   6.880   7.514 -0.5441 -0.2678 -0.6769
13316SOL    HW142840   6.219   6.870   7.476 -0.6596 -1.1668 -0.7312
13316SOL    HW242841   6.146   6.872   7.608 -0.4972  0.1647 -0.6444
13317SOL     OW42842   3.678   5.238   2.103  0.2340 -0.2614  0.2328
13317SOL    HW142843   3.723   5.167   2.148  0.1642  0.8790  2.2231
13317SOL    HW242844   3.670   5.307   2.169 -1.5154  0.8148 -1.0165
13318SOL     OW42845   7.825   1.479   7.287  0.4396 -0.2406 -0.0689
13318SOL    HW142846   7.782   1.394   7.297  0.0668  0.0258  0.6353
13318SOL    HW242847   7.890   1.482   7.357  1.7261 -0.6951 -1.2123
13319SOL     OW42848   2.757   2.574   1.339 -0.1730 -0.4213 -0.3099
13319SOL    HW142849   2.777   2.514   1.411 -0.5590  0.0724  0.2133
13319SOL    HW242850   2.674   2.615   1.364 -0.3171 -0.2494 -1.0419
13320SOL     OW42851   0.338   1.420   7.015  0.2361 -0.7681 -0.5185
13320SOL    HW142852   0.271   1.422   6.948  0.3866 -0.5819 -0.6648
13320SOL    HW242853   0.378   1.334   7.007 -1.0711 -1.5296  0.6511
13321SOL     OW42854   5.686   3.763   1.562 -0.2000 -0.0169  0.5364
13321SOL    HW142855   5.666   3.814   1.484 -0.1136  0.9576  1.1340
13321SOL    HW242856   5.693   3.828   1.632  1.5062 -0.6709  1.0298
13322SOL     OW42857   4.242   1.525   5.880  0.0221  0.4531  0.0807
13322SOL    HW142858   4.157   1.554   5.846 -0.4996  0.8413  1.6508
13322SOL    HW242859   4.257   1.578   5.958  1.2896 -0.2500  0.3565
13323SOL     OW42860   0.411   4.669   6.609 -0.3674 -0.2052  0.6382
13323SOL    HW142861   0.458   4.650   6.690 -0.2469 -1.6816  0.2456
13323SOL    HW242862   0.381   4.759   6.619  0.7773  0.0792  1.7644
13324SOL     OW42863   0.057   6.455   1.172  0.7607  0.1439  1.0588
13324SOL    HW142864   0.101   6.481   1.091 -1.0065  0.4946  0.1633
13324SOL    HW242865   0.128   6.449   1.237  2.4960 -1.7710 -0.8310
13325SOL     OW42866   2.071   0.313   1.385 -0.1586  0.3490 -0.1106
13325SOL    HW142867   2.053   0.324   1.292 -0.2517  0.0650 -0.1282
13325SOL    HW242868   2.019   0.237   1.411  1.0195 -0.5044 -0.1677
13326SOL     OW42869   4.532   5.901   4.868  0.2926 -0.8416  0.0783
13326SOL    HW142870   4.494   5.988   4.856 -0.3634 -1.0140  0.8248
13326SOL    HW242871   4.480   5.861   4.937  1.0128 -1.5832  0.2145
13327SOL     OW42872   8.644   1.176   6.536  0.3046 -0.3424  0.3524
13327SOL    HW142873   8.723   1.211   6.495 -1.5285  1.0339 -2.2775
13327SOL    HW242874   8.662   1.082   6.545  1.7522 -0.2983 -1.4340
13328SOL     OW42875   4.988   3.963   0.797  0.3042  0.1252 -0.6085
13328SOL    HW142876   5.022   3.874   0.794 -1.5020 -0.6856  0.7992
13328SOL    HW242877   5.037   4.006   0.867 -0.5136 -0.5751  0.4207
13329SOL     OW42878   5.425   6.771   4.768  0.1748  0.2431 -0.0307
13329SOL    HW142879   5.375   6.692   4.747 -1.0747  1.2073 -0.8435
13329SOL    HW242880   5.367   6.822   4.825  0.7563  0.7941  0.0782
13330SOL     OW42881   0.337   4.781   7.974 -0.2683  0.3212  0.1144
13330SOL    HW142882   0.377   4.832   8.045 -1.1250 -0.3056  1.0692
13330SOL    HW242883   0.392   4.703   7.968  0.5069  0.9067 -0.7390
13331SOL     OW42884   3.085   1.825   9.289  0.7802  0.1358 -0.1464
13331SOL    HW142885   3.086   1.845   9.382 -0.0129  0.3156 -0.1703
13331SOL    HW242886   3.004   1.777   9.276  2.1264 -2.2899 -0.2639
13332SOL     OW42887   8.958   1.018   4.877  0.4444  0.3192  0.0046
13332SOL    HW142888   8.920   1.092   4.831  0.4689 -0.2904 -1.0198
13332SOL    HW242889   9.051   1.020   4.854  0.3768 -0.2425 -0.3437
13333SOL     OW42890   1.192   4.303   3.017 -0.1115  0.8744 -0.5266
13333SOL    HW142891   1.138   4.380   3.000 -0.5986  0.7460  0.3661
13333SOL    HW242892   1.130   4.235   3.043  0.3240  0.2087 -1.1796
13334SOL     OW42893   9.588   1.886   0.719  0.0630 -0.1000 -0.4307
13334SOL    HW142894   9.567   1.968   0.764  0.5131  0.4470 -1.1795
13334SOL    HW242895   9.680   1.870   0.741 -0.0291 -0.4074 -0.2769
13335SOL     OW42896   7.972   6.068   7.980  0.0027 -0.1106  0.7344
13335SOL    HW142897   8.001   6.158   7.995 -0.8993  0.2715  0.2533
13335SOL    HW242898   7.937   6.069   7.891  0.3233 -1.0331  0.5907
13336SOL     OW42899   4.309   4.187   4.590 -0.6238  0.6155 -0.1465
13336SOL    HW142900   4.367   4.115   4.566  0.5741  1.6567 -0.5107
13336SOL    HW242901   4.291   4.232   4.507  2.2378  3.2974  0.5060
13337SOL     OW42902   7.306   6.750   6.871 -0.2384  0.7325 -0.5970
13337SOL    HW142903   7.331   6.661   6.846 -0.5361  0.4538  0.0891
13337SOL    HW242904   7.349   6.764   6.956 -3.8987 -0.5072  1.6743
13338SOL     OW42905   4.012   0.444   8.501  0.2821  0.2493 -0.3026
13338SOL    HW142906   4.085   0.446   8.563 -0.8293  2.4191  1.0295
13338SOL    HW242907   4.041   0.499   8.428 -0.0717  1.3060  0.3331
13339SOL     OW42908   2.010   1.139   4.693 -0.1645 -0.1306  0.2614
13339SOL    HW142909   2.054   1.076   4.635 -1.2101  0.3027 -1.0460
13339SOL    HW242910   2.060   1.220   4.682 -2.0801  0.8231 -2.4650
13340SOL     OW42911   8.122   5.583   6.033  0.1490 -0.3202  0.1328
13340SOL    HW142912   8.197   5.596   5.975  1.1200  1.7772  1.7368
13340SOL    HW242913   8.126   5.655   6.095 -2.9571 -0.3858  0.5990
13341SOL     OW42914   6.176   8.934   5.470 -0.7175  0.3397 -0.4118
13341SOL    HW142915   6.190   8.904   5.560 -1.6856 -1.4103 -0.7987
13341SOL    HW242916   6.089   8.972   5.471 -1.5370 -1.4069 -0.9651
13342SOL     OW42917   0.106   1.216   6.551  0.3313 -0.1067 -0.3776
13342SOL    HW142918   0.173   1.167   6.598  0.0722 -0.8947 -0.8084
13342SOL    HW242919   0.154   1.284   6.505  0.6495  0.3121  0.5529
13343SOL     OW42920   5.812   0.347   4.430  0.3432  0.3390  0.6160
13343SOL    HW142921   5.844   0.425   4.477 -0.6406  0.6426  0.8079
13343SOL    HW242922   5.719   0.363   4.419  0.3941 -0.1662 -0.6380
13344SOL     OW42923   2.742   6.679   3.589 -0.4225  0.0244 -0.4273
13344SOL    HW142924   2.763   6.742   3.521 -0.5465  1.3961  0.7489
13344SOL    HW242925   2.717   6.733   3.664  0.5190 -1.3867  0.9687
13345SOL     OW42926   8.245   7.027   8.163  0.0406 -0.4678  0.4666
13345SOL    HW142927   8.290   6.952   8.203 -0.3546 -0.3463  1.1477
13345SOL    HW242928   8.264   7.100   8.222 -1.8742 -0.6131  1.3394
13346SOL     OW42929   0.202   7.405   6.201  0.3552  0.1405 -0.3435
13346SOL    HW142930   0.215   7.359   6.284  0.6981  0.4395 -0.2305
13346SOL    HW242931   0.218   7.339   6.134  0.0864 -0.1001 -0.1712
13347SOL     OW42932   9.537   1.430   6.589 -0.6038  1.1548 -0.0999
13347SOL    HW142933   9.545   1.438   6.684  1.8863  0.2875 -0.1732
13347SOL    HW242934   9.613   1.379   6.562 -1.0095  1.7353 -2.6222
13348SOL     OW42935   5.399   3.015   1.720  0.2811  0.2871  0.8332
13348SOL    HW142936   5.452   3.094   1.717  2.1876 -0.9423  0.2689
13348SOL    HW242937   5.391   2.988   1.628 -0.0329 -0.3761  1.0474
13349SOL     OW42938   4.782   6.971   0.323 -0.2141  0.1908  0.1772
13349SOL    HW142939   4.820   7.024   0.393 -0.0881  0.7329 -0.2946
13349SOL    HW242940   4.856   6.945   0.270 -0.4665  1.1947 -0.7091
13350SOL     OW42941   2.195   3.164   4.755 -0.5346 -0.5469 -0.0952
13350SOL    HW142942   2.214   3.114   4.676 -1.1804 -0.0291 -0.5920
13350SOL    HW242943   2.158   3.247   4.723 -0.0003  0.0231  0.7195
13351SOL     OW42944   0.991   7.671   1.862 -0.0347  0.1543  0.3560
13351SOL    HW142945   1.084   7.695   1.864  0.1700 -0.6219  0.4993
13351SOL    HW242946   0.955   7.709   1.942  0.6628 -1.4365  1.4858
13352SOL     OW42947   1.724   9.125   1.239  0.1667 -0.0499 -1.3613
13352SOL    HW142948   1.737   9.041   1.195  0.5341 -0.6928 -0.0640
13352SOL    HW242949   1.641   9.115   1.286  1.0929 -0.4006  0.2956
13353SOL     OW42950   9.197   1.996   4.935  0.3176  0.4103  0.0480
13353SOL    HW142951   9.190   1.982   4.841  2.7702 -0.2404 -0.1084
13353SOL    HW242952   9.154   1.920   4.974 -1.4115  1.0603 -0.4665
13354SOL     OW42953   0.161   4.775   9.250 -0.1732  0.0193  0.1180
13354SOL    HW142954   0.105   4.740   9.181 -0.3505  0.3064  0.1116
13354SOL    HW242955   0.238   4.719   9.249  0.2898  0.6410 -1.0070
13355SOL     OW42956   6.057   6.860   8.233 -0.5706  0.7454 -0.0715
13355SOL    HW142957   6.132   6.880   8.176  0.5359  0.4157  1.2191
13355SOL    HW242958   6.003   6.800   8.181 -0.0150  1.0929 -1.0730
13356SOL     OW42959   1.167   9.282   3.023  0.0920 -0.0844 -0.0367
13356SOL    HW142960   1.177   9.220   3.095  1.2957 -0.4774 -0.5070
13356SOL    HW242961   1.101   9.242   2.966  1.6147 -1.5352 -0.8853
13357SOL     OW42962   0.854   3.775   8.704 -0.5466 -0.1499  0.7830
13357SOL    HW142963   0.778   3.717   8.705 -0.1031 -0.7501  0.3059
13357SOL    HW242964   0.848   3.822   8.787 -0.6402 -1.2522  1.4287
13358SOL     OW42965   6.087   6.935   2.158 -0.4302 -0.1230  0.8798
13358SOL    HW142966   6.006   6.981   2.139 -0.7481 -0.9360  0.2090
13358SOL    HW242967   6.156   6.990   2.120 -0.6983  0.3796  1.1186
13359SOL     OW42968   5.400   1.532   1.575  0.3116  0.3124 -0.2151
13359SOL    HW142969   5.400   1.444   1.612 -1.2206 -0.2249 -1.4139
13359SOL    HW242970   5.491   1.548   1.550  0.2397 -1.8765 -2.1283
13360SOL     OW42971   2.031   0.313   0.757 -0.3114 -0.1535 -0.5973
13360SOL    HW142972   2.026   0.250   0.685  0.5408  0.2780 -1.0577
13360SOL    HW242973   2.086   0.271   0.823 -0.3207 -0.1728 -0.6019
13361SOL     OW42974   1.440   0.228   9.264  0.5907 -0.2805  0.6400
13361SOL    HW142975   1.438   0.213   9.359 -2.7728 -0.4106  0.6802
13361SOL    HW242976   1.375   0.297   9.249  0.8164 -0.4786 -1.6135
13362SOL     OW42977   9.363   2.527   2.770 -0.1045  0.2740  0.6516
13362SOL    HW142978   9.270   2.549   2.760 -0.4024 -0.9223  0.6035
13362SOL    HW242979   9.373   2.512   2.864  0.3793  1.7442  0.8617
13363SOL     OW42980   1.472   8.799   5.029  0.1975  0.1249 -0.3696
13363SOL    HW142981   1.526   8.754   4.964 -0.5136  1.2404 -1.7983
13363SOL    HW242982   1.530   8.864   5.068  0.8577 -1.0862  0.7538
13364SOL     OW42983   3.136   0.690   8.530 -0.7411  0.0760  0.0959
13364SOL    HW142984   3.177   0.717   8.612  1.2371  0.0605 -0.8092
13364SOL    HW242985   3.120   0.771   8.483 -0.1223  0.0057 -0.2526
13365SOL     OW42986   8.984   7.475   3.702  0.1430  0.4079 -0.2573
13365SOL    HW142987   9.010   7.455   3.612 -2.1507 -2.0294 -0.5044
13365SOL    HW242988   8.912   7.537   3.694 -1.9818 -1.8939 -0.4384
13366SOL     OW42989   6.620   2.444   3.371 -0.3287 -0.1919 -0.3845
13366SOL    HW142990   6.646   2.438   3.279 -0.2854  0.6596 -0.4345
13366SOL    HW242991   6.564   2.367   3.385 -1.4126  0.3539 -1.4926
13367SOL     OW42992   3.615   8.719   7.499 -0.3851 -0.3236 -0.1605
13367SOL    HW142993   3.619   8.780   7.426  0.5048 -0.3220 -0.1227
13367SOL    HW242994   3.579   8.639   7.461  1.9715 -1.0256 -1.1524
13368SOL     OW42995   4.783   6.805   6.196  0.4109 -0.6948 -0.2020
13368SOL    HW142996   4.790   6.791   6.102 -0.6005  1.6957 -0.7155
13368SOL    HW242997   4.873   6.825   6.224  0.4256  0.6621 -1.1026
13369SOL     OW42998   7.816   3.033   5.163  0.1783 -0.4528  0.3632
13369SOL    HW142999   7.829   2.994   5.076  3.9438  3.0599 -1.0009
13369SOL    HW243000   7.897   3.012   5.210 -1.1893 -1.0231  2.6073
13370SOL     OW43001   1.641   7.161   8.507  0.1371  0.4014  0.4105
13370SOL    HW143002   1.553   7.129   8.527  0.8907 -0.8117  1.9974
13370SOL    HW243003   1.644   7.249   8.546 -0.9420  1.2479 -1.2944
13371SOL     OW43004   1.633   7.672   2.938  0.0523 -0.1797  0.1385
13371SOL    HW143005   1.543   7.697   2.957 -0.4297 -1.7407  0.0012
13371SOL    HW243006   1.658   7.614   3.010  0.9060  0.1245  0.0996
13372SOL     OW43007   6.194   4.047   1.004  0.1068 -0.6286  0.0455
13372SOL    HW143008   6.236   3.961   1.000  0.3026 -0.4847 -1.3556
13372SOL    HW243009   6.174   4.059   1.097  3.8098 -0.3929  0.9921
13373SOL     OW43010   5.848   5.546   1.983  0.4079  0.3902  0.1303
13373SOL    HW143011   5.879   5.579   1.898 -0.5490 -0.9004 -0.7574
13373SOL    HW243012   5.763   5.586   1.995  1.5548  2.5583  1.7448
13374SOL     OW43013   7.993   3.110   6.291 -0.1354  0.7669  0.0648
13374SOL    HW143014   8.041   3.060   6.358 -0.5991 -0.0302 -0.1878
13374SOL    HW243015   7.909   3.130   6.333  0.4167  2.2355  0.5394
13375SOL     OW43016   5.576   5.471   3.843 -0.3738 -0.5395  0.6406
13375SOL    HW143017   5.564   5.383   3.807 -2.5012 -0.1631  0.3363
13375SOL    HW243018   5.577   5.528   3.766 -0.3431 -0.1703  0.9115
13376SOL     OW43019   2.960   9.416   8.856 -0.0113  0.2854  0.2853
13376SOL    HW143020   2.938   9.333   8.899  0.5306  0.4237  0.8507
13376SOL    HW243021   2.999   9.391   8.773 -1.9629  0.0289 -0.6074
13377SOL     OW43022   2.798   7.149   5.696  0.2275 -0.4840  0.8212
13377SOL    HW143023   2.804   7.244   5.706 -1.1145 -0.6318  3.7638
13377SOL    HW243024   2.877   7.126   5.647  0.5880  2.1102  0.0296
13378SOL     OW43025   9.283   9.039   2.191  0.2282 -0.2644  0.0197
13378SOL    HW143026   9.218   9.022   2.124  1.2982 -2.1648 -0.6055
13378SOL    HW243027   9.315   9.128   2.173 -1.0421  0.0744 -0.6054
13379SOL     OW43028   5.122   5.987   8.899  0.1544  0.1914  0.0983
13379SOL    HW143029   5.090   5.907   8.942  1.4408 -0.4994 -0.1697
13379SOL    HW243030   5.057   6.053   8.921 -0.1056 -0.5422  1.7012
13380SOL     OW43031   8.513   1.665   1.880 -0.3515 -0.5723  0.3090
13380SOL    HW143032   8.602   1.651   1.912 -0.2824  0.0617  0.4212
13380SOL    HW243033   8.480   1.578   1.858 -0.1389 -0.9363  1.4162
13381SOL     OW43034   4.958   7.766   6.556  0.0798 -0.6546  0.2211
13381SOL    HW143035   5.017   7.787   6.628  0.6526 -0.4480 -0.3022
13381SOL    HW243036   4.886   7.829   6.566 -0.2740 -1.1760  1.1015
13382SOL     OW43037   8.088   3.116   0.783 -0.3377 -0.4679 -0.2323
13382SOL    HW143038   8.042   3.172   0.846  0.3288 -0.1108 -0.0583
13382SOL    HW243039   8.039   3.127   0.701  0.0801  0.7660 -0.3309
13383SOL     OW43040   3.853   9.253   4.236  0.1913 -0.5473  0.3930
13383SOL    HW143041   3.770   9.300   4.239  0.7948  0.4933  1.8068
13383SOL    HW243042   3.841   9.180   4.297  0.6054  0.1581  1.3479
13384SOL     OW43043   3.715   1.976   6.307 -0.4643  0.0095  0.6124
13384SOL    HW143044   3.779   2.047   6.307 -0.4235 -0.0266  1.0291
13384SOL    HW243045   3.768   1.896   6.298 -0.5825  0.0888 -1.0128
13385SOL     OW43046   5.592   3.477   8.021  0.5359 -0.2653  0.2256
13385SOL    HW143047   5.579   3.479   7.926  0.9722 -1.2805  0.1265
13385SOL    HW243048   5.557   3.560   8.052  0.6361  0.1999 -0.8590
13386SOL     OW43049   3.538   6.950   6.201 -0.9231 -0.0229 -0.5076
13386SOL    HW143050   3.457   6.918   6.240  0.1513 -1.8315  0.4224
13386SOL    HW243051   3.537   6.916   6.112 -1.4337  0.4339 -0.6772
13387SOL     OW43052   0.165   6.009   5.837  0.0664  0.3140  0.4179
13387SOL    HW143053   0.111   5.935   5.866  0.4925  0.5492  1.8855
13387SOL    HW243054   0.236   6.013   5.900  1.7267  0.1595 -1.3399
13388SOL     OW43055   0.694   0.670   0.469  0.0347 -0.0612  0.0572
13388SOL    HW143056   0.672   0.591   0.517  1.0562 -0.3049  0.1278
13388SOL    HW243057   0.778   0.698   0.504  0.3137  0.3208 -0.8848
13389SOL     OW43058   8.630   2.391   1.335  0.0212  0.5657  0.0148
13389SOL    HW143059   8.544   2.406   1.296  0.5876 -0.3378 -1.6622
13389SOL    HW243060   8.687   2.371   1.261  0.9518 -2.1969  1.3372
13390SOL     OW43061   9.152   1.938   1.094  0.3589 -0.0619  0.5079
13390SOL    HW143062   9.153   1.848   1.059 -0.3136  0.2775 -0.4226
13390SOL    HW243063   9.199   1.989   1.028  1.4175  0.1654  1.4037
13391SOL     OW43064   4.054   7.828   0.415 -0.2901 -0.0551  0.1792
13391SOL    HW143065   4.005   7.901   0.377 -0.3825 -0.1556  0.1076
13391SOL    HW243066   4.098   7.787   0.341 -2.1762 -1.5827 -0.1505
13392SOL     OW43067   4.946   8.281   8.734  0.1581  0.5984 -0.8183
13392SOL    HW143068   4.988   8.197   8.715 -1.2886 -0.3244 -0.0824
13392SOL    HW243069   5.007   8.325   8.793  1.1877  0.3246 -1.6360
13393SOL     OW43070   3.392   5.522   7.153  0.0854 -0.1570  0.0059
13393SOL    HW143071   3.315   5.514   7.097  1.1440 -0.5867 -1.4460
13393SOL    HW243072   3.435   5.437   7.147  1.7783  0.7186 -0.9301
13394SOL     OW43073   7.359   6.189   3.796 -0.4209 -0.3667  0.2195
13394SOL    HW143074   7.355   6.251   3.869  3.5071  0.6206 -0.1693
13394SOL    HW243075   7.328   6.239   3.721  0.9488  0.5958  0.2530
13395SOL     OW43076   3.927   5.412   2.753  0.1076  0.1134 -0.0414
13395SOL    HW143077   3.892   5.487   2.802 -0.5003  0.1729 -0.5607
13395SOL    HW243078   3.858   5.390   2.690  1.2433  0.6201 -1.5158
13396SOL     OW43079   0.079   0.386   8.126  0.0112 -0.3078 -0.0394
13396SOL    HW143080   0.147   0.452   8.113 -1.2111  1.2252  1.0729
13396SOL    HW243081   0.117   0.326   8.190  1.4574 -1.2697 -1.6639
13397SOL     OW43082   7.442   6.987   0.528  0.0986  0.7511 -0.7805
13397SOL    HW143083   7.491   6.906   0.512  1.9365  1.5817  0.3574
13397SOL    HW243084   7.402   7.008   0.444  2.4782  0.4977 -2.0532
13398SOL     OW43085   9.089   2.361   7.279 -0.1695 -0.0623  0.2445
13398SOL    HW143086   9.092   2.310   7.198 -2.5549 -1.4936  0.9383
13398SOL    HW243087   9.174   2.344   7.321  0.1857 -1.2153 -0.8645
13399SOL     OW43088   2.469   4.439   0.768 -0.1323 -0.1564  0.0944
13399SOL    HW143089   2.453   4.461   0.676  0.4993 -0.4561 -0.0899
13399SOL    HW243090   2.526   4.362   0.765  0.3428  0.1583  0.7426
13400SOL     OW43091   1.384   8.931   1.540  0.2980  0.1305  0.1281
13400SOL    HW143092   1.306   8.880   1.560 -0.0645  0.0242 -1.4146
13400SOL    HW243093   1.439   8.925   1.618 -0.4849 -1.2107  0.5889
13401SOL     OW43094   7.712   1.534   2.522 -0.0870 -0.0539  0.3127
13401SOL    HW143095   7.790   1.562   2.475 -0.6846  0.3472 -0.4474
13401SOL    HW243096   7.743   1.463   2.579  0.7397 -0.2151 -0.3194
13402SOL     OW43097   5.936   2.530   3.814 -0.1040 -0.0401  0.3063
13402SOL    HW143098   6.001   2.531   3.745 -1.5161  0.7131 -1.0730
13402SOL    HW243099   5.937   2.619   3.850  1.0249 -0.5769  1.6997
13403SOL     OW43100   5.329   3.220   8.318 -0.1857  0.8419 -0.0226
13403SOL    HW143101   5.405   3.254   8.364 -1.0950  1.1696  1.3023
13403SOL    HW243102   5.345   3.126   8.311  0.3781  0.9219  0.1483
13404SOL     OW43103   5.854   0.282   3.933  0.2170 -0.1874 -0.5708
13404SOL    HW143104   5.844   0.264   3.839  2.1669 -1.3579 -0.5987
13404SOL    HW243105   5.871   0.197   3.972 -1.0188  0.2155  0.9637
13405SOL     OW43106   0.178   9.208   2.816 -0.0231  0.5176 -0.2133
13405SOL    HW143107   0.217   9.209   2.904  0.0906  1.0884 -0.2690
13405SOL    HW243108   0.253   9.217   2.757 -0.0500 -0.3590 -0.3887
13406SOL     OW43109   2.288   7.397   5.569  0.1009 -0.1059 -0.1635
13406SOL    HW143110   2.380   7.370   5.573  0.3165  0.6749  0.3827
13406SOL    HW243111   2.274   7.418   5.477  0.2271 -1.0263 -0.4032
13407SOL     OW43112   5.007   5.843   0.554  0.0942 -0.0454  0.4355
13407SOL    HW143113   4.924   5.825   0.600 -0.3605 -1.2120 -0.7688
13407SOL    HW243114   5.041   5.922   0.596 -1.4450  0.2460  1.2128
13408SOL     OW43115   6.757   3.063   2.129 -1.0839  0.1799 -0.0864
13408SOL    HW143116   6.744   3.131   2.063  1.1585  0.8767  0.1085
13408SOL    HW243117   6.752   2.981   2.080 -0.0774  0.6628 -1.0408
13409SOL     OW43118   1.103   3.515   7.420  0.1110 -0.2415  0.4556
13409SOL    HW143119   1.130   3.424   7.406 -0.1946 -0.0637 -1.6287
13409SOL    HW243120   1.087   3.521   7.514  0.3371 -2.2850  0.6748
13410SOL     OW43121   0.425   1.528   8.725 -0.0515  0.1886 -0.0952
13410SOL    HW143122   0.352   1.581   8.694  0.2236  0.4346 -0.3334
13410SOL    HW243123   0.394   1.437   8.717  0.0895  0.2264 -1.3428
13411SOL     OW43124   7.381   4.395   0.696 -0.9270 -0.0861 -0.2510
13411SOL    HW143125   7.348   4.323   0.751 -2.2653  0.2269 -0.6251
13411SOL    HW243126   7.474   4.401   0.720 -1.3026 -0.4182  1.4711
13412SOL     OW43127   2.302   1.515   3.628  0.1065  0.0944  0.3306
13412SOL    HW143128   2.225   1.463   3.647 -0.1882 -0.1415 -1.3800
13412SOL    HW243129   2.370   1.480   3.687 -0.3986 -1.4386  0.0441
13413SOL     OW43130   5.103   3.301   7.429 -0.4427  0.0549  0.0279
13413SOL    HW143131   5.048   3.226   7.449  1.5658 -1.4997  0.0666
13413SOL    HW243132   5.107   3.303   7.333 -0.9330  0.4657  0.0127
13414SOL     OW43133   1.109   9.404   4.434  0.1560 -0.2164 -0.3268
13414SOL    HW143134   1.146   9.330   4.482  0.9289  0.5607  0.3368
13414SOL    HW243135   1.144   9.395   4.346 -0.9268 -1.4226 -0.6574
13415SOL     OW43136   4.464   1.656   4.997  0.0859  0.6258 -0.7351
13415SOL    HW143137   4.455   1.600   4.920 -0.3310  0.2915 -0.4486
13415SOL    HW243138   4.487   1.595   5.067 -2.8020  0.4053  0.1372
13416SOL     OW43139   2.087   3.344   1.035 -0.2986  0.1377 -0.3055
13416SOL    HW143140   2.064   3.431   1.067  1.2536 -0.3906  2.5309
13416SOL    HW243141   2.179   3.352   1.009 -0.5104 -0.3841 -1.2860
13417SOL     OW43142   6.963   5.715   7.241  0.2116  0.1903  0.4222
13417SOL    HW143143   7.025   5.746   7.307  0.2024 -0.4912  0.7607
13417SOL    HW243144   6.952   5.622   7.261  0.0178  0.0331 -0.3877
13418SOL     OW43145   9.643   1.046   7.354  0.0152  0.0688 -0.2081
13418SOL    HW143146   9.635   0.960   7.397 -0.3182  0.8163  1.3020
13418SOL    HW243147   9.637   1.026   7.261  2.8183 -1.8746 -0.0929
13419SOL     OW43148   4.760   3.181   4.292 -0.2613 -0.5721  0.2914
13419SOL    HW143149   4.848   3.163   4.323 -0.8522 -1.7997  1.3920
13419SOL    HW243150   4.708   3.193   4.372 -0.6550  2.7430 -0.3395
13420SOL     OW43151   1.049   7.480   0.628  0.0697  0.4296  0.0515
13420SOL    HW143152   1.119   7.416   0.645 -0.0997 -0.1228 -1.2322
13420SOL    HW243153   1.080   7.529   0.552 -0.7327  0.4868 -0.2461
13421SOL     OW43154   9.640   9.285   4.963 -0.2855  0.3516 -0.0283
13421SOL    HW143155   9.613   9.315   5.050  0.6665 -0.7300  0.6661
13421SOL    HW243156   9.601   9.198   4.955  1.8804 -0.7379  0.4983
13422SOL     OW43157   7.442   9.189   2.176  0.6735  0.4668 -0.6566
13422SOL    HW143158   7.422   9.277   2.206 -2.4835 -0.2251 -0.3462
13422SOL    HW243159   7.383   9.174   2.103  1.3378 -1.2944 -0.8929
13423SOL     OW43160   4.016   7.108   7.045 -0.2478 -0.0151  0.1091
13423SOL    HW143161   4.007   7.016   7.020 -0.7422 -0.6279  2.2927
13423SOL    HW243162   3.992   7.109   7.138 -2.0306  2.6204 -0.2861
13424SOL     OW43163   5.555   0.784   1.852  0.3636 -0.1294 -0.0905
13424SOL    HW143164   5.482   0.729   1.825  1.1757 -2.0382  1.4151
13424SOL    HW243165   5.514   0.865   1.882 -0.8590  0.2242 -2.4470
13425SOL     OW43166   7.841   6.421   2.048  0.7836 -0.1060  0.4463
13425SOL    HW143167   7.821   6.511   2.072  2.6402  0.1929  1.0265
13425SOL    HW243168   7.873   6.426   1.958 -0.8538 -0.4661 -0.1850
13426SOL     OW43169   1.198   8.247   6.386 -0.1220  0.1668  0.1809
13426SOL    HW143170   1.115   8.292   6.370 -0.6865 -0.4637  1.2646
13426SOL    HW243171   1.177   8.154   6.381  0.6847 -0.0028 -0.3031
13427SOL     OW43172   8.908   2.605   7.688  0.0133  0.0420 -0.1912
13427SOL    HW143173   8.908   2.542   7.760 -0.3051  0.4413  0.1604
13427SOL    HW243174   8.956   2.561   7.618  1.1041 -0.0104  0.5606
13428SOL     OW43175   2.282   7.597   3.893  0.1506  0.4160  0.2963
13428SOL    HW143176   2.320   7.648   3.821 -0.3886  0.5097  0.0729
13428SOL    HW243177   2.269   7.661   3.963  2.0365  0.0590  1.0375
13429SOL     OW43178   3.009   3.227   5.895  0.1363  0.7273  0.3563
13429SOL    HW143179   2.941   3.260   5.836  0.5211  1.0043  0.0590
13429SOL    HW243180   3.026   3.301   5.954  0.4888  0.8163  0.1473
13430SOL     OW43181   4.939   8.501   0.459 -0.1632  0.4706 -0.5385
13430SOL    HW143182   5.022   8.499   0.411 -0.1676  0.3042 -0.5382
13430SOL    HW243183   4.942   8.584   0.508 -0.2992  0.8005 -1.0769
13431SOL     OW43184   3.902   0.744   1.569 -0.4883 -0.3300  0.3135
13431SOL    HW143185   3.952   0.819   1.601 -0.7374 -0.0851  0.1335
13431SOL    HW243186   3.810   0.770   1.581 -0.5807 -0.3963 -0.2225
13432SOL     OW43187   8.242   4.291   7.720  0.3231  0.1505  0.1807
13432SOL    HW143188   8.204   4.379   7.727  0.1726  0.0585  0.5293
13432SOL    HW243189   8.333   4.302   7.750  0.3662  0.2291  0.0212
13433SOL     OW43190   2.982   4.164   0.565  0.0542  0.0064  0.3169
13433SOL    HW143191   3.044   4.161   0.638  1.7140  0.1085 -1.0297
13433SOL    HW243192   3.004   4.245   0.518 -0.2922 -0.5563 -0.8560
13434SOL     OW43193   1.432   4.984   2.964 -0.8485  0.3704  0.4954
13434SOL    HW143194   1.348   4.938   2.958 -1.7430  2.0113  0.0164
13434SOL    HW243195   1.463   4.989   2.873  0.0547 -0.6756  0.7173
13435SOL     OW43196   7.520   6.084   1.793 -0.5163  0.2294 -0.2248
13435SOL    HW143197   7.577   6.128   1.856  0.2583 -0.3591 -0.4965
13435SOL    HW243198   7.457   6.036   1.846 -0.4678  0.5034  0.0842
13436SOL     OW43199   0.717   2.347   4.006  0.6840  0.3443  0.8658
13436SOL    HW143200   0.686   2.436   4.019  0.4952  0.4671 -0.2761
13436SOL    HW243201   0.642   2.291   4.026 -0.5786  0.6605 -2.4037
13437SOL     OW43202   5.577   3.995   1.045 -0.1214  0.5578 -0.0536
13437SOL    HW143203   5.566   4.074   0.992 -2.1564 -0.3936 -1.1835
13437SOL    HW243204   5.568   3.923   0.982  3.0709 -0.6425  0.6975
13438SOL     OW43205   6.947   1.884   2.746 -0.0713  0.0375  0.3651
13438SOL    HW143206   7.035   1.917   2.726  0.7047 -1.8189  0.5489
13438SOL    HW243207   6.946   1.795   2.711 -1.6629 -0.2051  0.9538
13439SOL     OW43208   6.838   5.847   4.989  0.1326  0.0307 -0.1378
13439SOL    HW143209   6.832   5.800   5.072 -1.2937 -0.7368 -0.6304
13439SOL    HW243210   6.918   5.816   4.949  1.2361  0.9613  1.2476
13440SOL     OW43211   3.708   9.594   6.266 -0.1193  0.4099 -0.3910
13440SOL    HW143212   3.746   9.510   6.290  0.3098  0.2970 -1.4120
13440SOL    HW243213   3.784   9.650   6.249 -0.4042  0.8565 -0.1972
13441SOL     OW43214   4.124   1.217   8.942  0.8262  0.5281 -0.2122
13441SOL    HW143215   4.056   1.172   8.892  0.2723  0.6527  0.4136
13441SOL    HW243216   4.158   1.150   9.001 -0.5347  1.0634  1.2706
13442SOL     OW43217   3.613   0.797   7.215 -0.1588 -0.3647 -0.5111
13442SOL    HW143218   3.556   0.728   7.249 -0.1375  0.3238  0.9618
13442SOL    HW243219   3.555   0.853   7.164 -0.3513 -0.9284 -0.9276
13443SOL     OW43220   5.134   5.889   1.685  0.2402  0.2145  0.2139
13443SOL    HW143221   5.193   5.820   1.717  1.5270  0.0885 -2.1967
13443SOL    HW243222   5.061   5.841   1.646 -0.1115  0.3020  0.7569
13444SOL     OW43223   3.692   8.867   3.478  0.1580 -0.1239 -0.1714
13444SOL    HW143224   3.783   8.842   3.494 -0.2072 -0.4914  1.4355
13444SOL    HW243225   3.644   8.784   3.478 -0.0680 -0.0410 -2.0761
13445SOL     OW43226   9.524   4.414   1.556  0.0377  0.1935  0.1514
13445SOL    HW143227   9.564   4.500   1.566  1.3668 -0.3638 -0.2087
13445SOL    HW243228   9.503   4.387   1.646 -1.2906  1.2684  0.2041
13446SOL     OW43229   6.838   0.425   4.715  0.8884 -0.6116  0.0277
13446SOL    HW143230   6.932   0.411   4.730  1.6415  0.6143 -2.7448
13446SOL    HW243231   6.812   0.351   4.659  0.1312 -1.0472  0.9394
13447SOL     OW43232   3.106   1.502   7.026 -0.5465 -0.1174 -0.0050
13447SOL    HW143233   3.129   1.595   7.024  0.9810 -0.4142  1.2956
13447SOL    HW243234   3.081   1.481   6.936  0.4338  1.2463 -0.6261
13448SOL     OW43235   4.921   3.962   3.339 -0.9702  0.2260 -0.2846
13448SOL    HW143236   5.003   3.932   3.299 -1.2348 -1.9390  0.6721
13448SOL    HW243237   4.923   4.057   3.328  1.2264  0.1531 -1.1020
13449SOL     OW43238   2.360   5.857   5.711  0.0756  0.1732  0.1043
13449SOL    HW143239   2.384   5.793   5.777  1.6514  1.1857  0.5556
13449SOL    HW243240   2.277   5.825   5.676  0.7784 -2.0765  0.3450
13450SOL     OW43241   5.766   3.377   3.365 -0.0241 -0.0157  0.6478
13450SOL    HW143242   5.754   3.381   3.460  1.4522  1.7621  0.8158
13450SOL    HW243243   5.678   3.387   3.329 -0.4165  1.0649  1.8280
13451SOL     OW43244   9.464   5.504   6.443  0.2252  0.3393 -0.2089
13451SOL    HW143245   9.402   5.499   6.516  2.0961 -0.8492  1.3968
13451SOL    HW243246   9.532   5.564   6.473 -0.7256  2.7375 -2.5009
13452SOL     OW43247   8.802   0.598   8.788 -0.0223 -0.1428  0.1837
13452SOL    HW143248   8.873   0.534   8.783  0.7014  0.6347  0.2917
13452SOL    HW243249   8.779   0.616   8.696 -0.6990 -1.0451  0.1601
13453SOL     OW43250   0.421   5.010   1.222 -0.4635  0.2565  0.4875
13453SOL    HW143251   0.328   5.020   1.239 -0.3774  0.6682  0.7171
13453SOL    HW243252   0.452   4.953   1.293 -0.6577 -0.4136  0.0471
13454SOL     OW43253   4.513   2.167   2.420  0.8099  0.8072 -0.4386
13454SOL    HW143254   4.580   2.103   2.444 -0.4406 -1.0447 -1.6301
13454SOL    HW243255   4.449   2.162   2.491  1.5070  2.0209  0.3134
13455SOL     OW43256   3.260   1.847   2.065  0.1896 -0.5570  0.0979
13455SOL    HW143257   3.343   1.883   2.096 -0.0722  0.0996  0.0522
13455SOL    HW243258   3.281   1.758   2.035  1.2512  0.2623 -1.7151
13456SOL     OW43259   1.968   0.659   8.695  0.3628 -0.8406 -0.1446
13456SOL    HW143260   1.965   0.645   8.790  1.1853 -2.6764 -0.3566
13456SOL    HW243261   1.886   0.623   8.662  0.8332 -1.8160 -0.2900
13457SOL     OW43262   7.665   9.379   1.816 -0.4208  0.6500  0.3025
13457SOL    HW143263   7.609   9.416   1.884  0.1336  0.7833  0.6916
13457SOL    HW243264   7.752   9.416   1.834 -0.3824  1.1279 -0.8087
13458SOL     OW43265   8.860   1.206   8.911  0.0895  0.0411  0.0432
13458SOL    HW143266   8.945   1.166   8.928  1.0353  1.7305 -0.4850
13458SOL    HW243267   8.846   1.195   8.817 -0.0917  0.1088  0.0623
13459SOL     OW43268   6.184   9.332   0.768 -0.6191 -0.1203 -0.1140
13459SOL    HW143269   6.196   9.276   0.845  1.4334  0.8850  0.3698
13459SOL    HW243270   6.222   9.416   0.793 -2.8942  1.2994 -1.1007
13460SOL     OW43271   0.391   2.058   0.416 -0.6817 -0.1416 -0.2234
13460SOL    HW143272   0.439   2.093   0.341 -2.0058  0.8272 -0.6489
13460SOL    HW243273   0.436   1.976   0.437  1.6085  1.0357 -0.1416
13461SOL     OW43274   9.430   2.476   7.741  0.1095 -0.1105  0.4514
13461SOL    HW143275   9.489   2.519   7.802 -0.3755 -0.1973  0.9874
13461SOL    HW243276   9.477   2.476   7.658 -0.3107  2.5220  0.1286
13462SOL     OW43277   6.101   3.520   1.329 -0.0197 -0.2232  0.5748
13462SOL    HW143278   6.033   3.580   1.361  0.0755 -0.7213  1.7294
13462SOL    HW243279   6.179   3.575   1.322 -0.2796  0.1153  0.2047
13463SOL     OW43280   5.551   5.746   6.754  0.5346  0.4804  0.1737
13463SOL    HW143281   5.517   5.741   6.665  2.4659  0.5425 -0.6104
13463SOL    HW243282   5.637   5.704   6.750 -0.5918 -2.4357  2.7116
13464SOL     OW43283   0.609   9.130   9.201  0.0434 -0.1797  0.1502
13464SOL    HW143284   0.663   9.140   9.122  0.1320  0.2581  0.2683
13464SOL    HW243285   0.555   9.052   9.183  1.7430 -1.5248  0.6363
13465SOL     OW43286   2.304   2.787   6.429 -0.2528 -0.5562 -0.3574
13465SOL    HW143287   2.268   2.875   6.428 -0.9610 -0.7820  1.3413
13465SOL    HW243288   2.327   2.769   6.338 -0.5665  1.1732 -0.8130
13466SOL     OW43289   6.007   5.735   4.214  0.0469  0.0205  0.2653
13466SOL    HW143290   5.979   5.720   4.305 -0.2523  1.1308  0.3778
13466SOL    HW243291   5.947   5.803   4.183  1.6311  1.3490 -0.0037
13467SOL     OW43292   7.812   1.244   1.089 -0.0110  0.2957  0.2674
13467SOL    HW143293   7.876   1.209   1.151 -1.5617 -2.1254  0.6391
13467SOL    HW243294   7.728   1.231   1.131 -0.8850  2.5382 -0.6068
13468SOL     OW43295   5.315   6.321   4.426  0.1532 -0.4298 -0.1269
13468SOL    HW143296   5.298   6.415   4.418 -0.1685 -0.4493  0.2748
13468SOL    HW243297   5.408   6.311   4.405  0.3391  0.0650  0.4385
13469SOL     OW43298   8.446   8.840   1.532 -0.7955  0.0810 -0.1287
13469SOL    HW143299   8.384   8.910   1.552 -0.2825  0.6703 -0.5265
13469SOL    HW243300   8.478   8.862   1.444  1.0714  0.6450  0.6404
13470SOL     OW43301   3.628   1.278   6.086  0.0865  0.1864 -0.7355
13470SOL    HW143302   3.647   1.313   5.999 -1.5788  2.2766 -0.3428
13470SOL    HW243303   3.539   1.243   6.078  0.1224 -0.0672 -0.0183
13471SOL     OW43304   4.546   1.575   2.837 -0.0388  0.0500  0.4697
13471SOL    HW143305   4.459   1.548   2.867  0.3471 -0.4984  1.1285
13471SOL    HW243306   4.589   1.610   2.915  0.8904 -1.1687  0.5291
13472SOL     OW43307   0.982   0.948   1.089 -0.0787  0.9632  0.1096
13472SOL    HW143308   0.980   1.042   1.071 -2.5994  0.9215 -0.1588
13472SOL    HW243309   0.893   0.927   1.117  0.5051 -1.3046  0.4502
13473SOL     OW43310   6.478   8.442   5.277 -0.0437 -0.7392  0.1996
13473SOL    HW143311   6.493   8.356   5.238  1.4540 -0.6023  0.4083
13473SOL    HW243312   6.471   8.425   5.371 -0.5060 -0.7085  0.1743
13474SOL     OW43313   4.486   0.767   8.484 -0.0549 -0.6709  0.0665
13474SOL    HW143314   4.488   0.851   8.437  3.2089  0.2741  1.6191
13474SOL    HW243315   4.483   0.701   8.415  1.0654  0.6987 -1.3759
13475SOL     OW43316   6.899   3.730   7.132 -0.0381  0.0912 -0.0166
13475SOL    HW143317   6.928   3.640   7.116  1.8098  0.6645 -0.1937
13475SOL    HW243318   6.889   3.768   7.045 -0.6615  0.1054  0.0601
13476SOL     OW43319   8.801   6.375   6.290 -0.4590 -0.2957 -0.6509
13476SOL    HW143320   8.795   6.438   6.362 -0.5509 -0.1201 -0.8128
13476SOL    HW243321   8.850   6.420   6.221 -2.1498  0.3018 -1.5108
13477SOL     OW43322   0.625   1.084   4.635  0.6368 -0.0071 -0.2104
13477SOL    HW143323   0.561   1.020   4.605  1.2657 -0.2576 -1.0541
13477SOL    HW243324   0.704   1.066   4.583  1.2284  0.6208  0.4454
13478SOL     OW43325   1.404   4.205   2.885  0.0566  0.3725 -0.2987
13478SOL    HW143326   1.341   4.271   2.913  0.0922 -0.6984  2.5954
13478SOL    HW243327   1.405   4.212   2.789 -2.8129  1.8829 -0.3185
13479SOL     OW43328   0.329   6.312   8.798 -0.2892  0.3743 -0.0838
13479SOL    HW143329   0.343   6.387   8.857  0.0938  0.2054  0.0465
13479SOL    HW243330   0.416   6.272   8.791 -0.2919  0.4993 -0.9061
13480SOL     OW43331   4.246   0.778   2.806 -0.1522  0.2644 -0.1790
13480SOL    HW143332   4.225   0.866   2.839 -1.2109 -0.0423 -0.0136
13480SOL    HW243333   4.306   0.742   2.872  0.6825  1.0420 -0.5001
13481SOL     OW43334   0.561   3.144   9.061  0.8971 -0.2008 -0.3118
13481SOL    HW143335   0.555   3.072   8.998  0.1082 -1.7891  1.4753
13481SOL    HW243336   0.503   3.118   9.132  0.1364  2.5173  0.1607
13482SOL     OW43337   5.134   5.226   4.681 -0.1821  0.6743  0.0065
13482SOL    HW143338   5.225   5.241   4.656 -0.2069  0.8603  0.0285
13482SOL    HW243339   5.135   5.225   4.776 -0.6936  3.8804  0.1435
13483SOL     OW43340   5.138   8.955   0.079 -0.0749 -0.1996 -0.0897
13483SOL    HW143341   5.162   8.875   0.030 -0.5718 -0.3119 -0.1522
13483SOL    HW243342   5.052   8.936   0.116  0.3110 -0.1224  0.8668
13484SOL     OW43343   9.463   6.664   0.481  0.1972 -0.5166 -0.4213
13484SOL    HW143344   9.399   6.734   0.495  0.5170 -0.2140 -0.4680
13484SOL    HW243345   9.535   6.687   0.539 -0.0583 -1.2686  0.2075
13485SOL     OW43346   3.096   5.740   3.769 -0.3295  0.1616 -0.8523
13485SOL    HW143347   3.007   5.713   3.794 -0.0718 -0.5701 -0.6877
13485SOL    HW243348   3.083   5.817   3.714 -1.0162  0.6868  0.0122
13486SOL     OW43349   9.170   5.511   0.027 -0.4592  0.1726 -0.8776
13486SOL    HW143350   9.107   5.543   0.092 -0.6167  2.3121 -1.9913
13486SOL    HW243351   9.187   5.587  -0.029 -0.4707 -1.5956 -3.4647
13487SOL     OW43352   7.229   7.236   7.201 -0.0184  0.4366 -0.1139
13487SOL    HW143353   7.288   7.309   7.182  0.7223  0.1342  0.9915
13487SOL    HW243354   7.252   7.208   7.289  0.8680 -2.2479 -1.1024
13488SOL     OW43355   3.843   5.040   1.406  0.0427 -0.2862 -0.0372
13488SOL    HW143356   3.861   5.025   1.499  0.6558 -1.0005 -0.2569
13488SOL    HW243357   3.821   5.133   1.401 -1.9150 -0.6257  1.0977
13489SOL     OW43358   0.070   3.063   4.527 -0.2302  0.2382 -0.0894
13489SOL    HW143359   0.036   3.151   4.544 -1.5952 -0.3250  0.2024
13489SOL    HW243360   0.165   3.074   4.526 -0.3823  1.7212 -0.0973
13490SOL     OW43361   3.701   8.731   1.656 -0.5731  0.0145 -0.1550
13490SOL    HW143362   3.781   8.681   1.674  0.5418  1.6048 -0.5141
13490SOL    HW243363   3.630   8.669   1.675  0.7305 -1.8617 -1.0212
13491SOL     OW43364   0.951   5.464   2.830 -0.0019  0.0324  0.2352
13491SOL    HW143365   0.919   5.487   2.743 -2.1975 -0.8385  0.7289
13491SOL    HW243366   1.046   5.474   2.825 -0.2099  1.5885 -1.7592
13492SOL     OW43367   2.737   7.279   0.135  0.4002  0.3341 -0.0724
13492SOL    HW143368   2.647   7.267   0.104 -0.7767  3.3155  1.7582
13492SOL    HW243369   2.781   7.326   0.063 -0.0867  0.6140 -0.1881
13493SOL     OW43370   7.336   2.845   0.120  0.6545  0.6204  0.0856
13493SOL    HW143371   7.284   2.896   0.183  0.1236  0.9279 -0.5861
13493SOL    HW243372   7.271   2.802   0.064  1.1166  0.8273 -0.6281
13494SOL     OW43373   0.764   0.518   2.777  0.6245  0.0624 -0.2956
13494SOL    HW143374   0.806   0.510   2.863  1.6620  1.2246 -0.6590
13494SOL    HW243375   0.835   0.545   2.718 -1.0521  5.4372 -0.3514
13495SOL     OW43376   2.299   9.388   3.472 -0.5194  0.1299 -0.3893
13495SOL    HW143377   2.305   9.449   3.546  1.4413 -0.1198 -0.2958
13495SOL    HW243378   2.378   9.335   3.478 -0.4377 -0.0728 -2.5250
13496SOL     OW43379   2.932   5.172   1.622  0.2063 -0.2805  0.4173
13496SOL    HW143380   2.971   5.115   1.689  2.0523 -0.7379 -0.9592
13496SOL    HW243381   2.853   5.126   1.595  0.1161 -0.7225  1.3697
13497SOL     OW43382   5.776   7.744   5.621 -0.0131 -0.1708 -0.1723
13497SOL    HW143383   5.713   7.672   5.619 -1.6509  1.0548  1.8347
13497SOL    HW243384   5.859   7.703   5.644 -0.7236 -1.5111  0.1325
13498SOL     OW43385   7.781   4.475   0.558  0.1120  0.0918 -0.3414
13498SOL    HW143386   7.734   4.408   0.509  1.2674 -0.7459 -0.3336
13498SOL    HW243387   7.715   4.514   0.615 -0.8274 -0.2267 -1.1814
13499SOL     OW43388   7.227   8.826   8.538 -0.2527  0.6113 -0.0631
13499SOL    HW143389   7.266   8.784   8.615 -1.0379  0.8093  0.4548
13499SOL    HW243390   7.169   8.893   8.575 -2.4802 -0.8467 -0.7120
13500SOL     OW43391   8.599   3.292   0.995  0.9582 -0.2928  0.1804
13500SOL    HW143392   8.560   3.211   0.962  2.0870 -0.7952  0.0326
13500SOL    HW243393   8.568   3.360   0.934  0.9073 -0.7955 -0.3639
13501SOL     OW43394   5.557   8.910   0.756 -0.1701  0.4001 -0.2000
13501SOL    HW143395   5.578   8.886   0.846 -0.9234  0.7807  0.0810
13501SOL    HW243396   5.582   8.833   0.704  0.7324  0.3682  0.2672
13502SOL     OW43397   0.453   9.230   0.249  0.0509  0.0472 -0.0692
13502SOL    HW143398   0.435   9.285   0.173 -2.6652 -1.6636 -0.8027
13502SOL    HW243399   0.473   9.143   0.213  0.4795 -0.3951  1.1488
13503SOL     OW43400   0.497   2.248   2.771  0.2652  0.2901  0.2293
13503SOL    HW143401   0.425   2.250   2.835 -0.1749 -0.4683 -0.2242
13503SOL    HW243402   0.576   2.237   2.824 -0.0060  0.5489  0.6958
13504SOL     OW43403   2.698   6.790   5.851  0.3059  0.1407 -1.1613
13504SOL    HW143404   2.649   6.844   5.790 -0.0240 -0.5327 -1.5097
13504SOL    HW243405   2.637   6.720   5.876  0.4179  0.4334 -0.0101
13505SOL     OW43406   2.093   1.674   2.709 -0.3336  0.1221 -0.7640
13505SOL    HW143407   2.143   1.707   2.784 -0.7059 -0.9041 -0.0445
13505SOL    HW243408   2.151   1.689   2.634  0.8243 -0.4807 -0.0301
13506SOL     OW43409   3.103   8.544   5.413  0.6899  0.2642  0.5622
13506SOL    HW143410   3.152   8.500   5.344 -0.5618 -0.7085  0.2702
13506SOL    HW243411   3.168   8.602   5.455  1.8268 -0.2463 -0.4379
13507SOL     OW43412   1.871   6.587   3.248  0.1846 -0.4585 -0.7616
13507SOL    HW143413   1.802   6.584   3.182  1.4010  1.1929 -2.1724
13507SOL    HW243414   1.851   6.665   3.300  0.0990 -0.8858 -0.1453
13508SOL     OW43415   6.728   7.474   9.054 -0.4992 -0.0140  0.6637
13508SOL    HW143416   6.710   7.481   9.148  0.2913 -1.5482  0.9584
13508SOL    HW243417   6.816   7.436   9.050 -1.3217 -1.8879 -0.6856
13509SOL     OW43418   6.634   8.362   1.729 -0.1689 -0.8213  0.6703
13509SOL    HW143419   6.582   8.317   1.663 -1.2188 -0.2521  1.0854
13509SOL    HW243420   6.640   8.452   1.699 -2.5792  0.0025  2.3905
13510SOL     OW43421   4.705   7.138   2.707 -0.1009  0.1571 -0.1561
13510SOL    HW143422   4.727   7.058   2.753  0.2717  0.3568  0.0198
13510SOL    HW243423   4.786   7.165   2.664 -0.3734  0.1222 -0.7090
13511SOL     OW43424   3.851   0.980   9.294  0.3663  0.2970  0.6062
13511SOL    HW143425   3.814   0.975   9.206  1.4420  1.0351  0.0968
13511SOL    HW243426   3.946   0.979   9.280  0.6096 -2.1946  1.8983
13512SOL     OW43427   4.519   3.507   6.672 -0.0561  0.0627 -0.0910
13512SOL    HW143428   4.490   3.493   6.581 -0.4522 -1.4803  0.2498
13512SOL    HW243429   4.508   3.601   6.686  0.9249  0.5002 -1.9488
13513SOL     OW43430   1.084   6.025   5.908 -0.3846  0.0156  0.1544
13513SOL    HW143431   1.021   6.060   5.844 -2.4511 -0.4741  1.8224
13513SOL    HW243432   1.086   6.090   5.978 -1.5135 -1.4277  1.5978
13514SOL     OW43433   4.845   8.998   6.107  0.0263  0.5133 -0.1783
13514SOL    HW143434   4.818   9.089   6.119 -1.2089 -0.0873  2.0803
13514SOL    HW243435   4.815   8.975   6.019 -0.6592  1.9547 -0.3445
13515SOL     OW43436   1.839   1.542   6.827  0.4245  0.1315  0.1127
13515SOL    HW143437   1.816   1.451   6.845 -1.6730  0.3457 -1.2296
13515SOL    HW243438   1.860   1.578   6.913 -2.1810 -0.7261  1.2149
13516SOL     OW43439   7.429   1.530   2.100  0.2943 -0.1471 -0.1321
13516SOL    HW143440   7.463   1.441   2.089  1.3069  0.2241 -0.0556
13516SOL    HW243441   7.349   1.518   2.152  1.8330 -0.8143  2.2403
13517SOL     OW43442   9.106   0.798   7.916  0.2775  0.2953 -0.5216
13517SOL    HW143443   9.150   0.876   7.882  0.4124  0.3889 -0.1397
13517SOL    HW243444   9.041   0.777   7.850  1.9679 -0.8175 -1.9071
13518SOL     OW43445   4.525   5.508   0.796  0.0100  0.2533  0.1762
13518SOL    HW143446   4.431   5.518   0.807 -0.2011 -1.2957  0.0761
13518SOL    HW243447   4.543   5.537   0.707 -0.1880  1.5737  0.5566
13519SOL     OW43448   0.460   5.070   2.034  0.1849 -1.2570  0.3789
13519SOL    HW143449   0.534   5.132   2.032 -0.8744  0.1358  1.7983
13519SOL    HW243450   0.501   4.984   2.027  1.7164 -0.4542 -1.8065
13520SOL     OW43451   2.204   1.318   8.526  0.8097  0.3556 -0.1454
13520SOL    HW143452   2.259   1.396   8.537 -0.2471  0.9703  1.2569
13520SOL    HW243453   2.142   1.343   8.457  0.3202  0.8655  0.4701
13521SOL     OW43454   8.082   8.036   7.539  0.1546  0.8107 -0.1727
13521SOL    HW143455   8.101   8.128   7.522 -1.1708  0.7717 -2.1040
13521SOL    HW243456   7.988   8.033   7.557  0.1768 -0.1666 -0.1275
13522SOL     OW43457   1.882   0.573   4.520 -0.0219 -0.1042  0.0423
13522SOL    HW143458   1.867   0.624   4.441 -1.5044 -0.4491  0.0799
13522SOL    HW243459   1.877   0.636   4.591 -0.5466 -0.0914 -0.0063
13523SOL     OW43460   0.187   6.735   6.403  0.1235 -0.6084 -0.2744
13523SOL    HW143461   0.115   6.715   6.463  0.2285 -1.9903 -0.5723
13523SOL    HW243462   0.262   6.685   6.438  0.4935 -0.4933 -0.8833
13524SOL     OW43463   8.423   7.758   5.868 -0.3924 -0.5547  0.4376
13524SOL    HW143464   8.490   7.695   5.843  0.6757  0.1361  1.4768
13524SOL    HW243465   8.391   7.728   5.952 -0.7532 -0.3851  0.3650
13525SOL     OW43466   5.532   3.019   9.137 -0.3313  0.0189 -0.2590
13525SOL    HW143467   5.627   3.028   9.135 -0.1035 -0.9171  2.2513
13525SOL    HW243468   5.499   3.095   9.090  1.6349 -0.3823 -2.4588
13526SOL     OW43469   3.270   4.092   6.412 -0.3892 -0.2813  0.7223
13526SOL    HW143470   3.354   4.058   6.442  0.7228  0.7408 -1.0354
13526SOL    HW243471   3.285   4.118   6.321 -3.5778 -3.4320 -0.9819
13527SOL     OW43472   4.747   2.621   5.301  0.0461  0.0364  0.0916
13527SOL    HW143473   4.828   2.571   5.295 -0.7607 -1.7088  2.0048
13527SOL    HW243474   4.769   2.698   5.353  0.6973  0.1210 -0.3077
13528SOL     OW43475   5.555   2.404   3.167  0.2176 -0.4448 -0.1096
13528SOL    HW143476   5.624   2.457   3.207 -0.9905  0.3721  0.9458
13528SOL    HW243477   5.584   2.392   3.077  1.8527 -0.3318  0.3752
13529SOL     OW43478   1.668   2.049   4.393 -0.5153 -0.0952  0.0536
13529SOL    HW143479   1.715   2.129   4.367 -0.5299 -0.4581 -1.1194
13529SOL    HW243480   1.706   2.027   4.479  3.1902 -1.6058 -1.7219
13530SOL     OW43481   9.382   0.568   1.408  0.4321 -0.5686  0.1162
13530SOL    HW143482   9.334   0.616   1.476 -0.3093 -2.9287  1.3424
13530SOL    HW243483   9.333   0.487   1.395  2.8425 -2.0745 -0.2004
13531SOL     OW43484   8.514   1.730   2.708  0.8660  0.1606  0.6404
13531SOL    HW143485   8.517   1.692   2.796  0.4004  1.4173  1.2263
13531SOL    HW243486   8.538   1.658   2.650  0.6420 -0.8459  1.7526
13532SOL     OW43487   8.621   8.289   6.310 -0.2797 -0.2836  0.4402
13532SOL    HW143488   8.536   8.296   6.354 -1.0372 -0.2275 -0.9934
13532SOL    HW243489   8.610   8.335   6.227  1.2301 -0.0811  0.3187
13533SOL     OW43490   9.172   2.644   3.318 -0.3274  0.4543  0.4810
13533SOL    HW143491   9.116   2.682   3.386 -0.5536 -0.1175  0.6193
13533SOL    HW243492   9.220   2.719   3.283  1.0334  0.5434  2.3929
13534SOL     OW43493   5.998   8.157   3.932  0.3346 -0.0881 -0.0274
13534SOL    HW143494   5.913   8.196   3.951  0.7744  1.7415 -1.5541
13534SOL    HW243495   6.052   8.229   3.899  2.0164 -1.4802 -0.5237
13535SOL     OW43496   8.966   7.636   7.610 -0.2677  0.5816 -0.2988
13535SOL    HW143497   9.057   7.609   7.598 -1.2087 -2.8324 -1.0637
13535SOL    HW243498   8.953   7.707   7.547  1.5705  0.3104 -1.0373
13536SOL     OW43499   3.885   3.871   6.223 -0.1604  0.2737 -0.2750
13536SOL    HW143500   3.800   3.852   6.262  0.1160 -1.3887 -0.4343
13536SOL    HW243501   3.896   3.804   6.155  1.2155  0.5502 -0.3527
13537SOL     OW43502   8.557   5.980   5.865  0.5503  0.1404 -0.4378
13537SOL    HW143503   8.508   6.060   5.844 -0.8725 -0.7200 -0.5236
13537SOL    HW243504   8.579   5.943   5.780 -0.4366 -0.5060 -0.4322
13538SOL     OW43505   3.011   2.708   9.430  0.3116 -0.1533 -0.0744
13538SOL    HW143506   2.961   2.667   9.359 -0.6324  0.8426 -0.0037
13538SOL    HW243507   3.034   2.635   9.487  0.1580 -0.8226 -0.8459
13539SOL     OW43508   6.886   7.747   7.625 -0.8452  0.2578 -0.3395
13539SOL    HW143509   6.946   7.809   7.583  0.1420 -1.7570 -2.0873
13539SOL    HW243510   6.934   7.713   7.700  0.1306 -1.0358 -1.4935
13540SOL     OW43511   8.422   6.176   0.714 -0.2975 -0.2327 -0.0320
13540SOL    HW143512   8.457   6.120   0.645  0.3275 -0.6177  0.5725
13540SOL    HW243513   8.396   6.256   0.670  1.3703  0.0735 -0.5185
13541SOL     OW43514   6.862   1.514   6.070 -0.1366 -0.1296  0.2003
13541SOL    HW143515   6.806   1.469   6.007 -2.7451  1.3148  1.3048
13541SOL    HW243516   6.872   1.451   6.142  1.1557 -1.0288 -0.7369
13542SOL     OW43517   0.616   2.552   9.254 -0.0250 -0.0193  0.5488
13542SOL    HW143518   0.672   2.607   9.199  0.5283 -0.9505  0.1412
13542SOL    HW243519   0.646   2.568   9.343 -0.6924  1.2432  0.5683
13543SOL     OW43520   2.839   4.688   2.916 -0.1379 -0.3238 -0.0294
13543SOL    HW143521   2.791   4.764   2.948  1.8591  0.2074  1.9520
13543SOL    HW243522   2.790   4.613   2.948 -1.0740  0.1553 -0.3205
13544SOL     OW43523   7.773   2.208   7.948 -0.0791  0.0785  0.1908
13544SOL    HW143524   7.825   2.220   8.027 -0.1864 -1.1225  0.4661
13544SOL    HW243525   7.764   2.296   7.911 -0.1028  0.6817  1.5632
13545SOL     OW43526   8.065   4.397   4.780 -0.2124  0.0216 -0.3411
13545SOL    HW143527   8.119   4.320   4.767 -0.9782 -0.5991  0.0687
13545SOL    HW243528   8.127   4.467   4.800  0.5754 -0.1958 -1.9149
13546SOL     OW43529   5.628   8.877   8.617  0.0596 -0.0866 -0.7340
13546SOL    HW143530   5.689   8.813   8.580 -0.3949 -0.5875 -0.6257
13546SOL    HW243531   5.669   8.904   8.700 -0.6492 -1.6820  0.1793
13547SOL     OW43532   5.091   5.304   3.057 -0.2850 -0.1960  0.3131
13547SOL    HW143533   5.017   5.313   3.117 -0.5347 -2.6636  0.4924
13547SOL    HW243534   5.070   5.228   3.003  2.0529 -0.9384  0.3125
13548SOL     OW43535   5.653   2.344   5.841 -0.1005 -0.1751  0.2987
13548SOL    HW143536   5.687   2.420   5.887 -0.4996  0.3114 -0.1893
13548SOL    HW243537   5.690   2.351   5.753  0.9880 -1.3144  0.6254
13549SOL     OW43538   7.959   1.700   1.024 -0.2540  0.6042  0.5798
13549SOL    HW143539   7.880   1.675   1.072 -0.7263 -0.4004 -0.6764
13549SOL    HW243540   7.931   1.773   0.968 -0.7490 -0.7736 -1.0424
13550SOL     OW43541   6.703   9.021   4.549 -0.0077 -0.0773 -0.2291
13550SOL    HW143542   6.714   9.111   4.581 -0.3504  0.1060 -0.6208
13550SOL    HW243543   6.723   9.027   4.456 -1.3221 -0.1518 -0.5317
13551SOL     OW43544   1.525   0.406   6.475  0.2113 -0.5845 -0.3314
13551SOL    HW143545   1.507   0.499   6.491 -0.2458 -0.7561  0.2043
13551SOL    HW243546   1.556   0.402   6.385 -1.4714 -0.1179 -0.9831
13552SOL     OW43547   1.099   2.441   9.477  0.4059  0.2071  0.0298
13552SOL    HW143548   1.123   2.477   9.392  1.4892 -0.7239 -0.0790
13552SOL    HW243549   1.016   2.485   9.499  1.0723  1.8786 -0.6033
13553SOL     OW43550   7.321   6.827   2.457  0.1308 -0.8740  0.6301
13553SOL    HW143551   7.346   6.912   2.421 -0.9438 -0.0881  1.6634
13553SOL    HW243552   7.390   6.808   2.522  0.3303 -0.7529  0.4550
13554SOL     OW43553   6.507   6.148   8.900  0.1700  0.9922 -0.3673
13554SOL    HW143554   6.597   6.142   8.932  0.1573  2.4004 -0.0262
13554SOL    HW243555   6.467   6.218   8.951 -0.5655  1.6558 -1.7790
13555SOL     OW43556   2.342   4.965   3.992 -0.2586  0.5717  0.4080
13555SOL    HW143557   2.287   5.039   4.021 -0.7611  0.1241  0.6142
13555SOL    HW243558   2.431   4.991   4.013 -0.4149  1.1992  0.3193
13556SOL     OW43559   0.914   8.927   3.110  0.5940  0.3133 -0.3514
13556SOL    HW143560   0.957   8.915   3.026  0.2656 -1.7597 -0.2769
13556SOL    HW243561   0.869   8.844   3.126  0.5283  0.7050  1.8079
13557SOL     OW43562   2.291   0.627   6.021 -0.7284 -0.1759 -0.1460
13557SOL    HW143563   2.215   0.631   5.963 -0.6211 -1.2322 -0.3850
13557SOL    HW243564   2.348   0.563   5.980 -0.9668 -1.4942  1.4927
13558SOL     OW43565   5.252   7.047   9.260 -0.0549 -0.0631 -0.3126
13558SOL    HW143566   5.234   6.965   9.306  0.4160  1.0370  1.9775
13558SOL    HW243567   5.292   7.019   9.178  0.9412 -2.1391  0.7793
13559SOL     OW43568   1.445   9.081   1.322 -0.3171 -0.5203  0.0281
13559SOL    HW143569   1.370   9.141   1.325  0.7800  0.8793  2.7037
13559SOL    HW243570   1.434   9.025   1.399  2.7343  1.6551  2.3003
13560SOL     OW43571   4.727   8.311   4.449  0.1192 -0.0578 -0.0649
13560SOL    HW143572   4.740   8.406   4.444  0.3430 -0.0921 -0.1387
13560SOL    HW243573   4.730   8.281   4.358 -1.8669  0.1049 -0.2307
13561SOL     OW43574   7.377   7.861   8.538 -0.5556 -0.1942  0.1893
13561SOL    HW143575   7.377   7.926   8.468 -0.7172  1.0195  1.2930
13561SOL    HW243576   7.293   7.816   8.529 -0.5241 -0.1262 -0.4681
13562SOL     OW43577   4.670   7.780   5.824 -0.0355 -0.2965 -0.3389
13562SOL    HW143578   4.735   7.842   5.790  0.9021 -0.8195  0.4468
13562SOL    HW243579   4.722   7.713   5.867 -1.0241 -1.6579 -1.1859
13563SOL     OW43580   7.480   9.394   8.698 -0.1274  0.1171  0.1751
13563SOL    HW143581   7.466   9.311   8.653  1.1166 -0.3751  0.6585
13563SOL    HW243582   7.562   9.428   8.661  0.0146  0.5309  0.8564
13564SOL     OW43583   1.716   6.907   1.547 -0.0073 -0.5446  0.7032
13564SOL    HW143584   1.724   6.946   1.634 -0.8048  0.0183  0.5341
13564SOL    HW243585   1.626   6.873   1.544  0.1798 -1.0147  0.2831
13565SOL     OW43586   6.675   9.027   3.805 -0.1488 -0.1826  0.3448
13565SOL    HW143587   6.646   9.063   3.890 -0.7070  0.9353 -0.2948
13565SOL    HW243588   6.597   8.983   3.771 -0.7178  1.5438 -0.7043
13566SOL     OW43589   4.247   4.835   3.222 -0.3642 -0.2689  0.0274
13566SOL    HW143590   4.153   4.825   3.237 -0.1501  0.3410  1.9724
13566SOL    HW243591   4.283   4.860   3.307  1.7977 -1.9760 -0.2786
13567SOL     OW43592   7.710   0.121   4.598  0.3074  0.2573 -0.4958
13567SOL    HW143593   7.685   0.048   4.655  0.4334 -0.2836 -1.1139
13567SOL    HW243594   7.628   0.165   4.579  0.2026  0.1627 -0.2750
13568SOL     OW43595   1.638   0.118   8.792 -0.0337 -0.6669  0.0317
13568SOL    HW143596   1.604   0.117   8.881  0.4599  0.4172  0.2517
13568SOL    HW243597   1.719   0.168   8.798  0.7047 -1.7299 -0.7953
13569SOL     OW43598   0.207   4.935   6.972 -0.0007 -0.0757  0.2993
13569SOL    HW143599   0.169   5.022   6.962 -0.7507 -0.5206 -0.9973
13569SOL    HW243600   0.146   4.877   6.925  2.4474 -0.7948 -2.2605
13570SOL     OW43601   3.589   2.451   8.431 -0.1868 -0.4931  0.2369
13570SOL    HW143602   3.495   2.469   8.431 -0.5554 -2.2110 -0.6464
13570SOL    HW243603   3.604   2.401   8.511  0.0655  0.1382  0.5912
13571SOL     OW43604   6.536   8.518   6.225  0.0619  0.4387  0.2799
13571SOL    HW143605   6.564   8.605   6.196  0.5211  0.5320  0.9862
13571SOL    HW243606   6.451   8.505   6.182 -0.1466  1.3501  0.3892
13572SOL     OW43607   0.240   3.250   0.481  0.5202  0.2032 -0.1871
13572SOL    HW143608   0.152   3.270   0.514  0.0947  2.0931 -2.2113
13572SOL    HW243609   0.277   3.336   0.460  1.6246 -0.7307 -2.2932
13573SOL     OW43610   0.586   6.629   4.147 -0.2297  0.5219 -0.3570
13573SOL    HW143611   0.659   6.666   4.098  0.0743 -1.4439 -1.5124
13573SOL    HW243612   0.523   6.602   4.080 -1.3593  0.8238  0.5423
13574SOL     OW43613   4.813   7.815   5.476 -1.0002  0.1828  0.2588
13574SOL    HW143614   4.795   7.770   5.393 -3.2155 -0.3771  0.9570
13574SOL    HW243615   4.855   7.897   5.451  0.8502 -1.1229 -1.2151
13575SOL     OW43616   8.433   3.228   8.234  0.3455  0.2485  0.1372
13575SOL    HW143617   8.382   3.264   8.306 -3.0119 -1.3944 -1.2162
13575SOL    HW243618   8.448   3.137   8.258  1.1854  0.2533 -0.2991
13576SOL     OW43619   1.222   4.090   6.781 -0.3417 -0.4227 -0.1694
13576SOL    HW143620   1.206   4.183   6.772  3.5725  0.4973  0.6600
13576SOL    HW243621   1.264   4.064   6.699  0.1251 -1.0579  0.2600
13577SOL     OW43622   3.299   8.613   0.086 -0.5066 -0.5627 -0.7976
13577SOL    HW143623   3.295   8.706   0.061 -2.2031 -0.7301 -1.3204
13577SOL    HW243624   3.243   8.608   0.164 -0.7032 -1.2000 -0.9793
13578SOL     OW43625   0.086   8.103   0.156  0.1994  0.0424  0.3111
13578SOL    HW143626   0.047   8.055   0.083  0.9625  0.7710 -0.6105
13578SOL    HW243627   0.124   8.181   0.115 -1.0198  1.4554  1.7513
13579SOL     OW43628   7.165   5.090   2.985 -0.0866  0.4663  0.0682
13579SOL    HW143629   7.119   5.022   3.033 -0.0071  0.9106  0.7891
13579SOL    HW243630   7.248   5.101   3.031 -0.5075  1.7351  0.5926
13580SOL     OW43631   0.952   2.846   7.789  0.4331 -0.3166  0.4796
13580SOL    HW143632   0.946   2.941   7.781 -0.3042 -0.2799  1.3447
13580SOL    HW243633   1.023   2.832   7.852  2.1447 -0.4388 -1.3573
13581SOL     OW43634   4.696   1.239   1.566  0.9966 -0.3000  0.8535
13581SOL    HW143635   4.746   1.171   1.522  0.4039 -0.1879  0.0036
13581SOL    HW243636   4.611   1.200   1.584  1.1073 -0.2273  1.5885
13582SOL     OW43637   7.933   9.568   1.071  0.5709  0.1119  0.5497
13582SOL    HW143638   7.935   9.659   1.041 -0.6937  0.6970  2.1043
13582SOL    HW243639   7.849   9.560   1.117 -1.0861 -2.8615 -2.5212
13583SOL     OW43640   9.456   5.356   3.628 -0.1216 -0.9221  0.1302
13583SOL    HW143641   9.517   5.403   3.685  0.6796 -2.8117  0.8956
13583SOL    HW243642   9.376   5.348   3.680 -0.2031 -0.6088  0.0611
13584SOL     OW43643   5.245   0.898   6.203 -0.3066 -0.7495  0.0245
13584SOL    HW143644   5.232   0.990   6.227  1.5776 -0.2500 -0.6096
13584SOL    HW243645   5.298   0.862   6.274  1.6578 -0.4212 -1.1824
13585SOL     OW43646   0.979   8.333   2.128 -0.1223 -0.2367 -0.0704
13585SOL    HW143647   1.008   8.409   2.078  1.1360 -0.8952 -0.3910
13585SOL    HW243648   0.898   8.362   2.171  0.0936  1.1273 -0.5241
13586SOL     OW43649   5.281   4.896   4.057 -0.5209 -0.1479 -0.1630
13586SOL    HW143650   5.274   4.985   4.022  0.3524  0.0246  0.0807
13586SOL    HW243651   5.297   4.841   3.980  0.2867  0.0911 -0.1818
13587SOL     OW43652   2.666   3.185   6.999 -0.3921  0.6714 -0.2499
13587SOL    HW143653   2.615   3.142   6.930 -0.4029 -0.4290  0.4112
13587SOL    HW243654   2.674   3.276   6.970  0.4478  0.0375 -2.1732
13588SOL     OW43655   4.648   6.470   8.790 -0.3757 -0.7204  0.1086
13588SOL    HW143656   4.623   6.383   8.759 -1.4256 -0.9856  1.6055
13588SOL    HW243657   4.585   6.530   8.750 -0.8618 -0.8980  0.5922
13589SOL     OW43658   2.555   3.536   7.532 -0.2297  0.2825  0.1183
13589SOL    HW143659   2.625   3.601   7.529  0.0049 -0.0071 -1.5163
13589SOL    HW243660   2.580   3.478   7.605  0.8962  0.5486 -0.0296
13590SOL     OW43661   9.535   6.104   1.347 -0.2385  0.4906  0.2906
13590SOL    HW143662   9.483   6.176   1.313  1.5420  3.6306  3.4982
13590SOL    HW243663   9.621   6.116   1.308 -0.4639 -1.4058 -0.8986
13591SOL     OW43664   4.896   3.097   7.833  0.1690  0.2694  0.2525
13591SOL    HW143665   4.985   3.115   7.804  0.8146  0.3551  2.1660
13591SOL    HW243666   4.879   3.163   7.901 -0.6977 -0.8426  1.1495
13592SOL     OW43667   2.938   0.122   8.545  0.1310  0.2987 -0.1715
13592SOL    HW143668   2.954   0.202   8.596 -1.7421 -0.1202  1.1640
13592SOL    HW243669   2.990   0.055   8.589 -1.1856  0.0196  0.9889
13593SOL     OW43670   5.847   3.787   8.943 -0.5837 -0.2978  0.1129
13593SOL    HW143671   5.786   3.842   8.894 -0.1045  0.8781  0.7862
13593SOL    HW243672   5.811   3.784   9.032 -0.4960 -0.9057  0.1297
13594SOL     OW43673   8.464   6.950   1.386  1.1142  0.0652 -0.2899
13594SOL    HW143674   8.444   6.944   1.293 -0.0666  2.0852 -0.2172
13594SOL    HW243675   8.427   7.034   1.414  2.3119 -0.0149  1.7915
13595SOL     OW43676   7.815   5.018   4.101  0.1981  0.5471 -0.3409
13595SOL    HW143677   7.734   4.967   4.093  0.2939  0.2250  0.6587
13595SOL    HW243678   7.800   5.094   4.045  0.3345 -0.9046 -2.4863
13596SOL     OW43679   1.823   2.105   9.568  0.0482  0.1326  0.0420
13596SOL    HW143680   1.758   2.175   9.577 -0.2045  0.1066 -1.4014
13596SOL    HW243681   1.899   2.147   9.529  1.5796  0.5193  3.1776
13597SOL     OW43682   7.958   5.734   8.667  0.2774  0.3150 -0.1053
13597SOL    HW143683   7.897   5.740   8.594 -1.1156  1.4481  1.0882
13597SOL    HW243684   7.980   5.825   8.688  0.8561  0.0003  0.7172
13598SOL     OW43685   2.058   2.210   1.345  0.5670  0.2818  0.1726
13598SOL    HW143686   2.071   2.284   1.404 -1.5560  0.6800  0.2096
13598SOL    HW243687   2.146   2.190   1.312  1.4958  1.4152  1.8024
13599SOL     OW43688   7.698   7.918   6.738  0.1947  0.3564 -0.2824
13599SOL    HW143689   7.717   7.997   6.789  0.9672 -0.8372  1.4071
13599SOL    HW243690   7.784   7.877   6.725 -0.4409 -2.1098  2.2501
13600SOL     OW43691   2.646   0.206   9.357  0.4148 -0.2743  0.3231
13600SOL    HW143692   2.615   0.165   9.276  0.9097  0.0057 -0.0058
13600SOL    HW243693   2.732   0.241   9.336  0.1558  0.6202  0.7079
13601SOL     OW43694   5.168   2.817   2.964 -0.3503 -0.1348  0.0409
13601SOL    HW143695   5.130   2.840   2.879 -1.2114 -1.6367 -0.0235
13601SOL    HW243696   5.109   2.750   2.999  0.1212  0.2826  1.7303
13602SOL     OW43697   0.961   3.844   4.961  0.7701  0.2172  0.0135
13602SOL    HW143698   0.882   3.789   4.963 -0.1960  1.5079 -0.7024
13602SOL    HW243699   1.019   3.800   4.899  0.1735 -0.1988 -0.2654
13603SOL     OW43700   6.497   3.138   4.489 -0.4960  0.2022  0.5268
13603SOL    HW143701   6.435   3.160   4.558 -2.9442  0.7175 -1.6845
13603SOL    HW243702   6.474   3.195   4.416  1.6340 -0.6547 -0.9334
13604SOL     OW43703   7.808   7.232   4.708 -0.0701 -0.4619  0.2597
13604SOL    HW143704   7.867   7.291   4.661 -1.2144  2.0180  1.7333
13604SOL    HW243705   7.834   7.240   4.800 -1.1635 -1.2120  0.6535
13605SOL     OW43706   6.763   2.408   3.607 -0.6625 -0.8785 -0.5351
13605SOL    HW143707   6.736   2.446   3.524 -2.2629 -0.1514  0.2755
13605SOL    HW243708   6.835   2.465   3.637 -1.7518  0.4059 -0.2579
13606SOL     OW43709   3.967   3.707   5.369  0.4912 -0.3040 -0.1055
13606SOL    HW143710   3.901   3.662   5.317 -0.1057  0.1802  0.2299
13606SOL    HW243711   4.043   3.649   5.367  0.6638 -0.0788 -1.9367
13607SOL     OW43712   8.050   5.695   0.518 -0.1734 -0.5455 -0.4117
13607SOL    HW143713   7.970   5.735   0.484  0.0156  0.6569  0.5323
13607SOL    HW243714   8.020   5.617   0.565 -0.9385  0.5853  1.0292
13608SOL     OW43715   7.750   2.832   6.637  0.2506  0.7472 -0.2343
13608SOL    HW143716   7.707   2.815   6.720  2.8124  0.3493  1.1175
13608SOL    HW243717   7.771   2.745   6.602 -1.4985  0.8770 -1.7526
13609SOL     OW43718   6.597   3.752   7.859 -0.2517  0.1626  0.5019
13609SOL    HW143719   6.548   3.834   7.866 -1.6423 -0.6078  0.0087
13609SOL    HW243720   6.613   3.741   7.765  0.3713  0.0977  0.6061
13610SOL     OW43721   9.060   7.726   2.309 -0.1151  0.3835 -0.4643
13610SOL    HW143722   9.011   7.770   2.240 -0.1222 -0.3121 -0.9146
13610SOL    HW243723   9.151   7.731   2.281 -0.0434  0.7240 -0.1695
13611SOL     OW43724   8.607   8.011   7.576  0.2898 -0.0930 -0.0991
13611SOL    HW143725   8.581   7.991   7.666 -0.2806  1.6215  0.1514
13611SOL    HW243726   8.575   8.100   7.561  0.8217 -0.1611 -1.8343
13612SOL     OW43727   2.021   7.347   5.591  0.9043 -0.3928 -0.4555
13612SOL    HW143728   2.023   7.395   5.674 -0.2825 -0.9176 -0.1032
13612SOL    HW243729   2.111   7.349   5.560  1.0054  1.5765 -0.1696
13613SOL     OW43730   6.590   4.297   0.615  0.5877 -0.2306 -0.1879
13613SOL    HW143731   6.575   4.304   0.521 -1.4715 -0.3846  0.0914
13613SOL    HW243732   6.631   4.211   0.626  2.5008  0.5117 -1.0750
13614SOL     OW43733   4.780   5.336   2.717  0.2501  0.2429 -0.0257
13614SOL    HW143734   4.865   5.377   2.734  0.7156 -0.7615  0.1672
13614SOL    HW243735   4.716   5.397   2.752  0.8677  1.2340 -0.5849
13615SOL     OW43736   1.829   0.693   1.796  0.1849  0.1908  0.8068
13615SOL    HW143737   1.757   0.751   1.824 -0.2040 -0.6159  1.5158
13615SOL    HW243738   1.887   0.689   1.871  1.3355  1.3394  0.0254
13616SOL     OW43739   3.811   8.605   4.114  0.0467  0.1334  0.4847
13616SOL    HW143740   3.846   8.535   4.059  1.0045  1.4274 -0.6395
13616SOL    HW243741   3.830   8.577   4.203  2.6827  0.0464 -0.0178
13617SOL     OW43742   1.643   8.348   7.658 -0.2157  0.1631  0.9974
13617SOL    HW143743   1.590   8.395   7.594 -0.6790 -0.9659  0.5226
13617SOL    HW243744   1.634   8.399   7.738 -1.0796  0.6329  0.6226
13618SOL     OW43745   3.987   3.082   2.963 -0.7111  0.4607 -0.7101
13618SOL    HW143746   3.910   3.028   2.949 -1.1361  0.8196  0.2097
13618SOL    HW243747   4.059   3.031   2.926 -0.6801 -1.8777  2.2032
13619SOL     OW43748   0.885   3.841   6.273 -0.5467 -0.4182  0.6796
13619SOL    HW143749   0.892   3.789   6.354 -0.4043 -2.0902 -0.3572
13619SOL    HW243750   0.973   3.837   6.235 -0.9005 -0.6218 -0.1251
13620SOL     OW43751   5.887   1.715   0.995  0.3932 -0.0921 -0.0937
13620SOL    HW143752   5.809   1.670   0.962  0.9938 -1.8987  0.8145
13620SOL    HW243753   5.858   1.805   1.012 -1.3136 -0.5575 -0.3700
13621SOL     OW43754   8.225   0.208   1.120  0.2942 -0.3200  0.1516
13621SOL    HW143755   8.307   0.233   1.162  0.6659 -0.3726 -0.5300
13621SOL    HW243756   8.192   0.134   1.172  1.5528 -1.4250 -0.5808
13622SOL     OW43757   2.720   1.599   7.163  0.5197 -0.0241 -0.3474
13622SOL    HW143758   2.677   1.626   7.244  1.0276  2.3131 -0.7818
13622SOL    HW243759   2.727   1.504   7.170  0.0704  0.0647  2.0876
13623SOL     OW43760   4.337   7.555   0.430  0.9034 -0.2232  0.2550
13623SOL    HW143761   4.300   7.503   0.501  2.2644 -1.4574  0.1104
13623SOL    HW243762   4.421   7.585   0.465  2.0986 -1.7439 -1.1592
13624SOL     OW43763   5.436   1.960   5.707  0.0544  0.0561  0.7250
13624SOL    HW143764   5.483   1.880   5.731  2.6717  0.3182 -2.7189
13624SOL    HW243765   5.439   2.015   5.785 -0.7130 -2.6352  2.7832
13625SOL     OW43766   8.573   6.725   8.637  0.2758  0.6298 -0.1817
13625SOL    HW143767   8.577   6.765   8.724  0.3502 -0.9638  0.5777
13625SOL    HW243768   8.601   6.634   8.651 -0.4811  0.1276 -1.7319
13626SOL     OW43769   1.201   8.862   9.497 -0.2062 -0.1016  0.4014
13626SOL    HW143770   1.282   8.849   9.545 -0.1610  0.0162  0.3574
13626SOL    HW243771   1.189   8.957   9.497 -0.2132 -0.1025  0.1916
13627SOL     OW43772   7.035   3.296   0.498  0.2783  0.1293  0.1961
13627SOL    HW143773   7.083   3.262   0.574 -0.3818 -0.3421  0.4097
13627SOL    HW243774   7.096   3.358   0.458  0.5234  0.6234  1.2819
13628SOL     OW43775   8.932   2.267   2.711  0.2048  0.4083 -0.1403
13628SOL    HW143776   8.878   2.215   2.771 -0.9195  1.6456 -0.0353
13628SOL    HW243777   8.880   2.274   2.631 -0.1755  2.2271  0.2118
13629SOL     OW43778   0.648   0.215   2.804  0.3418  0.1887 -0.2603
13629SOL    HW143779   0.628   0.306   2.783  0.8285  0.3055 -0.2243
13629SOL    HW243780   0.689   0.218   2.890 -2.6151 -0.3959  1.3014
13630SOL     OW43781   8.043   5.279   2.558  0.5420  0.1241  0.0823
13630SOL    HW143782   8.132   5.246   2.553  0.5238  0.2577 -2.5136
13630SOL    HW243783   8.052   5.370   2.586  1.1761  0.0056  0.2663
13631SOL     OW43784   6.187   0.436   3.669 -0.5002  0.4925 -0.0624
13631SOL    HW143785   6.195   0.519   3.623 -0.1398  0.9085  0.7344
13631SOL    HW243786   6.256   0.439   3.736  0.6457 -1.1426 -1.0887
13632SOL     OW43787   8.751   7.009   9.055  0.0246  0.6050 -0.6379
13632SOL    HW143788   8.805   6.959   9.116 -0.4452  0.9933  0.1147
13632SOL    HW243789   8.813   7.044   8.991  0.6623  0.9570  0.1487
13633SOL     OW43790   2.205   5.408   9.316  0.4232 -0.0661 -0.3399
13633SOL    HW143791   2.213   5.393   9.222 -1.1877 -0.1133 -0.5081
13633SOL    HW243792   2.222   5.322   9.355  1.1267 -0.0402 -0.5745
13634SOL     OW43793   3.126   6.425   8.018 -0.0043 -0.0762  0.3952
13634SOL    HW143794   3.126   6.355   8.084  0.1874 -0.8382 -0.4018
13634SOL    HW243795   3.043   6.415   7.972 -2.2418  3.1652  3.2697
13635SOL     OW43796   7.704   7.169   2.262 -0.0112 -0.1324  0.1981
13635SOL    HW143797   7.688   7.209   2.348 -0.6485  0.8389 -0.3503
13635SOL    HW243798   7.799   7.168   2.253  0.0283  1.1231  0.3084
13636SOL     OW43799   7.594   3.535   7.608 -0.0738 -0.1518  0.3393
13636SOL    HW143800   7.570   3.461   7.664 -0.1616  0.1417  0.6963
13636SOL    HW243801   7.593   3.499   7.520  0.0954 -0.6321  0.5268
13637SOL     OW43802   8.014   4.004   3.567 -0.2994  0.2605  0.0929
13637SOL    HW143803   8.039   4.096   3.566 -1.0342  0.4768 -1.1597
13637SOL    HW243804   8.093   3.957   3.542 -0.4757  0.7576 -1.5383
13638SOL     OW43805   2.624   3.723   5.118 -0.2394  1.0082  0.0439
13638SOL    HW143806   2.612   3.674   5.199  1.7667  1.1270  0.4648
13638SOL    HW243807   2.654   3.657   5.055 -0.6539  1.1306 -0.2887
13639SOL     OW43808   1.134   6.297   5.936 -0.2459 -0.1792 -0.2632
13639SOL    HW143809   1.137   6.351   6.015 -1.6789 -1.3243  0.6412
13639SOL    HW243810   1.226   6.285   5.912  0.1507  1.6576  0.1704
13640SOL     OW43811   1.445   8.450   5.114  0.2971 -0.3904 -0.3006
13640SOL    HW143812   1.410   8.489   5.194 -0.4171  1.6746 -1.5260
13640SOL    HW243813   1.372   8.401   5.077  0.3056 -0.4793 -0.1978
13641SOL     OW43814   5.327   4.357   0.481  0.0264  0.1141 -0.0967
13641SOL    HW143815   5.272   4.321   0.551 -0.3672 -0.9021 -0.8888
13641SOL    HW243816   5.362   4.438   0.517 -0.2652 -0.3122  1.2250
13642SOL     OW43817   1.647   1.668   5.115 -0.6843 -0.2745  0.3150
13642SOL    HW143818   1.594   1.735   5.073 -0.7990 -0.8555 -0.4982
13642SOL    HW243819   1.673   1.706   5.199  0.7215  1.4733 -0.8640
13643SOL     OW43820   4.310   5.443   9.551 -1.0474  0.4042  0.7177
13643SOL    HW143821   4.361   5.495   9.488 -1.4607  0.6838  0.6128
13643SOL    HW243822   4.261   5.508   9.602 -0.5835  0.1936  1.4538
13644SOL     OW43823   6.651   7.485   3.738  0.2682 -1.1699 -0.3746
13644SOL    HW143824   6.663   7.483   3.833 -1.3977 -0.4142 -0.1051
13644SOL    HW243825   6.557   7.469   3.726  0.2653 -0.2339 -1.8265
13645SOL     OW43826   7.548   8.879   5.810  0.0472 -0.1261  0.1342
13645SOL    HW143827   7.521   8.862   5.720 -0.0247 -0.8096  0.2816
13645SOL    HW243828   7.611   8.810   5.830  0.5974  0.4353  0.3754
13646SOL     OW43829   1.549   8.725   0.678 -0.8705  0.0704 -0.3575
13646SOL    HW143830   1.568   8.742   0.770 -0.2305  1.4489 -0.7297
13646SOL    HW243831   1.583   8.801   0.631 -2.5167  0.1006 -1.5989
13647SOL     OW43832   6.675   6.420   1.293  1.1302 -0.3681  0.2520
13647SOL    HW143833   6.669   6.352   1.227 -0.4374 -1.3346  1.3341
13647SOL    HW243834   6.635   6.497   1.252 -0.0092 -1.0096  0.1296
13648SOL     OW43835   4.175   2.069   5.243  0.0675 -0.1478 -0.0272
13648SOL    HW143836   4.241   2.032   5.302  0.5710 -1.3185 -1.2780
13648SOL    HW243837   4.167   2.161   5.271 -0.8768 -1.0093  2.8483
13649SOL     OW43838   7.772   8.854   2.737 -0.3809  0.2569  0.2549
13649SOL    HW143839   7.837   8.874   2.805  0.1092 -0.0479 -0.1118
13649SOL    HW243840   7.731   8.773   2.765 -0.5264  0.3912  0.4317
13650SOL     OW43841   1.640   6.775   3.718 -0.5894  0.4645  0.1404
13650SOL    HW143842   1.705   6.739   3.658 -1.3507 -0.7293 -0.0219
13650SOL    HW243843   1.660   6.868   3.724  1.3038  0.0828  0.3284
13651SOL     OW43844   6.937   6.704   0.922  0.2018 -0.1554  0.7055
13651SOL    HW143845   6.959   6.678   1.011  2.1517  0.6246  0.4926
13651SOL    HW243846   7.010   6.758   0.893 -0.5969 -0.0052 -1.2187
13652SOL     OW43847   7.906   8.676   4.274 -0.4773 -0.3807  0.8129
13652SOL    HW143848   7.832   8.638   4.226  0.6919  0.8282 -2.2000
13652SOL    HW243849   7.947   8.602   4.319 -1.4540 -1.6780 -0.3645
13653SOL     OW43850   8.581   2.064   5.300  0.0957  0.1230  0.5637
13653SOL    HW143851   8.638   2.070   5.377 -0.3410  1.1588  0.8351
13653SOL    HW243852   8.498   2.102   5.330 -0.5205 -0.7483 -0.0158
13654SOL     OW43853   2.851   0.504   3.008 -0.4223  0.2088  0.5793
13654SOL    HW143854   2.931   0.504   2.955 -1.2853  0.9907 -0.7859
13654SOL    HW243855   2.792   0.444   2.963 -0.5027 -0.6363  1.7719
13655SOL     OW43856   8.122   5.815   0.843  0.2571  0.0990  0.6368
13655SOL    HW143857   8.071   5.757   0.786 -0.6856 -1.1305  2.6102
13655SOL    HW243858   8.211   5.779   0.840 -0.0698 -0.7543  0.9364
13656SOL     OW43859   5.499   2.902   8.678 -0.1094  0.0186 -0.2414
13656SOL    HW143860   5.476   2.825   8.626 -0.2261  0.5718 -1.0152
13656SOL    HW243861   5.565   2.948   8.625 -0.7555  0.9676 -0.2406
13657SOL     OW43862   8.290   3.412   2.313  0.9273 -0.2233  0.1298
13657SOL    HW143863   8.371   3.460   2.293 -0.1883  0.9944 -1.7481
13657SOL    HW243864   8.254   3.457   2.389  1.2093  0.2844 -0.0275
13658SOL     OW43865   0.620   6.688   2.341 -0.5228  0.2130 -0.2358
13658SOL    HW143866   0.611   6.607   2.291 -1.6019  0.2589 -0.1373
13658SOL    HW243867   0.714   6.706   2.340 -0.4088 -0.3461 -1.3561
13659SOL     OW43868   4.936   1.520   9.034 -0.0128  0.7669 -0.5097
13659SOL    HW143869   4.953   1.428   9.013 -1.2060  0.6704 -1.1431
13659SOL    HW243870   4.983   1.535   9.116 -0.4787 -0.6364  0.0439
13660SOL     OW43871   5.025   1.169   4.699 -0.1535  0.3555  0.1817
13660SOL    HW143872   5.048   1.084   4.737 -0.1520 -0.3196 -1.2760
13660SOL    HW243873   4.997   1.148   4.610 -1.1229  1.7805  0.1300
13661SOL     OW43874   4.603   3.833   9.590 -0.2629 -0.4785 -0.1654
13661SOL    HW143875   4.548   3.908   9.612 -0.3218 -0.8812  1.1493
13661SOL    HW243876   4.637   3.853   9.503 -0.4573  0.9700  0.0647
13662SOL     OW43877   6.331   5.439   6.986 -0.0699  0.1471 -0.5022
13662SOL    HW143878   6.413   5.453   6.938 -1.8001  2.9578 -3.0233
13662SOL    HW243879   6.281   5.380   6.930  0.0488 -1.3316  0.8860
13663SOL     OW43880   8.118   9.454   8.431 -0.4069  0.1095 -0.5014
13663SOL    HW143881   8.173   9.443   8.353  0.1572  0.0198 -0.0977
13663SOL    HW243882   8.111   9.366   8.468 -1.2735  0.0231 -0.8344
13664SOL     OW43883   0.697   2.022   1.031  0.3086  0.7631  0.5622
13664SOL    HW143884   0.709   2.081   0.956 -3.5581  1.1520  0.0166
13664SOL    HW243885   0.709   2.078   1.108  0.5732  1.2918  0.1453
13665SOL     OW43886   2.541   3.712   8.912  0.3923  0.1996  0.1942
13665SOL    HW143887   2.478   3.672   8.972  0.9991 -3.4807 -1.3433
13665SOL    HW243888   2.501   3.703   8.825  2.4426 -1.2292 -0.6906
13666SOL     OW43889   2.848   2.476   8.560  0.0100  0.0850 -0.1074
13666SOL    HW143890   2.926   2.524   8.591 -0.2236 -0.3291  1.1826
13666SOL    HW243891   2.782   2.544   8.549 -0.3408  0.1282  1.7893
13667SOL     OW43892   7.834   9.270   3.332 -0.1662  0.0530  0.0466
13667SOL    HW143893   7.740   9.257   3.325 -0.3795  1.0278  0.8629
13667SOL    HW243894   7.844   9.361   3.360  1.0159 -0.0585  0.0520
13668SOL     OW43895   1.986   2.411   3.858  0.2441  0.1442 -0.3104
13668SOL    HW143896   1.927   2.476   3.818 -0.3771 -1.4206 -2.0609
13668SOL    HW243897   2.063   2.410   3.801  0.5207 -0.2494  0.0601
13669SOL     OW43898   4.688   1.521   9.581 -0.4960  0.4322  0.4486
13669SOL    HW143899   4.669   1.449   9.641 -0.8094 -0.5761 -0.8084
13669SOL    HW243900   4.619   1.585   9.597 -2.0769 -0.9562 -0.5845
13670SOL     OW43901   7.898   3.051   2.012 -0.0755 -0.1194  0.1158
13670SOL    HW143902   7.990   3.076   2.004 -0.4757  1.2794 -0.4010
13670SOL    HW243903   7.868   3.095   2.091 -0.5533  0.2690 -0.2761
13671SOL     OW43904   2.509   1.789   4.147  0.1308  0.4935 -0.7388
13671SOL    HW143905   2.439   1.782   4.212 -1.6445 -0.0045 -2.6080
13671SOL    HW243906   2.521   1.699   4.116  0.1803  0.8842 -1.8632
13672SOL     OW43907   1.347   6.073   5.417 -0.5733 -0.5925  0.1846
13672SOL    HW143908   1.326   6.069   5.323 -1.6747 -2.3021  0.4524
13672SOL    HW243909   1.272   6.118   5.456  0.6861  1.7260  0.0974
13673SOL     OW43910   8.214   4.404   6.359 -0.6280  0.3102  0.0694
13673SOL    HW143911   8.290   4.412   6.303  0.2773 -2.4577  0.7483
13673SOL    HW243912   8.250   4.402   6.448 -1.7114  1.1382  0.5519
13674SOL     OW43913   7.913   5.040   7.496 -0.1902  0.0926 -0.2387
13674SOL    HW143914   7.857   5.116   7.480  0.2476  0.5488  0.3316
13674SOL    HW243915   7.863   4.965   7.463 -0.3045  0.7029 -1.5102
13675SOL     OW43916   7.377   3.679   2.858 -0.8478 -0.1439 -0.3091
13675SOL    HW143917   7.395   3.601   2.911 -0.6710 -0.7116 -1.1830
13675SOL    HW243918   7.411   3.752   2.909 -0.3084 -0.7224  0.1656
13676SOL     OW43919   2.034   8.537   7.034 -0.5024  0.1927  0.5745
13676SOL    HW143920   2.044   8.546   6.940  1.9098 -0.9049  0.6454
13676SOL    HW243921   1.948   8.497   7.046 -0.2885 -0.8994 -1.2677
13677SOL     OW43922   4.514   6.757   9.518  0.6156  0.2008  0.2258
13677SOL    HW143923   4.603   6.791   9.530  1.7734 -2.4773 -0.1554
13677SOL    HW243924   4.525   6.663   9.503 -2.2744 -0.1772 -0.2116
13678SOL     OW43925   4.881   2.905   9.512  0.0818 -0.5957  0.4966
13678SOL    HW143926   4.912   2.848   9.441 -1.2316  1.2687 -1.7173
13678SOL    HW243927   4.812   2.958   9.472 -0.3131  0.9804  3.0485
13679SOL     OW43928   1.372   3.860   7.609 -0.0642  0.7143  0.0613
13679SOL    HW143929   1.412   3.947   7.610  0.2668  0.5644  0.3993
13679SOL    HW243930   1.425   3.809   7.670 -0.8690  0.5537  0.6458
13680SOL     OW43931   1.391   2.561   6.662  0.2509  0.2440  0.1786
13680SOL    HW143932   1.422   2.470   6.668  0.8257  0.4406  0.3124
13680SOL    HW243933   1.305   2.560   6.703  0.8151  0.0144  1.4071
13681SOL     OW43934   7.001   6.368   4.956  0.1778 -0.2390  0.2921
13681SOL    HW143935   7.090   6.394   4.981  1.1292 -0.9662 -2.1036
13681SOL    HW243936   6.997   6.275   4.975  0.1480 -0.3340 -0.1766
13682SOL     OW43937   8.474   4.138   7.526 -0.5438  0.0570  0.2465
13682SOL    HW143938   8.461   4.232   7.535  1.4632  0.4466 -0.4903
13682SOL    HW243939   8.470   4.122   7.431 -6.0706 -1.5287  0.3910
13683SOL     OW43940   2.256   3.263   8.119  0.0523 -0.0910 -0.2388
13683SOL    HW143941   2.318   3.193   8.142 -0.3481 -0.8142 -1.2840
13683SOL    HW243942   2.288   3.297   8.036  0.2495  0.9926  0.2726
13684SOL     OW43943   2.211   3.677   0.102 -0.1875 -1.3229 -0.2504
13684SOL    HW143944   2.289   3.654   0.152 -0.5597 -0.4952  0.7568
13684SOL    HW243945   2.140   3.629   0.145 -0.2665 -1.9502 -1.0612
13685SOL     OW43946   6.546   8.741   4.087 -0.6417 -0.0299  0.5919
13685SOL    HW143947   6.478   8.791   4.130 -0.9079 -0.0841  0.2363
13685SOL    HW243948   6.535   8.759   3.994 -0.4841 -0.4244  0.4921
13686SOL     OW43949   0.431   0.358   0.936 -0.0685 -0.2761 -0.4713
13686SOL    HW143950   0.398   0.396   0.855  1.2720  1.5538 -0.2172
13686SOL    HW243951   0.381   0.277   0.946  0.3305 -1.0540 -3.5861
13687SOL     OW43952   6.682   0.070   5.607  0.9307 -0.1233  0.1458
13687SOL    HW143953   6.587   0.077   5.595  1.0764 -0.0018 -1.0459
13687SOL    HW243954   6.693   0.045   5.699 -0.1718  1.7943  0.8552
13688SOL     OW43955   9.299   5.116   8.280 -0.1836 -0.1423  0.2642
13688SOL    HW143956   9.292   5.150   8.369 -1.0769  0.9599 -0.2097
13688SOL    HW243957   9.348   5.182   8.232 -1.3532  0.1923 -0.5064
13689SOL     OW43958   6.137   3.968   4.795 -0.1085  0.7253  0.5854
13689SOL    HW143959   6.156   4.058   4.822  1.9811  0.3004  0.7359
13689SOL    HW243960   6.197   3.952   4.721 -1.2961 -0.1650 -0.2276
13690SOL     OW43961   8.097   7.910   5.396 -0.2819  0.5652 -0.0422
13690SOL    HW143962   8.016   7.858   5.406 -0.6377  1.2924  1.0570
13690SOL    HW243963   8.105   7.957   5.479  0.5157  1.5970 -0.6848
13691SOL     OW43964   6.998   6.474   2.562  0.1349 -0.6383  0.8448
13691SOL    HW143965   7.018   6.561   2.528 -0.0601 -0.0295  2.2308
13691SOL    HW243966   7.062   6.416   2.519  2.0487  0.5980  1.8753
13692SOL     OW43967   8.487   8.942   0.240 -0.2169 -0.6075  0.1066
13692SOL    HW143968   8.478   9.017   0.300 -1.9994  0.4206 -1.3526
13692SOL    HW243969   8.582   8.935   0.226 -0.0053  1.5565  0.0948
13693SOL     OW43970   6.945   0.157   3.994 -0.1704  0.0817 -0.2822
13693SOL    HW143971   7.002   0.105   3.937  0.8973  2.8093 -1.8742
13693SOL    HW243972   6.857   0.144   3.959 -0.0549 -1.1522 -0.1845
13694SOL     OW43973   5.121   7.539   7.937 -0.7033  0.2307  0.2695
13694SOL    HW143974   5.202   7.581   7.966 -0.8120 -0.8305  2.2510
13694SOL    HW243975   5.108   7.572   7.848  1.2472  1.3593  0.3443
13695SOL     OW43976   7.293   3.544   6.091 -0.4467 -0.5070 -0.4097
13695SOL    HW143977   7.317   3.451   6.100 -0.5247 -0.7068 -1.9997
13695SOL    HW243978   7.198   3.543   6.084 -0.4698 -0.2739 -0.1378
13696SOL     OW43979   4.587   3.049   5.011 -0.2844 -0.4240  0.6855
13696SOL    HW143980   4.546   2.981   5.064  0.1327 -0.3424  1.1209
13696SOL    HW243981   4.608   3.005   4.928 -2.2334 -0.1899  0.0061
13697SOL     OW43982   3.687   6.881   4.237 -0.4459 -0.7577 -0.0749
13697SOL    HW143983   3.779   6.902   4.221 -0.2428 -1.7060 -0.2224
13697SOL    HW243984   3.656   6.950   4.295  0.5372 -0.7901  0.5028
13698SOL     OW43985   8.551   2.618   1.849  0.3000 -0.0542  0.0645
13698SOL    HW143986   8.587   2.706   1.859 -1.2505  0.5281  0.9037
13698SOL    HW243987   8.616   2.571   1.797  1.1507  1.5860 -0.4208
13699SOL     OW43988   8.954   6.564   5.267  0.4517 -0.1313 -0.0796
13699SOL    HW143989   8.872   6.604   5.298  0.2543 -0.7670  0.2498
13699SOL    HW243990   8.970   6.605   5.183  0.1328  0.4707  0.1399
13700SOL     OW43991   0.612   2.836   3.518 -0.0704  0.2406 -0.1776
13700SOL    HW143992   0.647   2.907   3.572 -0.0402  0.4735 -0.5028
13700SOL    HW243993   0.650   2.757   3.555 -0.2208  0.3799  0.2831
13701SOL     OW43994   7.144   7.714   8.492 -0.2511  0.0491  0.1970
13701SOL    HW143995   7.137   7.648   8.424  1.0252  0.3297 -0.2284
13701SOL    HW243996   7.057   7.717   8.532 -0.1490 -2.4547  0.7676
13702SOL     OW43997   2.664   8.588   2.878 -0.4355  0.2564  0.0594
13702SOL    HW143998   2.743   8.578   2.931 -1.7235 -0.9216  1.8890
13702SOL    HW243999   2.688   8.653   2.812  2.0278 -0.0239  0.5620
13703SOL     OW44000   7.610   6.352   3.159 -0.4103 -0.1506  0.2505
13703SOL    HW144001   7.558   6.297   3.217 -1.5527 -1.0409 -1.5391
13703SOL    HW244002   7.632   6.295   3.085  0.6299  1.0568 -0.4082
13704SOL     OW44003   1.970   8.073   1.164 -0.0700  0.2672 -0.1617
13704SOL    HW144004   2.011   8.111   1.086  1.9747 -1.3542  0.0562
13704SOL    HW244005   2.024   8.104   1.236  1.2918 -2.4183  0.0753
13705SOL     OW44006   0.074   3.959   1.743  0.5070 -0.2982  0.5447
13705SOL    HW144007   0.063   3.942   1.837 -1.1246 -0.7908  0.2968
13705SOL    HW244008  -0.004   4.008   1.718  1.8948  1.6836 -0.1800
13706SOL     OW44009   1.425   2.259   6.601 -0.1383 -0.0653 -0.7514
13706SOL    HW144010   1.411   2.165   6.589  3.5690 -0.6783 -1.4219
13706SOL    HW244011   1.441   2.292   6.513  2.6957  0.2877 -0.1970
13707SOL     OW44012   1.966   3.212   9.403  0.0122  0.1624 -0.3258
13707SOL    HW144013   1.911   3.291   9.393  0.4415  0.2655 -2.2674
13707SOL    HW244014   2.047   3.234   9.356  0.7523 -0.8913  0.4323
13708SOL     OW44015   8.420   3.676   0.980  0.3021 -0.2756 -0.0915
13708SOL    HW144016   8.386   3.713   0.898 -0.6221  0.5619  0.6420
13708SOL    HW244017   8.507   3.644   0.957  1.3836  2.7536 -0.7439
13709SOL     OW44018   6.199   7.193   3.532  0.0328 -0.0228  0.0966
13709SOL    HW144019   6.123   7.251   3.536  0.2730  0.2764  0.3770
13709SOL    HW244020   6.257   7.225   3.601  1.5705  1.3453 -1.7608
13710SOL     OW44021   1.298   4.014   4.814 -0.8452 -0.0963  0.0196
13710SOL    HW144022   1.343   3.981   4.892 -1.0816  1.1970  0.7350
13710SOL    HW244023   1.224   3.955   4.803 -0.4758 -0.6503  0.4148
13711SOL     OW44024   0.272   3.357   5.585  0.0040  0.1786  0.7800
13711SOL    HW144025   0.293   3.272   5.546  0.0565  0.2647  0.6187
13711SOL    HW244026   0.312   3.421   5.526 -3.1897  0.5208 -1.2576
13712SOL     OW44027   6.954   6.921   4.269  0.3689  1.3766 -0.3080
13712SOL    HW144028   7.009   6.842   4.271 -1.1257  0.2639 -0.8851
13712SOL    HW244029   7.001   6.985   4.322  0.9792 -0.3436  1.3341
13713SOL     OW44030   7.155   7.192   7.788  0.4293 -0.1444 -0.3191
13713SOL    HW144031   7.121   7.192   7.699 -0.6341  0.2973  0.0697
13713SOL    HW244032   7.095   7.135   7.837 -0.2187  1.2313  0.5416
13714SOL     OW44033   7.012   3.725   1.910  0.5619 -0.6028 -0.2415
13714SOL    HW144034   6.944   3.673   1.869 -1.0959  1.0066  0.3026
13714SOL    HW244035   7.078   3.662   1.938 -1.4750 -2.4568  0.6752
13715SOL     OW44036   0.248   9.229   2.478 -0.9986  0.0563 -0.1653
13715SOL    HW144037   0.188   9.269   2.415  0.5454  0.9262 -1.1423
13715SOL    HW244038   0.246   9.135   2.456 -2.7521 -0.0902  0.5071
13716SOL     OW44039   6.260   5.372   5.501 -0.3773 -0.2906 -0.2128
13716SOL    HW144040   6.333   5.418   5.544  0.3616 -1.2089 -0.4588
13716SOL    HW244041   6.209   5.442   5.460  0.8617  0.3049 -0.7948
13717SOL     OW44042   8.103   8.455   2.607  0.2626  0.9215  0.0938
13717SOL    HW144043   8.048   8.519   2.562 -0.7262  0.2983  0.3765
13717SOL    HW244044   8.040   8.393   2.646  1.1892 -0.4239 -0.4912
13718SOL     OW44045   3.014   8.244   2.552 -0.5218  0.4757  0.3262
13718SOL    HW144046   2.968   8.184   2.611 -1.0079  0.8494  0.3304
13718SOL    HW244047   2.971   8.233   2.468  1.1945 -1.2481 -0.4218
13719SOL     OW44048   4.985   3.453   0.041  0.5163 -0.4484  0.6435
13719SOL    HW144049   5.044   3.391   0.083  0.4772  0.4912  2.1454
13719SOL    HW244050   4.908   3.401   0.017 -0.6895 -0.5873  4.2899
13720SOL     OW44051   2.586   3.284   5.414 -0.3146  0.0100  0.6899
13720SOL    HW144052   2.540   3.341   5.475 -0.5701  0.6668 -0.0927
13720SOL    HW244053   2.555   3.312   5.328 -2.0851 -2.7326  0.3229
13721SOL     OW44054   5.514   7.244   6.287  0.0973  0.0048 -0.2820
13721SOL    HW144055   5.457   7.245   6.364  1.3501  1.6682  0.6903
13721SOL    HW244056   5.503   7.331   6.248  0.4230 -0.3820 -1.2694
13722SOL     OW44057   1.469   6.841   2.173  0.2131  0.0141 -0.4849
13722SOL    HW144058   1.529   6.777   2.210  1.2082  0.8631 -0.5914
13722SOL    HW244059   1.436   6.890   2.248  0.1355 -0.0436 -0.4813
13723SOL     OW44060   4.969   5.879   9.215 -0.1199  0.2649  0.1834
13723SOL    HW144061   4.969   5.798   9.266 -0.8133  0.1715  0.0442
13723SOL    HW244062   5.001   5.946   9.276 -0.1029 -0.0113  0.4787
13724SOL     OW44063   7.751   8.962   9.275  0.1331 -0.5384  0.5484
13724SOL    HW144064   7.759   8.867   9.284 -0.0057 -0.5263  0.8067
13724SOL    HW244065   7.812   8.997   9.340  1.1954 -0.4458 -0.4540
13725SOL     OW44066   5.138   7.017   1.011 -1.1400 -0.1957  0.9809
13725SOL    HW144067   5.231   6.999   1.024 -0.8908 -1.8674 -2.0153
13725SOL    HW244068   5.129   7.111   1.023  1.4915  0.4075 -0.9624
13726SOL     OW44069   3.086   5.892   3.106  0.6036 -0.3226 -0.5800
13726SOL    HW144070   3.051   5.834   3.174 -0.8619 -1.7585 -2.4016
13726SOL    HW244071   3.048   5.977   3.125 -0.7800 -0.9765 -0.2682
13727SOL     OW44072   7.790   6.807   4.987  0.5109 -0.2365 -0.2959
13727SOL    HW144073   7.777   6.892   4.945  1.7264  0.4662  0.6664
13727SOL    HW244074   7.709   6.759   4.972  0.7936  0.0132 -3.2739
13728SOL     OW44075   9.379   7.654   8.828  0.3261 -0.9194  0.3261
13728SOL    HW144076   9.371   7.625   8.737  2.2192 -0.4292 -0.0429
13728SOL    HW244077   9.299   7.623   8.870 -1.9721  1.2357 -2.0869
13729SOL     OW44078   0.451   0.713   8.613 -0.4559 -0.4178  0.2339
13729SOL    HW144079   0.537   0.701   8.574  0.2970  0.7638  1.4356
13729SOL    HW244080   0.392   0.658   8.561  0.5736  0.6291 -2.1400
13730SOL     OW44081   5.547   4.010   7.354 -0.1229  0.3032 -0.4510
13730SOL    HW144082   5.455   4.026   7.335 -0.4499 -0.1804  0.6161
13730SOL    HW244083   5.546   3.936   7.416  1.1044 -1.5186 -2.4654
13731SOL     OW44084   1.560   9.345   8.465 -0.2379 -0.2424  0.3371
13731SOL    HW144085   1.518   9.430   8.476  0.8946  0.2731  0.8810
13731SOL    HW244086   1.582   9.318   8.555  0.8359 -0.3432  0.0629
13732SOL     OW44087   8.125   7.864   7.963 -0.2965  0.0185 -0.1592
13732SOL    HW144088   8.122   7.944   8.016  4.1130  0.2538  0.1212
13732SOL    HW244089   8.171   7.889   7.883 -0.3787 -1.8471 -0.8473
13733SOL     OW44090   0.605   8.848   5.494  0.5899  0.4446 -0.0841
13733SOL    HW144091   0.598   8.759   5.529 -0.1088  0.9264  1.0694
13733SOL    HW244092   0.669   8.840   5.423 -1.1237 -1.4095 -1.5287
13734SOL     OW44093   6.546   7.195   1.686 -0.1088  0.1862 -0.6632
13734SOL    HW144094   6.559   7.134   1.758 -0.4340  0.5158 -0.3192
13734SOL    HW244095   6.607   7.267   1.703 -0.4003  0.4080 -0.5534
13735SOL     OW44096   9.135   9.570   3.812 -0.2986 -0.1972 -0.4389
13735SOL    HW144097   9.174   9.516   3.743 -0.0522  0.7295 -1.0460
13735SOL    HW244098   9.138   9.660   3.777 -2.0843  0.0339 -0.1150
13736SOL     OW44099   5.874   8.318   9.029  0.4188 -0.1177  0.4784
13736SOL    HW144100   5.782   8.306   9.053  0.6502 -0.3787  1.2617
13736SOL    HW244101   5.876   8.304   8.934 -0.4143  0.3012  0.3906
13737SOL     OW44102   7.694   3.275   1.686  0.2933  0.3018 -0.1953
13737SOL    HW144103   7.602   3.248   1.688  0.1430  0.8260  1.4545
13737SOL    HW244104   7.743   3.196   1.710  0.1891  0.3146  0.0608
13738SOL     OW44105   9.036   7.580   7.105 -0.2457  0.5666 -0.0731
13738SOL    HW144106   9.077   7.494   7.112  1.8510  1.5442  0.3108
13738SOL    HW244107   8.943   7.563   7.120 -0.0256 -1.7348 -0.8631
13739SOL     OW44108   3.533   3.688   4.947  0.0165  0.2289  0.5448
13739SOL    HW144109   3.555   3.616   5.006 -0.2621 -1.7587 -1.6139
13739SOL    HW244110   3.594   3.678   4.874 -1.7023  0.5709 -1.0001
13740SOL     OW44111   0.242   0.455   1.454 -0.0798  0.8327 -0.6808
13740SOL    HW144112   0.295   0.518   1.503  0.1519  0.7886 -0.8738
13740SOL    HW244113   0.208   0.504   1.380 -1.9046  1.3894  0.4617
13741SOL     OW44114   4.306   8.400   0.490 -0.0339 -0.2168  0.0543
13741SOL    HW144115   4.236   8.400   0.425  0.0307 -2.2041 -0.0766
13741SOL    HW244116   4.371   8.339   0.455  0.9581  0.2645  1.0060
13742SOL     OW44117   7.930   9.263   0.606  0.3100  0.1856 -0.2062
13742SOL    HW144118   7.919   9.349   0.646 -0.1513 -0.2764  0.6856
13742SOL    HW244119   7.842   9.228   0.598  0.5476 -0.4983  0.1014
13743SOL     OW44120   5.098   7.509   7.156  0.4470 -0.6355  0.0180
13743SOL    HW144121   5.136   7.422   7.158  2.6428  0.2201  3.3808
13743SOL    HW244122   5.166   7.565   7.118 -0.3113 -0.1240 -0.6343
13744SOL     OW44123   5.117   8.035   2.686 -0.3959 -0.2731 -0.3654
13744SOL    HW144124   5.131   8.080   2.602 -0.1996 -1.0244 -0.7405
13744SOL    HW244125   5.099   8.106   2.747  1.6532  0.5007 -0.5733
13745SOL     OW44126   0.103   5.878   4.192 -0.0688 -0.0785  0.2290
13745SOL    HW144127   0.010   5.903   4.190 -0.1491 -0.3846 -1.0709
13745SOL    HW244128   0.124   5.871   4.285 -0.4740  3.1636  0.6779
13746SOL     OW44129   7.442   6.706   6.326  0.3395  0.3317 -0.2938
13746SOL    HW144130   7.354   6.742   6.318  0.0376  0.0373  1.3605
13746SOL    HW244131   7.433   6.632   6.386  1.7235  0.3627 -0.0057
13747SOL     OW44132   0.238   2.730   0.893  0.0651  0.1832  0.4230
13747SOL    HW144133   0.279   2.656   0.850  0.1020 -0.1147  0.9658
13747SOL    HW244134   0.306   2.765   0.951 -0.1335  0.2820  0.5998
13748SOL     OW44135   7.261   2.205   3.196 -0.0787  0.2325  0.2081
13748SOL    HW144136   7.189   2.142   3.208 -1.7516  2.0365  0.2836
13748SOL    HW244137   7.340   2.156   3.218 -1.4373 -1.3996  1.7944
13749SOL     OW44138   0.220   3.444   7.896  0.0538  0.4596 -0.0054
13749SOL    HW144139   0.298   3.458   7.843  0.0257  2.0475  0.3261
13749SOL    HW244140   0.147   3.462   7.836 -0.0067  0.7939  0.1651
13750SOL     OW44141   7.104   9.309   8.510 -0.6180  0.2596 -0.6532
13750SOL    HW144142   7.195   9.303   8.481 -0.7940 -1.4860 -0.9659
13750SOL    HW244143   7.109   9.314   8.605 -0.1824  0.6893 -0.6996
13751SOL     OW44144   7.934   8.162   2.464 -0.3145 -0.2342 -0.5511
13751SOL    HW144145   7.866   8.224   2.491  1.4712  1.9543 -0.7279
13751SOL    HW244146   7.918   8.084   2.516 -3.1923  0.0078 -0.9285
13752SOL     OW44147   7.248   0.189   0.008  0.3272 -0.1953  0.2545
13752SOL    HW144148   7.222   0.265   0.060 -0.5452 -0.2245 -0.1219
13752SOL    HW244149   7.317   0.222  -0.050 -0.6106  0.5352 -0.4827
13753SOL     OW44150   3.366   0.925   2.235  0.7007  0.1816 -0.3865
13753SOL    HW144151   3.409   0.940   2.319 -2.1936 -1.0892  1.4775
13753SOL    HW244152   3.279   0.964   2.245 -0.2391 -1.2873 -2.2360
13754SOL     OW44153   2.423   1.444   1.723 -0.2863  0.4758  0.5430
13754SOL    HW144154   2.488   1.390   1.768 -0.3308  1.4255  1.8049
13754SOL    HW244155   2.424   1.527   1.771 -0.6538  1.3915 -0.9650
13755SOL     OW44156   7.453   7.980   7.524 -0.0801  0.7295  0.3590
13755SOL    HW144157   7.495   7.910   7.573 -1.0365 -0.4780 -0.5023
13755SOL    HW244158   7.496   7.979   7.438 -0.6384  0.6745  0.0788
13756SOL     OW44159   8.721   7.072   7.411  0.2381  0.5162  0.0238
13756SOL    HW144160   8.764   6.990   7.435  0.3336  0.9879  1.5227
13756SOL    HW244161   8.632   7.046   7.387  0.5831 -0.1450 -0.5758
13757SOL     OW44162   2.872   9.101   6.610 -0.3809 -0.1576 -0.5681
13757SOL    HW144163   2.917   9.148   6.680  1.2331 -0.7951 -1.1233
13757SOL    HW244164   2.828   9.169   6.559  0.5519  0.5789 -0.4042
13758SOL     OW44165   5.611   4.555   1.654 -0.1758  0.6058  0.5571
13758SOL    HW144166   5.656   4.563   1.738 -0.9203 -1.0634  1.1717
13758SOL    HW244167   5.649   4.623   1.599  0.9380  1.1753  1.9757
13759SOL     OW44168   3.555   3.829   7.520  0.0257 -0.3229 -0.1816
13759SOL    HW144169   3.606   3.853   7.443 -0.2970 -0.2811 -0.3845
13759SOL    HW244170   3.482   3.891   7.521  0.3273  0.0346  0.4748
13760SOL     OW44171   3.117   0.225   4.404  0.0825 -0.4826  0.0254
13760SOL    HW144172   3.080   0.294   4.349  0.2611 -1.9017 -1.9915
13760SOL    HW244173   3.041   0.182   4.444 -0.2469 -1.0207 -1.1409
13761SOL     OW44174   3.129   2.886   7.354 -0.1331 -0.0327 -0.0053
13761SOL    HW144175   3.201   2.918   7.299  0.2454 -0.2075  0.3832
13761SOL    HW244176   3.052   2.932   7.321  0.2152  0.4279 -0.1948
13762SOL     OW44177   8.124   4.206   1.265 -0.1158  0.0393  0.0904
13762SOL    HW144178   8.175   4.127   1.284  0.3104  0.1839 -0.4415
13762SOL    HW244179   8.188   4.268   1.229 -0.6296  0.2939 -0.3877
13763SOL     OW44180   7.108   9.292   8.790 -0.2347  0.6945 -0.5136
13763SOL    HW144181   7.079   9.383   8.801  0.6772  0.8322  0.9341
13763SOL    HW244182   7.159   9.273   8.869  0.6004 -0.6893 -1.3455
13764SOL     OW44183   0.805   8.038   2.233 -0.0626 -0.0165 -0.1286
13764SOL    HW144184   0.871   8.013   2.297  0.1475 -2.1261 -1.0642
13764SOL    HW244185   0.833   8.125   2.202  3.1936 -1.3639 -1.5154
13765SOL     OW44186   4.131   8.965   4.714 -0.2811 -0.1161 -0.1617
13765SOL    HW144187   4.086   9.030   4.659 -0.2507  1.6579  1.7838
13765SOL    HW244188   4.092   8.975   4.800  1.1918 -1.2297  0.6798
13766SOL     OW44189   8.834   1.399   8.594 -0.1343  0.2687 -0.3442
13766SOL    HW144190   8.753   1.357   8.623 -0.4796  1.3922  0.3603
13766SOL    HW244191   8.891   1.325   8.570 -1.3456 -0.5353 -0.8505
13767SOL     OW44192   7.560   8.609   2.222 -0.1129  0.2193  0.0191
13767SOL    HW144193   7.505   8.539   2.256  0.4589 -0.0836  0.3459
13767SOL    HW244194   7.607   8.643   2.299  1.6160 -0.8396 -0.5014
13768SOL     OW44195   1.355   6.578   5.585  0.6393 -0.3512  0.2736
13768SOL    HW144196   1.429   6.638   5.588 -1.6395  2.7127  0.5924
13768SOL    HW244197   1.307   6.602   5.506 -1.4759 -0.1753  1.5112
13769SOL     OW44198   9.080   1.176   4.000  0.4900  0.2962  0.5582
13769SOL    HW144199   9.097   1.189   4.093 -1.1027  4.2838  0.4855
13769SOL    HW244200   9.156   1.216   3.956  0.1137  0.6114  0.1858
13770SOL     OW44201   2.837   0.849   8.799  0.3160  0.0860 -0.0950
13770SOL    HW144202   2.747   0.868   8.827  0.0799 -0.2463 -0.6279
13770SOL    HW244203   2.831   0.833   8.705  1.3854  3.2001 -0.8229
13771SOL     OW44204   1.593   0.425   1.474 -0.0319  0.0940  0.2404
13771SOL    HW144205   1.622   0.459   1.559 -0.8424 -1.0789  1.0063
13771SOL    HW244206   1.658   0.459   1.412  1.2512  0.0029  1.4873
13772SOL     OW44207   1.167   9.617   7.082  0.2266  0.3583 -0.3912
13772SOL    HW144208   1.211   9.626   7.166  0.9962 -1.8675 -0.5001
13772SOL    HW244209   1.088   9.566   7.100 -0.3718  1.1157 -0.8031
13773SOL     OW44210   5.675   8.832   7.061  0.4726  0.0550 -0.0989
13773SOL    HW144211   5.708   8.921   7.058  2.2419 -0.5827 -0.4941
13773SOL    HW244212   5.746   8.778   7.026  0.0765 -1.6733  1.5568
13774SOL     OW44213   0.607   3.872   5.017  0.2790  0.4427 -0.2834
13774SOL    HW144214   0.674   3.922   5.064  0.5533  0.3587 -0.5746
13774SOL    HW244215   0.560   3.938   4.966 -1.0930  0.7730  1.3249
13775SOL     OW44216   9.159   2.948   9.488  0.1409  0.2782  0.0349
13775SOL    HW144217   9.205   2.873   9.526 -0.8055 -0.8264 -0.9257
13775SOL    HW244218   9.209   2.971   9.410 -0.1071  0.0316 -0.1961
13776SOL     OW44219   4.516   2.021   5.235 -0.0183  0.3130  0.0210
13776SOL    HW144220   4.495   2.032   5.143 -1.1761  0.6337  0.3005
13776SOL    HW244221   4.586   2.084   5.252  0.8868 -0.4401 -0.8460
13777SOL     OW44222   5.926   5.043   2.052 -0.4514  0.3584  0.0286
13777SOL    HW144223   5.960   5.133   2.047  2.3441 -0.5480  0.5705
13777SOL    HW244224   5.844   5.050   2.101 -0.1045  2.5608  0.3845
13778SOL     OW44225   6.192   8.542   1.128 -0.1639  0.5560 -0.0810
13778SOL    HW144226   6.265   8.552   1.189  0.7361 -0.0007 -1.0407
13778SOL    HW244227   6.155   8.630   1.120 -0.7048  0.5364  1.7215
13779SOL     OW44228   0.638   4.865   7.114  0.2215 -0.0024 -0.1978
13779SOL    HW144229   0.642   4.951   7.155  3.5355 -1.0142  1.9447
13779SOL    HW244230   0.703   4.868   7.044  0.5658 -0.8486  0.0753
13780SOL     OW44231   2.740   3.311   6.521 -0.7447  0.5866  0.7125
13780SOL    HW144232   2.723   3.251   6.449 -1.9575  0.7459  0.8348
13780SOL    HW244233   2.793   3.380   6.482 -1.3083  0.6271 -0.0245
13781SOL     OW44234   8.607   4.637   3.303  0.2100  0.1787  0.5537
13781SOL    HW144235   8.520   4.601   3.318  0.4754 -0.8639 -0.2952
13781SOL    HW244236   8.631   4.678   3.386 -0.8612  0.0051  0.9625
13782SOL     OW44237   1.525   1.681   0.148  0.1221  0.0975  0.2696
13782SOL    HW144238   1.510   1.607   0.206 -0.1008  1.1747  1.6653
13782SOL    HW244239   1.451   1.740   0.165  0.8369  1.1106 -0.0027
13783SOL     OW44240   8.617   7.565   3.171  0.2131 -0.6042 -0.3142
13783SOL    HW144241   8.658   7.611   3.098  0.4747  0.3050  0.3892
13783SOL    HW244242   8.689   7.546   3.231 -0.2339  0.1305  0.4730
13784SOL     OW44243   2.803   6.606   7.771  0.0890  0.4311  0.1843
13784SOL    HW144244   2.899   6.609   7.773  0.1760 -0.1759 -1.3765
13784SOL    HW244245   2.777   6.626   7.861  1.6954 -0.0361  0.8049
13785SOL     OW44246   2.958   8.426   4.617 -0.0509 -0.1297  0.0951
13785SOL    HW144247   2.989   8.337   4.632 -0.7324 -0.6974 -1.5996
13785SOL    HW244248   2.901   8.419   4.541  0.6643  1.9340 -0.6973
13786SOL     OW44249   5.672   8.788   2.161 -0.4534 -0.5411  0.3829
13786SOL    HW144250   5.608   8.735   2.208 -1.9903 -0.9926 -2.0453
13786SOL    HW244251   5.631   8.874   2.152 -0.3991 -0.5954 -0.4825
13787SOL     OW44252   0.365   6.233   2.347 -0.1548  0.2396  0.2605
13787SOL    HW144253   0.314   6.311   2.367  0.8399  0.7092  1.0488
13787SOL    HW244254   0.327   6.165   2.402 -0.1733  0.4926  0.5636
13788SOL     OW44255   5.165   9.169   9.318  0.1629  0.2589  0.3641
13788SOL    HW144256   5.235   9.124   9.271  1.0937  2.4272 -0.4498
13788SOL    HW244257   5.093   9.106   9.318  2.1827 -2.2817  1.6908
13789SOL     OW44258   5.496   7.020   2.032  0.1488 -0.3058  0.0445
13789SOL    HW144259   5.416   6.992   2.076 -1.1797  1.6085 -1.0281
13789SOL    HW244260   5.565   7.005   2.096 -1.2676 -0.5898  1.5715
13790SOL     OW44261   7.219   0.015   8.186  0.3400  0.4596 -0.2247
13790SOL    HW144262   7.128   0.040   8.204  0.5560  0.4350  1.0085
13790SOL    HW244263   7.262   0.023   8.271  1.2370 -0.6295 -0.5641
13791SOL     OW44264   5.061   4.937   7.183  0.3794  0.3213 -0.2486
13791SOL    HW144265   5.013   5.000   7.237 -1.0452  0.7042 -1.9046
13791SOL    HW244266   4.995   4.876   7.151  1.1950  0.0275 -1.4526
13792SOL     OW44267   7.894   8.886   3.714 -0.4018 -0.2614 -0.2080
13792SOL    HW144268   7.942   8.888   3.797 -1.1523  1.9279  0.2589
13792SOL    HW244269   7.962   8.903   3.648  0.1253 -1.5463 -0.0260
13793SOL     OW44270   9.280   2.361   9.160 -0.2976  0.6018 -0.8167
13793SOL    HW144271   9.210   2.427   9.170 -1.1971 -0.2996 -0.9619
13793SOL    HW244272   9.344   2.403   9.103  0.5070  2.3846  1.2331
13794SOL     OW44273   0.167   1.826   5.199  0.3129 -0.1588 -0.4186
13794SOL    HW144274   0.233   1.851   5.264 -0.1057 -0.7990  0.2714
13794SOL    HW244275   0.083   1.841   5.243 -0.0225  0.8558 -1.3691
13795SOL     OW44276   3.612   6.667   2.350  0.6069  0.0288  0.5557
13795SOL    HW144277   3.664   6.747   2.342  1.1952 -0.0749  2.6733
13795SOL    HW244278   3.658   6.603   2.296  2.2502  0.1845  1.6854
13796SOL     OW44279   9.060   3.112   0.030 -0.2491  0.3825 -0.0193
13796SOL    HW144280   9.137   3.130   0.084 -0.2215  1.0616 -0.2754
13796SOL    HW244281   9.093   3.058  -0.042  0.0783  1.0231 -0.3592
13797SOL     OW44282   2.476   6.320   7.531 -0.2798  0.2502  0.1568
13797SOL    HW144283   2.415   6.287   7.465  0.0968  0.6050 -0.3783
13797SOL    HW244284   2.439   6.404   7.558 -0.5007  0.0459  0.4892
13798SOL     OW44285   8.459   3.367   8.000 -0.6484 -0.0923  0.1877
13798SOL    HW144286   8.452   3.317   8.081 -0.7394  2.2522  1.7183
13798SOL    HW244287   8.516   3.440   8.021  0.5766 -0.2006 -2.3355
13799SOL     OW44288   4.542   8.142   8.988 -0.3460 -0.0148 -0.4604
13799SOL    HW144289   4.621   8.186   8.957 -0.2205  0.3789  0.3957
13799SOL    HW244290   4.538   8.062   8.935  0.6147 -0.0331 -0.5319
13800SOL     OW44291   8.185   6.848   0.916  0.4045  0.0185 -0.2044
13800SOL    HW144292   8.118   6.882   0.975 -1.6332 -1.7535 -1.3314
13800SOL    HW244293   8.212   6.923   0.863  0.0878  0.9850  0.9792
13801SOL     OW44294   0.637   2.852   5.654  0.0112 -0.1165  0.7394
13801SOL    HW144295   0.582   2.785   5.695 -0.8573 -1.0061 -1.6844
13801SOL    HW244296   0.660   2.911   5.725 -2.1728 -1.0221  2.3057
13802SOL     OW44297   1.313   1.484   4.526 -0.3406  0.1514  0.1204
13802SOL    HW144298   1.311   1.440   4.611  1.3364 -2.5830 -1.1360
13802SOL    HW244299   1.221   1.490   4.500 -0.7292 -1.4151  0.9991
13803SOL     OW44300   4.295   5.098   7.187 -0.0205 -0.1095  0.3894
13803SOL    HW144301   4.333   5.180   7.154  0.4843 -0.8620 -0.9935
13803SOL    HW244302   4.368   5.051   7.226 -0.2332 -0.0776  0.8326
13804SOL     OW44303   3.578   7.986   6.842 -0.2855 -0.2622  0.0034
13804SOL    HW144304   3.577   7.914   6.778  1.2959 -0.1620 -0.1609
13804SOL    HW244305   3.611   7.947   6.922  0.9033  0.3374 -0.1791
13805SOL     OW44306   8.482   2.928   0.248 -0.0269  0.0898  0.0186
13805SOL    HW144307   8.416   2.918   0.316  0.7795  0.2708  0.8542
13805SOL    HW244308   8.480   3.020   0.225 -0.1539  0.0696 -0.0512
13806SOL     OW44309   4.713   1.364   6.889  0.1559  0.4117 -0.5811
13806SOL    HW144310   4.679   1.285   6.932  2.8253 -0.9297 -0.6935
13806SOL    HW244311   4.673   1.436   6.938 -1.1810 -0.9995  0.5506
13807SOL     OW44312   5.259   3.805   7.121 -0.3151  0.2622 -0.6944
13807SOL    HW144313   5.287   3.896   7.111 -0.6535  0.4578  0.0985
13807SOL    HW244314   5.200   3.790   7.046 -1.2968  1.1066 -0.1116
13808SOL     OW44315   3.576   1.563   7.047 -0.4206 -0.6090 -0.5501
13808SOL    HW144316   3.534   1.478   7.050  0.3505 -1.0687 -1.8974
13808SOL    HW244317   3.552   1.599   6.961 -3.3273  1.9504  1.1485
13809SOL     OW44318   8.262   3.448   0.453  0.2044  0.1180  0.4182
13809SOL    HW144319   8.240   3.536   0.486 -0.2031 -0.4053  1.6109
13809SOL    HW244320   8.354   3.455   0.426 -0.5186  1.5848 -1.9537
13810SOL     OW44321   6.342   1.456   6.003  0.1478 -0.1257 -0.0953
13810SOL    HW144322   6.351   1.370   6.043 -0.5053 -0.2032 -0.1126
13810SOL    HW244323   6.269   1.498   6.049  1.0241  0.7772  0.5318
13811SOL     OW44324   7.938   5.449   0.209 -0.4069  0.0396 -0.3502
13811SOL    HW144325   7.911   5.403   0.288 -0.9611  1.9210  0.6308
13811SOL    HW244326   8.030   5.426   0.197 -0.0119  0.5160  1.4722
13812SOL     OW44327   7.880   7.361   7.448 -0.1466 -0.2567  0.6473
13812SOL    HW144328   7.938   7.412   7.505  0.2809  0.4802 -0.4111
13812SOL    HW244329   7.827   7.309   7.508  0.2374  0.5465  1.7150
13813SOL     OW44330   1.709   7.056   3.454 -0.2861  0.3275  0.4470
13813SOL    HW144331   1.738   7.145   3.435  0.7530  0.0089  0.4854
13813SOL    HW244332   1.738   7.039   3.544 -0.3458 -0.0971  0.3897
13814SOL     OW44333   4.603   2.743   6.927 -0.1907  0.0509 -0.6340
13814SOL    HW144334   4.696   2.728   6.913  0.0172 -1.2233  1.6798
13814SOL    HW244335   4.587   2.716   7.017 -2.5170  1.7274 -0.4608
13815SOL     OW44336   5.969   3.266   8.894  0.1175 -0.3929  0.5008
13815SOL    HW144337   5.992   3.257   8.987  0.6493  1.6148  0.6107
13815SOL    HW244338   5.943   3.358   8.885 -0.9258 -0.8043 -1.1454
13816SOL     OW44339   5.808   1.929   7.175 -0.3552  0.0740 -0.0877
13816SOL    HW144340   5.873   1.913   7.106 -0.8406 -1.9486 -0.1555
13816SOL    HW244341   5.860   1.950   7.253  0.5970 -3.2215  0.3204
13817SOL     OW44342   5.415   5.535   7.960  0.2319  0.0343  0.1951
13817SOL    HW144343   5.418   5.598   7.888  1.6273 -0.6630 -0.3749
13817SOL    HW244344   5.468   5.575   8.029  1.8676 -0.8732 -0.4925
13818SOL     OW44345   3.320   6.819   0.734  0.0708  0.3742 -0.1364
13818SOL    HW144346   3.298   6.739   0.685 -0.4352 -0.0879  0.8165
13818SOL    HW244347   3.414   6.811   0.751 -0.4408 -1.5361  2.4819
13819SOL     OW44348   8.711   7.102   1.258  0.1104  0.0349  0.0032
13819SOL    HW144349   8.672   7.153   1.329  0.4482  2.1555 -1.2330
13819SOL    HW244350   8.659   7.125   1.181  1.2216 -0.3166 -0.8793
13820SOL     OW44351   7.797   5.909   6.346 -0.4692 -0.0205  0.2886
13820SOL    HW144352   7.753   5.882   6.427 -2.6800  1.4052 -0.3468
13820SOL    HW244353   7.850   5.984   6.372 -0.8421  0.1739  0.4959
13821SOL     OW44354   6.138   1.118   2.425  0.4545  0.3692 -0.0048
13821SOL    HW144355   6.194   1.043   2.444 -0.7725 -0.9319 -1.2717
13821SOL    HW244356   6.153   1.178   2.498 -0.1194 -2.0302  2.2522
13822SOL     OW44357   7.519   9.279   1.623 -0.2477 -0.0175 -0.3987
13822SOL    HW144358   7.441   9.327   1.649  0.1571 -0.5199  1.9891
13822SOL    HW244359   7.587   9.308   1.683  0.8130 -1.2913 -0.9071
13823SOL     OW44360   3.002   7.221   0.957 -0.4423  0.3203  0.4306
13823SOL    HW144361   3.028   7.302   0.914 -0.2362  1.1593  2.0672
13823SOL    HW244362   3.064   7.156   0.925  0.9507  1.3514  0.9805
13824SOL     OW44363   9.335   5.244   3.289  0.0750  0.2616  0.5889
13824SOL    HW144364   9.344   5.274   3.198  0.2510  0.0454  0.5346
13824SOL    HW244365   9.245   5.268   3.312 -0.5355 -1.1313 -0.1955
13825SOL     OW44366   3.099   8.908   7.522  0.1501 -0.3336 -0.6488
13825SOL    HW144367   3.138   8.821   7.517  0.6702 -0.1217 -0.2721
13825SOL    HW244368   3.158   8.958   7.578 -0.5759  0.0348 -0.2004
13826SOL     OW44369   7.592   0.534   1.074 -0.6539  0.2362 -0.4418
13826SOL    HW144370   7.667   0.536   1.015 -0.3484  0.8350 -0.0397
13826SOL    HW244371   7.535   0.466   1.038  0.6238 -1.0656 -0.1054
13827SOL     OW44372   0.345   1.462   4.236 -0.2679 -0.1076  0.0550
13827SOL    HW144373   0.397   1.515   4.297  0.3420  0.0270 -0.5747
13827SOL    HW244374   0.314   1.389   4.290  0.3628 -0.0531  0.5090
13828SOL     OW44375   0.097   0.663   4.285  0.2195  0.2036 -0.0865
13828SOL    HW144376   0.004   0.656   4.307  0.0926 -0.4006 -0.7806
13828SOL    HW244377   0.138   0.592   4.334 -0.1216 -1.4157 -2.0005
13829SOL     OW44378   4.570   6.955   2.374 -0.0988 -0.0814  0.1130
13829SOL    HW144379   4.498   6.896   2.354 -0.1355 -0.3155  0.9040
13829SOL    HW244380   4.648   6.900   2.376 -0.2873 -0.3285  1.9640
13830SOL     OW44381   7.610   7.077   1.343 -1.0535 -0.5970 -0.2593
13830SOL    HW144382   7.698   7.040   1.339 -0.4269  0.2138  3.1184
13830SOL    HW244383   7.621   7.162   1.387 -3.4384 -0.1058 -0.4638
13831SOL     OW44384   7.845   2.027   2.843 -0.4285  0.5936 -0.2146
13831SOL    HW144385   7.932   2.002   2.811 -0.6585  0.3569 -0.6612
13831SOL    HW244386   7.786   2.005   2.771 -0.7735  1.4335 -0.1934
13832SOL     OW44387   9.197   6.651   4.578  0.0409 -0.1211 -0.5722
13832SOL    HW144388   9.270   6.662   4.516 -0.0096 -0.1807 -0.6419
13832SOL    HW244389   9.119   6.650   4.523  0.0725 -1.2907 -0.6079
13833SOL     OW44390   5.450   1.560   8.255 -0.4626  0.3027 -0.6252
13833SOL    HW144391   5.514   1.612   8.304  0.3722 -0.3619 -0.9952
13833SOL    HW244392   5.472   1.469   8.274 -1.3801  0.0582 -0.6610
13834SOL     OW44393   7.383   0.159   4.153 -0.5656 -0.1614 -0.3778
13834SOL    HW144394   7.326   0.196   4.221  0.1322  0.2524 -0.0057
13834SOL    HW244395   7.323   0.111   4.096 -1.3548  0.6965 -0.2993
13835SOL     OW44396   3.401   8.739   4.711 -0.3250 -0.2217 -0.3039
13835SOL    HW144397   3.402   8.762   4.804  2.0037 -0.7402 -0.1462
13835SOL    HW244398   3.313   8.764   4.681 -0.6821  1.1787  1.7200
13836SOL     OW44399   7.989   6.081   3.240 -0.3681  0.2852 -0.4293
13836SOL    HW144400   7.919   6.015   3.246 -0.1281  0.1573  1.3399
13836SOL    HW244401   7.955   6.157   3.287  0.8439  0.0570  0.8640
13837SOL     OW44402   6.414   5.267   2.163  0.1217  0.3623  0.3590
13837SOL    HW144403   6.388   5.200   2.101 -0.3150  0.8045  0.0583
13837SOL    HW244404   6.437   5.219   2.243  0.5931 -0.2010 -0.1048
13838SOL     OW44405   0.981   8.087   1.289  0.1310  0.4072  0.3633
13838SOL    HW144406   0.955   7.995   1.293 -0.7465  0.4693 -2.0137
13838SOL    HW244407   1.054   8.094   1.350  1.3898 -2.3140 -0.6558
13839SOL     OW44408   4.051   5.746   7.421 -0.2787 -0.3173 -0.1451
13839SOL    HW144409   4.072   5.815   7.358  0.1746 -0.0020  0.3399
13839SOL    HW244410   4.079   5.665   7.378 -0.5741 -0.1729 -0.6123
13840SOL     OW44411   9.310   2.377   1.618  0.2261  0.1389 -0.2135
13840SOL    HW144412   9.384   2.368   1.558 -0.2183 -4.5136 -0.4490
13840SOL    HW244413   9.233   2.369   1.561 -0.3163  0.1288  0.5150
13841SOL     OW44414   6.495   8.317   4.077  0.5002  0.1675  0.3560
13841SOL    HW144415   6.579   8.270   4.077  1.7217  2.1569 -1.4300
13841SOL    HW244416   6.430   8.249   4.059  2.0856 -1.0383 -1.2007
13842SOL     OW44417   9.403   8.882   8.290  0.2454  0.9483 -0.5777
13842SOL    HW144418   9.463   8.815   8.322 -0.2089  0.4568 -0.7484
13842SOL    HW244419   9.348   8.903   8.366 -0.0615  0.6282 -0.7080
13843SOL     OW44420   8.953   8.867   8.672  0.1240 -0.0446 -0.1474
13843SOL    HW144421   8.971   8.880   8.765  1.0006  1.5171 -0.4995
13843SOL    HW244422   8.890   8.936   8.650 -0.2655 -0.5538 -0.6793
13844SOL     OW44423   6.098   9.159   6.632 -0.6251  0.7179  0.0484
13844SOL    HW144424   6.063   9.213   6.703  1.0985  1.6846  0.2249
13844SOL    HW244425   6.075   9.069   6.657 -2.1714  1.2246  0.5578
13845SOL     OW44426   5.454   1.593   5.488  0.9731 -0.6584  0.3140
13845SOL    HW144427   5.524   1.617   5.548  1.3584  1.0895 -0.7552
13845SOL    HW244428   5.374   1.596   5.541  1.3082  0.7848  0.7824
13846SOL     OW44429   6.329   1.145   5.846 -0.8519 -0.0445  0.3638
13846SOL    HW144430   6.330   1.233   5.809  0.9849 -0.2420 -0.1273
13846SOL    HW244431   6.338   1.158   5.940  0.1134  0.2737  0.2321
13847SOL     OW44432   7.591   3.049   7.148  0.8653 -0.3299 -0.4112
13847SOL    HW144433   7.525   2.996   7.191  0.4566  1.2685  1.0469
13847SOL    HW244434   7.550   3.077   7.066 -0.9807  1.8404  1.1079
13848SOL     OW44435   5.898   5.617   3.809  0.4429  0.0517  0.0359
13848SOL    HW144436   5.867   5.554   3.745  1.1710 -0.3387  0.0490
13848SOL    HW244437   5.925   5.693   3.757  1.0142 -0.2567 -0.1334
13849SOL     OW44438   7.679   7.690   1.090 -0.1367  0.1308 -0.3208
13849SOL    HW144439   7.696   7.783   1.076  0.2844 -0.0314 -0.9063
13849SOL    HW244440   7.656   7.684   1.183  0.3321  0.7489 -0.1557
13850SOL     OW44441   2.499   1.911   2.166  0.2674 -0.5177  0.6749
13850SOL    HW144442   2.441   1.957   2.227  0.5215  0.3772  0.2471
13850SOL    HW244443   2.541   1.843   2.220 -1.6947 -1.6732  0.8371
13851SOL     OW44444   8.916   4.150   8.742 -0.0381 -0.2131 -0.1204
13851SOL    HW144445   8.991   4.191   8.699  1.1223 -0.0506  1.9188
13851SOL    HW244446   8.913   4.061   8.706  1.9017 -0.6149  0.5735
13852SOL     OW44447   6.199   7.694   8.032 -0.4469  0.0662  0.2946
13852SOL    HW144448   6.248   7.727   8.107  0.5238  1.1171 -0.7499
13852SOL    HW244449   6.201   7.599   8.043 -0.6021  0.2143  1.7486
13853SOL     OW44450   2.468   2.362   7.038  0.0573  0.4440  0.2787
13853SOL    HW144451   2.451   2.370   7.132  1.0905 -0.4628  0.5605
13853SOL    HW244452   2.562   2.349   7.031  0.2908  2.4132 -1.0342
13854SOL     OW44453   0.031   4.513   4.602  0.1366 -0.0660 -0.7767
13854SOL    HW144454  -0.009   4.467   4.529  1.0391 -2.2875  0.0432
13854SOL    HW244455  -0.012   4.477   4.680 -1.0382  2.4767 -0.1542
13855SOL     OW44456   7.769   9.594   9.373 -0.0137 -0.2847  0.0766
13855SOL    HW144457   7.852   9.614   9.415  0.9396 -1.0513 -1.3498
13855SOL    HW244458   7.755   9.501   9.390 -0.3818 -0.2493 -0.0138
13856SOL     OW44459   9.126   8.772   7.744 -0.7345  0.0040  0.0425
13856SOL    HW144460   9.199   8.713   7.758 -1.0199 -0.4728 -0.4603
13856SOL    HW244461   9.064   8.722   7.691 -2.5171 -0.5056  2.4197
13857SOL     OW44462   2.919   1.535   4.216  0.2028 -0.2731  0.1453
13857SOL    HW144463   2.952   1.610   4.265 -0.3153  0.8170 -1.0977
13857SOL    HW244464   2.824   1.542   4.222  0.1531 -0.8309  0.0344
13858SOL     OW44465   6.572   2.525   2.197 -0.4495 -0.2630  0.0754
13858SOL    HW144466   6.524   2.444   2.215 -0.8499 -0.0658 -0.0969
13858SOL    HW244467   6.659   2.510   2.234  0.5723 -2.0216 -2.7394
13859SOL     OW44468   2.159   3.120   8.403 -0.1004  0.0233 -0.8080
13859SOL    HW144469   2.164   3.036   8.449  1.3896  1.1496  1.1956
13859SOL    HW244470   2.226   3.113   8.335 -1.0249 -0.9361 -1.6665
13860SOL     OW44471   9.318   3.063   8.806 -0.2299  0.0039 -0.1398
13860SOL    HW144472   9.330   3.102   8.720 -0.2004 -0.0665 -0.1674
13860SOL    HW244473   9.274   3.131   8.857 -2.3498 -0.7336 -0.8708
13861SOL     OW44474   5.596   0.393   0.992 -0.0410 -0.2470  0.6503
13861SOL    HW144475   5.625   0.480   0.965 -0.1650 -0.8172 -1.5133
13861SOL    HW244476   5.640   0.377   1.076  0.6828  1.5083  0.6364
13862SOL     OW44477   6.578   7.690   6.102  0.5076 -0.7461 -0.0922
13862SOL    HW144478   6.508   7.738   6.057 -0.7737 -2.4632 -0.0068
13862SOL    HW244479   6.657   7.712   6.053  0.1942  2.1830  0.4888
13863SOL     OW44480   0.357   0.606   1.101  0.4354  0.2437  0.0384
13863SOL    HW144481   0.363   0.516   1.069 -0.5474 -0.7790  2.4937
13863SOL    HW244482   0.447   0.638   1.097  0.6971 -0.5574 -1.5195
13864SOL     OW44483   0.224   7.730   0.044  0.0255  0.0563 -0.6221
13864SOL    HW144484   0.149   7.673   0.024 -0.7845  0.7142  0.4243
13864SOL    HW244485   0.197   7.777   0.123  1.6577  0.1295 -0.0893
13865SOL     OW44486   4.308   3.434   1.344 -0.1253  0.2912 -0.4160
13865SOL    HW144487   4.293   3.512   1.397 -0.7844  0.1975 -0.4596
13865SOL    HW244488   4.402   3.418   1.351 -0.3198 -0.2943  1.5460
13866SOL     OW44489   8.917   7.688   6.732 -0.2181 -0.4119 -0.3487
13866SOL    HW144490   8.876   7.646   6.807 -0.5632  0.2357 -0.1665
13866SOL    HW244491   9.001   7.643   6.722 -0.4781 -0.9746 -0.0187
13867SOL     OW44492   9.252   8.011   7.773  0.3845  0.0184 -0.2972
13867SOL    HW144493   9.299   8.084   7.732 -0.1555  0.8726  0.5498
13867SOL    HW244494   9.234   7.950   7.702 -0.0184  1.1868 -1.2290
13868SOL     OW44495   8.328   0.838   3.298 -0.8068 -0.1367 -0.0814
13868SOL    HW144496   8.293   0.800   3.218  0.9646  1.0968 -1.5146
13868SOL    HW244497   8.343   0.764   3.356 -1.2496 -1.1505 -1.2373
13869SOL     OW44498   1.496   9.043   4.302 -0.3230 -0.4489  0.3424
13869SOL    HW144499   1.506   9.131   4.337  1.9196  0.0917 -1.4013
13869SOL    HW244500   1.447   9.055   4.220 -1.4355 -1.0887  0.8768
13870SOL     OW44501   5.453   0.789   2.857  0.2154  0.1531 -1.1571
13870SOL    HW144502   5.412   0.748   2.781 -1.1332 -1.6571  0.4312
13870SOL    HW244503   5.426   0.735   2.931 -0.5153  3.1244  0.9694
13871SOL     OW44504   8.409   1.969   3.074 -0.2681 -0.1796  0.0431
13871SOL    HW144505   8.317   1.956   3.048 -0.0310 -0.9219 -0.4612
13871SOL    HW244506   8.457   1.972   2.992  0.0421  1.4065  0.2537
13872SOL     OW44507   9.144   1.663   3.134 -0.0140  0.1116 -0.1793
13872SOL    HW144508   9.128   1.691   3.044  0.3248  0.0267 -0.2688
13872SOL    HW244509   9.233   1.693   3.153  0.3393 -0.8366 -0.2591
13873SOL     OW44510   9.304   7.629   4.643 -0.3483 -0.2595  0.5769
13873SOL    HW144511   9.399   7.616   4.631 -0.4292 -0.2704 -0.0945
13873SOL    HW244512   9.271   7.647   4.555 -0.8107  0.8364  0.9606
13874SOL     OW44513   2.759   2.247   5.042  0.2935 -0.1611 -0.7387
13874SOL    HW144514   2.688   2.307   5.021 -1.0862 -1.8973 -1.3264
13874SOL    HW244515   2.830   2.272   4.982 -0.2268  0.8756 -0.9413
13875SOL     OW44516   3.045   1.201   1.931 -0.2784  0.5707  0.0065
13875SOL    HW144517   3.022   1.259   1.859 -0.2965  2.0853  1.1887
13875SOL    HW244518   3.108   1.251   1.983  1.0162 -1.1367  0.1649
13876SOL     OW44519   5.483   9.199   1.129 -0.0915 -0.2869  0.3190
13876SOL    HW144520   5.390   9.222   1.131  0.0518  0.3913 -0.3928
13876SOL    HW244521   5.504   9.187   1.037  0.5318 -0.3966  0.4672
13877SOL     OW44522   6.479   6.635   0.272 -0.3871  0.1994  0.1654
13877SOL    HW144523   6.487   6.604   0.182 -0.4367 -0.5355  0.4009
13877SOL    HW244524   6.569   6.649   0.300 -0.3703  0.4066  0.0073
13878SOL     OW44525   9.619   7.178   1.941  0.6687 -0.7180  0.3021
13878SOL    HW144526   9.572   7.103   1.976  0.0811 -0.6193 -0.2457
13878SOL    HW244527   9.589   7.252   1.994 -0.9834 -0.3988 -0.9774
13879SOL     OW44528   6.388   5.489   4.895  0.9614 -0.4877 -0.0229
13879SOL    HW144529   6.446   5.415   4.877  0.6000 -0.6153 -0.6974
13879SOL    HW244530   6.301   5.450   4.902  0.4059  0.0965 -2.6340
13880SOL     OW44531   7.625   2.720   3.513 -0.0434 -0.0784 -0.1211
13880SOL    HW144532   7.685   2.782   3.471 -0.8875 -1.3703 -3.5177
13880SOL    HW244533   7.616   2.649   3.450 -5.2687  0.0928  0.0396
13881SOL     OW44534   5.853   6.970   2.904 -0.3718  0.1719  0.0034
13881SOL    HW144535   5.893   6.887   2.927 -0.4343 -0.3846 -1.7738
13881SOL    HW244536   5.765   6.966   2.942 -0.1600 -0.3047  0.4503
13882SOL     OW44537   1.896   4.059   3.943 -0.0352 -0.1805  0.1292
13882SOL    HW144538   1.826   4.092   4.000 -0.4229 -2.1847  0.9038
13882SOL    HW244539   1.863   4.070   3.854 -0.0946  1.5301  0.3363
13883SOL     OW44540   6.980   8.610   9.095  0.0393  0.0263  0.0888
13883SOL    HW144541   6.922   8.677   9.132 -2.1327 -1.9784  0.5910
13883SOL    HW244542   7.067   8.633   9.127 -0.3764  3.2805 -0.8350
13884SOL     OW44543   5.395   2.146   1.153 -0.0151  0.1912  0.4683
13884SOL    HW144544   5.387   2.065   1.101 -2.2396  0.4875  0.2417
13884SOL    HW244545   5.429   2.117   1.237 -0.9703 -1.0513  0.4631
13885SOL     OW44546   0.666   1.240   1.715  0.4602  0.0218  0.2463
13885SOL    HW144547   0.693   1.300   1.784  0.2864  0.7805 -0.3377
13885SOL    HW244548   0.607   1.178   1.759 -0.5722  1.1845  0.5518
13886SOL     OW44549   7.530   8.402   0.760  0.0322 -0.4434 -0.1679
13886SOL    HW144550   7.503   8.448   0.839  1.6696  1.8728 -0.8347
13886SOL    HW244551   7.579   8.327   0.792  1.7375  1.1208  1.1346
13887SOL     OW44552   6.837   7.243   3.350  0.2466  0.0570 -0.1742
13887SOL    HW144553   6.845   7.157   3.310 -0.4920  0.7880 -1.9816
13887SOL    HW244554   6.906   7.245   3.416  0.0655 -2.0206  0.1537
13888SOL     OW44555   5.212   1.559   3.801  0.4428  0.7142  0.4517
13888SOL    HW144556   5.269   1.501   3.751 -0.5942  0.4622 -0.4824
13888SOL    HW244557   5.244   1.647   3.781  0.6647  0.5619  0.1358
13889SOL     OW44558   0.798   1.277   5.150  0.0001  0.1456  0.1304
13889SOL    HW144559   0.850   1.228   5.086  0.5130 -0.0874  0.7196
13889SOL    HW244560   0.815   1.234   5.233 -0.5612  0.5313  0.4532
13890SOL     OW44561   3.889   1.169   0.937 -0.4061  0.4959  0.1439
13890SOL    HW144562   3.858   1.254   0.908 -1.2053 -0.3258 -1.5491
13890SOL    HW244563   3.816   1.131   0.986  0.2010  1.0255  1.5309
13891SOL     OW44564   8.094   0.366   5.935  0.4824 -0.0826  0.0735
13891SOL    HW144565   8.037   0.425   5.984 -1.2815 -1.6364  0.0187
13891SOL    HW244566   8.178   0.412   5.930 -0.7141  2.2868  0.2182
13892SOL     OW44567   4.361   6.463   2.632 -0.2120 -0.2942  0.5873
13892SOL    HW144568   4.329   6.521   2.701 -1.6170  0.5785 -0.7553
13892SOL    HW244569   4.454   6.485   2.623 -0.7570  2.0048 -0.0824
13893SOL     OW44570   2.433   5.855   3.207 -0.2468 -0.2247 -0.3109
13893SOL    HW144571   2.434   5.791   3.137 -0.8634 -1.2334  0.5767
13893SOL    HW244572   2.526   5.872   3.225 -0.0847  0.3810 -1.6464
13894SOL     OW44573   0.024   3.205   8.975 -0.2328 -0.2116 -0.3004
13894SOL    HW144574   0.096   3.143   8.964 -0.8363 -1.4576  2.0216
13894SOL    HW244575   0.025   3.258   8.895  1.1221 -2.3661 -1.8263
13895SOL     OW44576   5.538   8.451   7.190 -0.2582 -0.1653 -0.0397
13895SOL    HW144577   5.453   8.412   7.212 -0.3863  0.2734  0.2599
13895SOL    HW244578   5.592   8.436   7.267 -0.6714  1.2667  0.5651
13896SOL     OW44579   7.183   6.754   6.068 -0.4992  0.0999 -0.4825
13896SOL    HW144580   7.196   6.822   6.001  1.4909  0.0933 -0.1657
13896SOL    HW244581   7.271   6.719   6.085 -1.3767 -2.1768 -0.2072
13897SOL     OW44582   9.123   4.715   7.084  0.4125 -0.1121 -0.0731
13897SOL    HW144583   9.083   4.628   7.087  2.4852 -1.1521 -0.6503
13897SOL    HW244584   9.054   4.772   7.049 -1.0006 -1.4917  0.3269
13898SOL     OW44585   6.631   0.592   0.835  0.3021 -0.2971  0.3802
13898SOL    HW144586   6.577   0.670   0.829  1.6514  0.6220 -0.5003
13898SOL    HW244587   6.668   0.595   0.923 -0.6298 -0.6405  0.7914
13899SOL     OW44588   4.373   7.727   1.082  0.0961 -0.4551  0.1007
13899SOL    HW144589   4.371   7.711   1.176  0.8672 -0.1415  0.1741
13899SOL    HW244590   4.306   7.669   1.047 -2.8399  1.9435  1.2050
13900SOL     OW44591   3.658   5.699   0.440 -0.1540 -0.1546  0.5369
13900SOL    HW144592   3.701   5.626   0.485  0.7546  1.2438  2.0620
13900SOL    HW244593   3.643   5.764   0.508 -0.0807  1.4673 -0.9154
13901SOL     OW44594   6.543   1.616   6.125  0.0023 -0.2826  0.2278
13901SOL    HW144595   6.531   1.696   6.074 -1.6467 -0.6904 -0.0973
13901SOL    HW244596   6.491   1.550   6.079 -0.0207 -1.1270  1.4003
13902SOL     OW44597   2.886   9.122   4.939  0.4795  0.1038 -0.2146
13902SOL    HW144598   2.940   9.105   5.016  1.3713  0.7694 -0.6799
13902SOL    HW244599   2.857   9.213   4.949 -1.3528 -0.4978  0.4878
13903SOL     OW44600   2.608   9.253   1.573 -0.1030 -0.5625 -0.5430
13903SOL    HW144601   2.682   9.298   1.532 -0.5511 -0.9766 -1.8364
13903SOL    HW244602   2.540   9.320   1.580 -0.8316 -1.0025 -2.6251
13904SOL     OW44603   5.665   6.878   2.216  0.0998 -0.2135 -0.1416
13904SOL    HW144604   5.620   6.848   2.295 -0.4763  0.1335 -0.3392
13904SOL    HW244605   5.725   6.946   2.247 -0.5457  0.3339 -0.0845
13905SOL     OW44606   8.822   3.221   4.441 -0.0885  0.2700  0.0265
13905SOL    HW144607   8.870   3.180   4.369 -0.7400 -0.1068 -0.1947
13905SOL    HW244608   8.758   3.278   4.398 -0.3053  0.2428  0.3103
13906SOL     OW44609   8.759   0.179   2.360  0.4425 -0.4056 -0.0311
13906SOL    HW144610   8.683   0.221   2.319  0.8174 -0.7322 -1.1201
13906SOL    HW244611   8.813   0.252   2.391 -0.1211 -0.1646  0.3895
13907SOL     OW44612   8.242   5.933   7.805 -0.2529  0.3015  0.2924
13907SOL    HW144613   8.207   5.958   7.720 -1.5801 -2.0493  0.0503
13907SOL    HW244614   8.170   5.950   7.867 -0.5623 -1.1349  0.3689
13908SOL     OW44615   7.206   2.535   3.699 -0.3736  0.1682 -0.1830
13908SOL    HW144616   7.132   2.594   3.713 -0.5217 -0.0487 -0.0614
13908SOL    HW244617   7.241   2.520   3.787  0.0875  0.6220 -0.2800
13909SOL     OW44618   4.254   2.500   4.385  0.9140  0.6347  0.0266
13909SOL    HW144619   4.173   2.450   4.375 -0.4283  2.8120 -0.6380
13909SOL    HW244620   4.253   2.529   4.476 -0.0439  2.1956 -0.4523
13910SOL     OW44621   7.019   2.043   7.427 -0.3475 -0.3692  0.0005
13910SOL    HW144622   7.053   2.129   7.403  0.8188 -0.5189  1.0170
13910SOL    HW244623   6.928   2.058   7.449 -0.0730  0.6737  0.4675
13911SOL     OW44624   4.660   7.066   4.671  0.3883  0.3770 -0.2163
13911SOL    HW144625   4.704   7.140   4.712 -1.5526  1.8713 -0.6702
13911SOL    HW244626   4.571   7.068   4.708 -0.7501  0.3976 -2.7548
13912SOL     OW44627   0.144   1.774   4.394 -0.1877 -0.5091  0.8048
13912SOL    HW144628   0.228   1.821   4.395  0.2771 -1.3133  1.2179
13912SOL    HW244629   0.078   1.842   4.396  0.4668  0.1333  2.2399
13913SOL     OW44630   7.030   8.588   7.346  0.4638  0.3235 -0.2932
13913SOL    HW144631   7.025   8.640   7.266 -0.0058  2.1561  0.8592
13913SOL    HW244632   7.120   8.558   7.349  0.0286 -1.4754 -2.4699
13914SOL     OW44633   4.436   8.284   5.394 -0.4918  0.3850  0.0865
13914SOL    HW144634   4.399   8.196   5.395  1.2509 -0.3805  0.2441
13914SOL    HW244635   4.460   8.298   5.302 -0.0963  0.3784  0.1848
13915SOL     OW44636   2.962   6.317   4.531  0.4656  0.5138  0.1527
13915SOL    HW144637   2.964   6.225   4.505 -1.6922  1.1820 -3.0828
13915SOL    HW244638   2.893   6.322   4.596  2.0349 -0.3729  1.9898
13916SOL     OW44639   6.455   3.292   4.280 -0.2208  0.0588  0.1430
13916SOL    HW144640   6.408   3.275   4.198  1.2255 -2.0050 -0.3688
13916SOL    HW244641   6.533   3.340   4.252 -1.1826  2.0669  0.7708
13917SOL     OW44642   3.682   3.490   5.886  0.1416 -0.5568 -0.4302
13917SOL    HW144643   3.660   3.403   5.920 -0.9712 -0.3689 -0.6118
13917SOL    HW244644   3.725   3.473   5.802  1.5917 -0.9732  0.3714
13918SOL     OW44645   3.369   2.149   6.601  0.3792  0.3707  0.0723
13918SOL    HW144646   3.414   2.198   6.531  0.2610  0.1290 -0.1738
13918SOL    HW244647   3.440   2.108   6.650  0.4018 -1.4302 -1.3463
13919SOL     OW44648   6.124   2.307   2.096  1.2014  0.0001 -0.2378
13919SOL    HW144649   6.149   2.231   2.044  0.9355 -0.7110  0.6545
13919SOL    HW244650   6.131   2.278   2.187 -0.9641  0.3351  0.0951
13920SOL     OW44651   5.111   7.231   4.824 -0.5122  0.1357  0.3115
13920SOL    HW144652   5.132   7.237   4.731 -2.6478  0.0609 -0.2056
13920SOL    HW244653   5.016   7.242   4.829 -0.5201 -0.4015  2.4398
13921SOL     OW44654   6.737   1.645   6.624  0.1498  0.1262  0.4951
13921SOL    HW144655   6.657   1.640   6.572  0.4298  2.0589 -0.1628
13921SOL    HW244656   6.808   1.640   6.560  0.5134  1.1874  0.8051
13922SOL     OW44657   7.254   5.994   1.200 -0.0269  0.3320  0.1067
13922SOL    HW144658   7.194   6.068   1.203 -1.0195 -0.4538  0.0990
13922SOL    HW244659   7.268   5.970   1.292 -0.3634  0.0154  0.0769
13923SOL     OW44660   5.835   5.887   2.688 -0.3083 -0.5769  0.0942
13923SOL    HW144661   5.765   5.871   2.751 -1.6443  4.1181  0.1828
13923SOL    HW244662   5.910   5.913   2.741 -0.7387  1.1499 -0.0768
13924SOL     OW44663   5.325   0.922   5.381 -0.1539 -0.1772  0.2882
13924SOL    HW144664   5.376   1.003   5.385  1.0488 -0.8652 -0.6567
13924SOL    HW244665   5.287   0.921   5.293  0.7080 -1.1277 -0.0936
13925SOL     OW44666   5.717   4.471   7.053 -1.0152 -0.2587 -0.4418
13925SOL    HW144667   5.764   4.470   6.969 -0.1672 -0.9513  0.0286
13925SOL    HW244668   5.775   4.520   7.112  0.1424 -2.7923  0.6868
13926SOL     OW44669   9.601   3.743   2.720 -0.2281 -0.0597 -0.2586
13926SOL    HW144670   9.528   3.794   2.684  0.3480  0.6450 -0.4678
13926SOL    HW244671   9.609   3.668   2.660  0.0007  0.5111 -0.9595
13927SOL     OW44672   4.546   6.798   9.178  0.0799 -0.1061  0.0102
13927SOL    HW144673   4.470   6.761   9.133  0.0739  1.7051 -1.6136
13927SOL    HW244674   4.612   6.729   9.174 -0.4131 -0.5464 -1.5561
13928SOL     OW44675   1.987   6.387   4.389  0.0244 -0.1525 -0.0382
13928SOL    HW144676   1.933   6.322   4.345 -1.0389 -2.3342  4.0594
13928SOL    HW244677   1.924   6.453   4.419  0.5467  0.6001 -0.5672
13929SOL     OW44678   2.526   1.645   2.866  0.3663 -1.0858  0.0761
13929SOL    HW144679   2.618   1.633   2.843  0.2566  0.4502 -1.2672
13929SOL    HW244680   2.478   1.624   2.787 -0.2338  0.9643 -0.1552
13930SOL     OW44681   5.812   3.696   1.228  0.1727  0.7292 -0.2311
13930SOL    HW144682   5.751   3.768   1.245 -0.3514  0.6875 -1.7094
13930SOL    HW244683   5.766   3.618   1.258  0.1371  0.8557  0.0475
13931SOL     OW44684   2.516   8.436   3.121 -0.0149 -0.0234  0.2224
13931SOL    HW144685   2.486   8.485   3.044  1.6488  3.9872  1.8586
13931SOL    HW244686   2.447   8.450   3.187 -0.1997 -1.2244  0.3113
13932SOL     OW44687   6.910   8.263   8.159 -0.0073 -0.1271  0.5159
13932SOL    HW144688   6.876   8.351   8.175  2.4086  0.5246  2.8000
13932SOL    HW244689   6.983   8.276   8.099 -0.6243 -0.8261 -0.4086
13933SOL     OW44690   2.041   5.693   8.196 -0.2166  0.1217 -0.2271
13933SOL    HW144691   2.102   5.766   8.207  1.0478 -0.9825  0.3231
13933SOL    HW244692   1.999   5.684   8.282 -0.2660  0.0941 -0.2543
13934SOL     OW44693   2.424   0.302   2.187 -0.0313 -0.6888 -0.2409
13934SOL    HW144694   2.497   0.358   2.160  0.6815 -0.8944  1.1745
13934SOL    HW244695   2.402   0.251   2.109  0.0087  0.7919 -1.2557
13935SOL     OW44696   9.212   6.253   9.050  0.1458 -0.2333 -0.3378
13935SOL    HW144697   9.207   6.172   9.000 -2.1865 -0.1150 -0.3980
13935SOL    HW244698   9.162   6.317   8.999 -2.2881 -0.0985  2.0182
13936SOL     OW44699   9.166   4.706   7.989 -0.0917  0.1262 -0.4919
13936SOL    HW144700   9.150   4.792   8.029 -1.1532 -0.0104 -0.5977
13936SOL    HW244701   9.254   4.682   8.018 -0.0162  0.9890  0.0209
13937SOL     OW44702   2.796   6.041   4.119 -0.3716  0.3416 -0.5713
13937SOL    HW144703   2.881   6.079   4.140 -0.0995 -1.3676  1.7458
13937SOL    HW244704   2.778   6.072   4.030  2.0695  1.7394 -0.6806
13938SOL     OW44705   0.535   8.722   3.295 -0.2480 -0.1465 -0.0818
13938SOL    HW144706   0.444   8.719   3.267 -0.1270 -1.7359 -0.3850
13938SOL    HW244707   0.541   8.657   3.366  0.7417 -0.4234 -0.3952
13939SOL     OW44708   7.009   7.990   8.004 -0.0010  0.0402 -0.2403
13939SOL    HW144709   7.067   8.054   8.043  0.7573 -1.0680  0.5214
13939SOL    HW244710   7.006   8.013   7.911  0.7327  0.8007 -0.0814
13940SOL     OW44711   3.051   4.454   6.073  0.1195 -0.0848 -0.3860
13940SOL    HW144712   2.993   4.405   6.015 -0.8552 -1.1567  1.3952
13940SOL    HW244713   3.002   4.460   6.156  1.8459  0.4986  0.6411
13941SOL     OW44714   3.900   1.818   0.761 -0.2149 -0.2693 -0.0725
13941SOL    HW144715   3.978   1.873   0.771  0.8156 -1.7206  0.3110
13941SOL    HW244716   3.833   1.860   0.814  0.6766  0.3606  0.5748
13942SOL     OW44717   0.742   7.182   1.510  0.0926 -0.0020 -0.4349
13942SOL    HW144718   0.744   7.115   1.578  0.3111 -0.3197 -0.7562
13942SOL    HW244719   0.710   7.137   1.432 -0.4544  0.4325 -0.4695
13943SOL     OW44720   4.889   5.364   8.470  0.3887 -0.4522  0.4068
13943SOL    HW144721   4.918   5.276   8.446  0.2201 -0.6434  0.9050
13943SOL    HW244722   4.953   5.393   8.536  0.5130 -0.1514  0.1602
13944SOL     OW44723   7.948   6.036   8.496 -0.0776  0.2711  0.5097
13944SOL    HW144724   8.015   6.091   8.456  0.8333 -0.4247  1.0404
13944SOL    HW244725   7.877   6.034   8.432  1.0444 -0.2215 -0.7540
13945SOL     OW44726   0.893   2.241   7.965  0.6244 -0.3079  0.1482
13945SOL    HW144727   0.808   2.281   7.944  1.3000  1.2825  0.3428
13945SOL    HW244728   0.911   2.183   7.891  0.7865  1.6792 -1.4588
13946SOL     OW44729   8.832   3.049   5.829  0.5223  0.2893 -0.1317
13946SOL    HW144730   8.776   2.976   5.803  0.6096  0.7066 -1.6160
13946SOL    HW244731   8.921   3.013   5.827  0.4102 -0.1186  1.2844
13947SOL     OW44732   5.515   3.012   6.278 -0.4175 -0.4393 -0.3771
13947SOL    HW144733   5.443   2.959   6.312 -0.5703  0.4217  0.6775
13947SOL    HW244734   5.591   2.988   6.330 -0.5220  0.4629  0.2199
13948SOL     OW44735   7.312   6.432   0.916 -0.0571 -0.5227  0.0334
13948SOL    HW144736   7.325   6.518   0.876 -1.4937 -0.0052  0.6269
13948SOL    HW244737   7.354   6.439   1.002 -0.6450 -0.2131  0.3039
13949SOL     OW44738   0.933   1.114   0.670 -0.2522 -0.3306  0.1726
13949SOL    HW144739   0.887   1.076   0.745 -1.3455 -0.9086 -0.7518
13949SOL    HW244740   0.863   1.139   0.610  0.4750  2.2624  0.2925
13950SOL     OW44741   6.984   3.241   7.044  0.1192  0.0840 -0.3777
13950SOL    HW144742   7.060   3.243   6.987  1.5604  1.4374  1.4631
13950SOL    HW244743   6.978   3.151   7.075  0.9704 -0.0248 -0.5318
13951SOL     OW44744   9.312   7.919   4.346 -0.4393  0.2654  0.0208
13951SOL    HW144745   9.307   7.835   4.391 -1.4864 -0.3182 -1.1443
13951SOL    HW244746   9.384   7.965   4.389  0.5921 -1.4826  0.2359
13952SOL     OW44747   7.206   1.004   5.919 -0.0854 -0.5055 -0.0175
13952SOL    HW144748   7.128   0.973   5.872 -0.6020 -0.3346  0.7020
13952SOL    HW244749   7.203   1.099   5.911 -0.5667 -0.4277  0.9348
13953SOL     OW44750   4.621   4.239   1.312 -0.0395 -0.3411 -0.3656
13953SOL    HW144751   4.555   4.209   1.375 -0.0602 -1.3571 -0.8606
13953SOL    HW244752   4.703   4.200   1.343 -0.0499 -0.8546 -0.9581
13954SOL     OW44753   4.756   4.543   2.309  0.1186 -0.0015 -0.3896
13954SOL    HW144754   4.831   4.484   2.304  1.0395  1.1955 -1.0684
13954SOL    HW244755   4.770   4.592   2.390  1.0088  1.4146 -1.3652
13955SOL     OW44756   7.334   3.957   5.617  0.0244 -0.3948 -0.1647
13955SOL    HW144757   7.308   4.033   5.669  0.1525 -0.1112 -0.5109
13955SOL    HW244758   7.346   3.992   5.529  0.3053 -0.7750 -0.2772
13956SOL     OW44759   0.042   1.142   0.532 -1.0099 -0.4565 -0.0670
13956SOL    HW144760   0.039   1.046   0.526 -1.0110 -0.3586 -2.0757
13956SOL    HW244761   0.110   1.159   0.598  0.5173 -1.8332 -1.2076
13957SOL     OW44762   3.822   8.759   5.002 -0.1686  0.4809  0.2100
13957SOL    HW144763   3.819   8.764   5.097 -0.1338 -1.3736  0.3553
13957SOL    HW244764   3.800   8.847   4.972 -0.7936  0.9441  1.9159
13958SOL     OW44765   5.817   5.555   9.002 -0.1247  0.2279 -0.2077
13958SOL    HW144766   5.887   5.605   8.959  1.1445 -2.0101 -0.9048
13958SOL    HW244767   5.828   5.574   9.095  0.6311  0.8566 -0.4095
13959SOL     OW44768   7.813   2.762   7.773 -0.0572  0.6689 -0.3496
13959SOL    HW144769   7.843   2.761   7.682  0.7055  0.1890 -0.0983
13959SOL    HW244770   7.888   2.794   7.823  0.3072 -1.2358  0.3796
13960SOL     OW44771   4.841   9.021   7.340 -0.2303 -0.3589 -0.0279
13960SOL    HW144772   4.856   8.953   7.274 -1.0341 -0.5393 -0.0414
13960SOL    HW244773   4.928   9.051   7.364  0.2346 -2.2959  0.8882
13961SOL     OW44774   3.083   0.087   7.253  0.1513 -0.1519 -0.1253
13961SOL    HW144775   3.051   0.118   7.338  0.4211 -2.5613  0.9318
13961SOL    HW244776   3.146   0.154   7.225 -2.2234  2.2953 -0.0188
13962SOL     OW44777   8.095   8.021   9.231  0.4198 -0.1928  0.1605
13962SOL    HW144778   8.163   7.956   9.251  0.2537 -0.5865 -0.5324
13962SOL    HW244779   8.050   7.986   9.155 -2.2135 -1.1901  2.0109
13963SOL     OW44780   2.403   4.863   6.027 -0.1593  0.4674  0.4069
13963SOL    HW144781   2.429   4.825   5.943  0.5393  0.8413  0.4442
13963SOL    HW244782   2.437   4.952   6.025  0.7704  0.1684  1.4867
13964SOL     OW44783   2.407   8.289   2.452  0.0577 -0.4674  0.0576
13964SOL    HW144784   2.379   8.202   2.425  0.4422 -1.1482  1.7266
13964SOL    HW244785   2.435   8.332   2.371 -0.4361 -1.7709 -0.8299
13965SOL     OW44786   8.107   0.350   2.639  0.3044 -0.0474  0.0196
13965SOL    HW144787   8.080   0.437   2.669 -0.0450 -0.0081 -0.4105
13965SOL    HW244788   8.176   0.325   2.701 -0.1452  0.1929  0.6339
13966SOL     OW44789   2.167   6.099   9.622  0.5935 -0.0990  0.7275
13966SOL    HW144790   2.119   6.086   9.703  0.2563  0.2622  0.5908
13966SOL    HW244791   2.236   6.162   9.644 -1.6042  2.7955 -0.0123
13967SOL     OW44792   7.737   3.859   6.553  0.1929  0.2153  0.1201
13967SOL    HW144793   7.703   3.872   6.642 -1.8718  0.0523 -0.6120
13967SOL    HW244794   7.749   3.765   6.545 -1.5476  0.0131 -0.4145
13968SOL     OW44795   8.841   7.384   5.321  0.0950 -0.5379 -0.7759
13968SOL    HW144796   8.909   7.323   5.293  0.0704 -0.0938 -1.8549
13968SOL    HW244797   8.884   7.470   5.320 -0.0432 -0.4445  0.1151
13969SOL     OW44798   2.986   2.963   6.024  0.0089  0.1320 -0.2970
13969SOL    HW144799   2.900   2.934   6.055  0.0148 -1.8419 -1.8732
13969SOL    HW244800   2.969   3.045   5.977 -0.3147  1.9539  2.7393
13970SOL     OW44801   6.313   1.374   6.378 -0.0020 -0.2167  0.1951
13970SOL    HW144802   6.336   1.300   6.321  0.0857 -0.6469  0.7748
13970SOL    HW244803   6.254   1.336   6.443  1.0680 -0.0852  1.2876
13971SOL     OW44804   0.655   8.187   2.921 -0.3041 -0.1662  0.0600
13971SOL    HW144805   0.750   8.176   2.917 -0.2428 -0.1748  1.2414
13971SOL    HW244806   0.636   8.249   2.850  0.3557 -1.4609 -1.3011
13972SOL     OW44807   9.567   9.295   3.139  0.0290 -0.4199  0.3141
13972SOL    HW144808   9.574   9.231   3.068  0.1269 -1.0292  0.8578
13972SOL    HW244809   9.618   9.370   3.109  0.7717 -0.9979  0.0938
13973SOL     OW44810   0.415   2.431   6.385 -0.1459  0.4910 -0.0773
13973SOL    HW144811   0.443   2.348   6.344 -1.2285  0.5650 -1.0311
13973SOL    HW244812   0.484   2.451   6.448  0.3244 -0.9544 -0.0824
13974SOL     OW44813   6.410   3.214   7.281  0.1384  0.0771 -0.4621
13974SOL    HW144814   6.349   3.224   7.209  0.4670  1.2525 -0.5960
13974SOL    HW244815   6.362   3.164   7.347 -0.6405  0.1964 -0.9319
13975SOL     OW44816   6.560   7.055   5.845 -0.4061 -0.3423 -0.1009
13975SOL    HW144817   6.655   7.065   5.843 -0.3847 -0.4601  0.2907
13975SOL    HW244818   6.544   6.983   5.907 -0.8340  0.7997  1.1557
13976SOL     OW44819   9.298   5.001   4.844  0.1671  0.7151 -0.6570
13976SOL    HW144820   9.317   5.089   4.811  0.0269 -0.4052 -4.0868
13976SOL    HW244821   9.205   4.989   4.825  0.2574 -0.2987 -0.4831
13977SOL     OW44822   9.143   9.267   6.331  0.6640 -0.3073  0.4891
13977SOL    HW144823   9.061   9.219   6.319 -0.9081  1.6371  2.6455
13977SOL    HW244824   9.116   9.354   6.359  3.4280  1.5379 -2.0292
13978SOL     OW44825   4.705   5.501   1.536  0.5935 -0.1529  0.9621
13978SOL    HW144826   4.636   5.566   1.530  0.1169 -0.6921  0.4829
13978SOL    HW244827   4.753   5.523   1.616  1.0120  1.3271  0.3338
13979SOL     OW44828   4.019   1.136   6.022 -0.0215  0.0673 -0.2047
13979SOL    HW144829   4.099   1.084   6.011 -0.3649  0.0281 -3.5497
13979SOL    HW244830   4.036   1.217   5.975 -1.1507  1.0712  1.0376
13980SOL     OW44831   1.875   1.866   7.636 -0.3195  0.4857  0.7263
13980SOL    HW144832   1.954   1.885   7.685  1.2407  0.0923 -1.4919
13980SOL    HW244833   1.845   1.951   7.603  0.5492  0.4140 -0.3249
13981SOL     OW44834   1.473   4.191   5.219 -0.0841  0.1058 -0.0815
13981SOL    HW144835   1.393   4.236   5.246  0.3400  0.1175  1.2402
13981SOL    HW244836   1.532   4.262   5.193 -0.1067  0.1739  0.0533
13982SOL     OW44837   9.277   5.557   8.083 -0.1254 -0.3344 -0.0576
13982SOL    HW144838   9.191   5.551   8.125 -0.3752 -1.0223 -0.6426
13982SOL    HW244839   9.264   5.616   8.009 -0.0348 -0.2422 -0.0001
13983SOL     OW44840   4.929   2.718   3.052  0.3169  0.3259  0.4849
13983SOL    HW144841   4.847   2.717   3.003 -0.3684 -0.5612  1.5970
13983SOL    HW244842   4.915   2.781   3.122  0.5402  0.0840  0.7492
13984SOL     OW44843   0.194   8.513   8.065 -0.1294  0.5442 -0.0138
13984SOL    HW144844   0.163   8.473   7.984  0.3397 -0.3410  0.2317
13984SOL    HW244845   0.114   8.533   8.114 -0.4252 -3.5343  1.4987
13985SOL     OW44846   5.399   6.383   3.270 -0.4708  0.2915 -0.2428
13985SOL    HW144847   5.461   6.349   3.335 -0.3726  1.4586  0.3006
13985SOL    HW244848   5.428   6.474   3.255 -1.1230  0.3616 -1.1376
13986SOL     OW44849   3.761   7.513   4.157  0.4050  0.0373 -0.6253
13986SOL    HW144850   3.763   7.513   4.252 -3.8554  0.3745 -0.3362
13986SOL    HW244851   3.806   7.593   4.131 -0.9084  1.5042  1.3642
13987SOL     OW44852   4.287   2.442   8.616 -0.4709 -0.1298  0.3621
13987SOL    HW144853   4.342   2.416   8.689 -0.4666 -2.2120 -0.3316
13987SOL    HW244854   4.211   2.484   8.657  0.4837  0.6222  1.4290
13988SOL     OW44855   6.992   0.765   0.090 -0.8583 -0.3092  0.0988
13988SOL    HW144856   6.987   0.700   0.020  0.9729 -0.0596 -0.3192
13988SOL    HW244857   6.968   0.848   0.048 -1.1526 -0.3824  0.1212
13989SOL     OW44858   0.979   5.951   8.947  0.5428  0.3139  0.3388
13989SOL    HW144859   0.988   5.948   9.042 -1.9427 -1.9847  0.6220
13989SOL    HW244860   1.031   5.877   8.915 -0.3745 -0.2634  0.1459
13990SOL     OW44861   8.353   6.424   7.466  0.0791  0.0121  0.2333
13990SOL    HW144862   8.419   6.457   7.528  1.5418 -0.5572 -0.9558
13990SOL    HW244863   8.404   6.383   7.397 -1.6046 -2.6542  0.4551
13991SOL     OW44864   4.934   4.703   7.893 -0.0885  0.1937  0.2712
13991SOL    HW144865   4.893   4.657   7.820 -0.6411 -0.2880  0.8777
13991SOL    HW244866   4.864   4.757   7.930  0.2864  0.7244  0.2247
13992SOL     OW44867   8.284   2.101   0.067  0.8211 -0.1289 -0.2142
13992SOL    HW144868   8.267   2.117  -0.025  2.2341 -0.1963 -0.5109
13992SOL    HW244869   8.247   2.014   0.083  0.5185 -0.0938 -0.6995
13993SOL     OW44870   6.023   7.025   4.139  0.1476 -0.1000 -0.4864
13993SOL    HW144871   6.104   7.073   4.122  0.7487 -0.9459 -0.1300
13993SOL    HW244872   5.994   7.056   4.225 -0.0151  0.3409 -0.6979
13994SOL     OW44873   1.448   1.959   9.151 -0.6011  0.2822  0.3463
13994SOL    HW144874   1.462   1.890   9.086 -1.5582 -0.0165  0.4374
13994SOL    HW244875   1.505   1.935   9.224 -1.2492 -0.6776  0.5639
13995SOL     OW44876   5.738   1.392   0.486 -0.5162  0.4492  0.1547
13995SOL    HW144877   5.700   1.374   0.572 -0.5376  0.3206  0.1180
13995SOL    HW244878   5.743   1.488   0.482  1.1281  0.4286  1.0113
13996SOL     OW44879   9.283   2.027   7.185  0.1697  0.2476 -0.1029
13996SOL    HW144880   9.196   1.991   7.203  0.3742 -0.7803 -1.0490
13996SOL    HW244881   9.333   2.013   7.265 -0.4284  0.5210  0.3197
13997SOL     OW44882   5.239   3.417   4.809 -0.4115  0.0216 -0.4527
13997SOL    HW144883   5.161   3.399   4.861 -0.6985  2.3840  0.0715
13997SOL    HW244884   5.205   3.444   4.723 -0.1399  0.3846 -0.4468
13998SOL     OW44885   0.668   4.336   5.692  0.1266  1.1666 -0.3604
13998SOL    HW144886   0.575   4.316   5.702  0.3013  1.0868  1.5154
13998SOL    HW244887   0.671   4.413   5.634 -0.8121 -1.1230 -3.7610
13999SOL     OW44888   8.165   3.092   8.177  0.1702 -0.1152 -0.3799
13999SOL    HW144889   8.137   3.003   8.196 -0.4331 -0.1488 -1.3156
13999SOL    HW244890   8.252   3.100   8.216  0.5908 -1.3930 -1.0209
14000SOL     OW44891   5.315   3.727   8.258 -1.0940  0.0061 -0.0312
14000SOL    HW144892   5.374   3.763   8.192 -2.5363  2.0681 -0.3035
14000SOL    HW244893   5.277   3.650   8.217 -1.1466  0.6389 -1.2205
14001SOL     OW44894   9.619   0.099   7.059  0.2845 -0.4117  0.2650
14001SOL    HW144895   9.681   0.171   7.069 -0.2552  0.3140 -1.2967
14001SOL    HW244896   9.648   0.033   7.123  1.0703  0.9680  1.3838
14002SOL     OW44897   3.288   4.685   5.089  0.2578  0.1352  0.0591
14002SOL    HW144898   3.318   4.688   5.180 -1.2613 -0.1917  0.6136
14002SOL    HW244899   3.360   4.722   5.038  0.6959  1.3793  1.5193
14003SOL     OW44900   6.039   2.025   1.111  0.1452 -0.3074 -0.2170
14003SOL    HW144901   6.052   2.118   1.130 -0.8271  0.4200 -2.6837
14003SOL    HW244902   5.943   2.014   1.113  0.1566 -0.8302 -1.5434
14004SOL     OW44903   6.160   9.085   2.279 -0.2362  0.2629 -0.4976
14004SOL    HW144904   6.091   9.152   2.276  0.4061  0.9131 -1.0030
14004SOL    HW244905   6.215   9.103   2.203  1.6156  0.9845  0.9439
14005SOL     OW44906   6.236   2.578   8.274  0.6034  0.0339 -0.1927
14005SOL    HW144907   6.267   2.520   8.344  2.1086  0.4396 -0.4923
14005SOL    HW244908   6.199   2.653   8.320  2.5298  0.7829  0.1962
14006SOL     OW44909   9.007   0.485   0.545  0.5349  0.5036  0.3687
14006SOL    HW144910   9.018   0.436   0.626  1.3404 -0.1520 -0.1106
14006SOL    HW244911   9.056   0.567   0.559 -0.1890  0.8542  0.9008
14007SOL     OW44912   3.998   7.604   3.599  0.2286 -0.0163 -0.1305
14007SOL    HW144913   4.034   7.670   3.658  0.0025 -0.9257  1.0601
14007SOL    HW244914   4.075   7.567   3.555  0.3126  1.4463 -1.3065
14008SOL     OW44915   8.170   8.709   3.626 -0.2111 -0.4813 -0.1343
14008SOL    HW144916   8.122   8.643   3.676 -1.1165  0.9128  0.9234
14008SOL    HW244917   8.260   8.702   3.658 -0.6179 -0.1489  1.1532
14009SOL     OW44918   7.982   5.579   1.389 -0.4347  0.2203  0.3471
14009SOL    HW144919   7.940   5.510   1.338  1.1050 -0.3815 -0.1614
14009SOL    HW244920   7.912   5.642   1.407 -1.5804 -0.8342 -0.2760
14010SOL     OW44921   4.856   2.152   2.229 -0.5879 -0.0107  0.0622
14010SOL    HW144922   4.861   2.247   2.233  0.7551  0.0004 -1.0722
14010SOL    HW244923   4.790   2.134   2.163 -2.3212  0.0736  1.6969
14011SOL     OW44924   6.421   3.394   1.141 -0.6915  0.1360 -0.4600
14011SOL    HW144925   6.476   3.462   1.180  0.4393 -0.3475 -1.1651
14011SOL    HW244926   6.438   3.317   1.195 -1.8482  0.3515  0.2401
14012SOL     OW44927   6.470   8.573   5.610  0.2338  0.0737  0.1517
14012SOL    HW144928   6.525   8.519   5.667  0.7725 -1.0718 -1.3649
14012SOL    HW244929   6.403   8.512   5.578  0.1079  0.6154 -0.6269
14013SOL     OW44930   9.589   0.584   5.989  0.3576  0.0570  0.0663
14013SOL    HW144931   9.558   0.665   5.949  0.1440  0.2390  0.6056
14013SOL    HW244932   9.586   0.600   6.083 -2.0716 -1.4104  0.3326
14014SOL     OW44933   0.167   2.586   9.360 -0.3507 -0.2166 -0.4906
14014SOL    HW144934   0.128   2.648   9.422 -0.3925  1.5252 -2.1858
14014SOL    HW244935   0.097   2.566   9.298 -0.0710 -1.2855 -0.4830
14015SOL     OW44936   4.203   2.305   6.923 -0.7619 -0.4348 -0.0590
14015SOL    HW144937   4.138   2.283   6.990  0.3626 -0.9477  0.9118
14015SOL    HW244938   4.264   2.231   6.923  1.4909  1.2517  1.2423
14016SOL     OW44939   8.357   4.934   8.942 -0.5379  0.7303  0.5183
14016SOL    HW144940   8.324   4.844   8.944 -1.4720  1.0519  0.1313
14016SOL    HW244941   8.300   4.980   8.880 -0.6564  1.7987  1.3711
14017SOL     OW44942   5.525   2.818   1.883 -0.6912 -0.3844 -0.1409
14017SOL    HW144943   5.499   2.901   1.843 -0.6917  0.0735  0.7841
14017SOL    HW244944   5.573   2.772   1.813 -0.2749  0.5975 -0.5170
14018SOL     OW44945   7.358   2.470   2.622  0.1229 -0.6541 -0.0048
14018SOL    HW144946   7.274   2.427   2.640  0.2576 -1.0457 -0.3025
14018SOL    HW244947   7.395   2.421   2.549  0.6432 -0.5218  0.1655
14019SOL     OW44948   2.524   0.009   4.870  0.2034 -0.0880 -0.1181
14019SOL    HW144949   2.619  -0.003   4.860  0.2210  0.6907 -1.0613
14019SOL    HW244950   2.515   0.082   4.930  0.1934 -0.4291  0.2967
14020SOL     OW44951   5.440   4.319   8.117 -0.5038  0.2133  0.2771
14020SOL    HW144952   5.369   4.257   8.102 -1.2411  0.7941  1.1699
14020SOL    HW244953   5.403   4.404   8.093  0.4215  0.3404 -0.7438
14021SOL     OW44954   7.872   3.420   4.607 -0.0477  0.0860 -0.1076
14021SOL    HW144955   7.806   3.354   4.627 -0.2926  0.2727 -0.2975
14021SOL    HW244956   7.839   3.500   4.646 -0.1993  0.2997 -0.6607
14022SOL     OW44957   7.485   0.170   3.063  0.1774  0.3205  0.5467
14022SOL    HW144958   7.511   0.241   3.004  0.5659  0.3092  0.7008
14022SOL    HW244959   7.566   0.121   3.077 -0.1438 -0.3101  0.2316
14023SOL     OW44960   7.165   8.206   5.547 -0.4348  0.0658  0.0274
14023SOL    HW144961   7.258   8.200   5.565 -0.2391  2.1242 -0.0650
14023SOL    HW244962   7.123   8.151   5.614  0.7339  0.6140  1.2434
14024SOL     OW44963   0.797   2.031   7.319 -0.1512 -0.4646 -0.6982
14024SOL    HW144964   0.764   2.062   7.403 -0.2779 -0.9489 -0.5621
14024SOL    HW244965   0.729   2.052   7.256 -0.9219 -1.8071 -0.3565
14025SOL     OW44966   0.080   0.085   2.708 -0.0679 -0.3583  0.0272
14025SOL    HW144967   0.149   0.141   2.671 -0.9694  2.5749  2.3710
14025SOL    HW244968   0.127   0.021   2.761  0.9343 -0.0474 -0.4531
14026SOL     OW44969   7.760   6.521   8.958 -0.0298 -0.0438 -0.4660
14026SOL    HW144970   7.803   6.547   9.040 -0.5587 -1.1538  0.1994
14026SOL    HW244971   7.831   6.510   8.895  0.7549 -1.9927  0.6436
14027SOL     OW44972   8.603   5.546   2.480 -0.0898  0.2717  0.0503
14027SOL    HW144973   8.625   5.638   2.466  1.2027  0.0752  0.6551
14027SOL    HW244974   8.520   5.549   2.527  0.8350  1.2178  1.7365
14028SOL     OW44975   0.394   8.674   7.099  0.2342  0.2718 -0.0305
14028SOL    HW144976   0.428   8.598   7.147 -0.9533 -0.2376  0.0276
14028SOL    HW244977   0.449   8.747   7.129  1.6438 -0.6073 -0.3717
14029SOL     OW44978   7.167   2.441   0.450  0.3536  0.8567  0.5685
14029SOL    HW144979   7.102   2.509   0.466 -0.6264  0.1029 -0.0666
14029SOL    HW244980   7.227   2.481   0.387 -1.4902  0.4590 -1.5985
14030SOL     OW44981   3.084   4.623   4.711  0.4876  0.4203 -0.3255
14030SOL    HW144982   2.993   4.594   4.707 -0.1524  1.9323  1.7790
14030SOL    HW244983   3.134   4.550   4.673 -1.4239 -1.3056  0.3016
14031SOL     OW44984   5.748   1.961   1.079 -0.6576 -0.0726  0.0304
14031SOL    HW144985   5.775   1.976   0.988 -0.8467 -2.9595 -0.6189
14031SOL    HW244986   5.662   2.001   1.086 -1.0347 -0.5675 -1.3872
14032SOL     OW44987   4.563   7.950   8.137 -0.0539  0.7633  0.6982
14032SOL    HW144988   4.501   7.998   8.083 -0.8202 -0.4422  0.4571
14032SOL    HW244989   4.649   7.983   8.110 -0.4314  0.4142 -1.0689
14033SOL     OW44990   3.678   5.317   2.595  0.6323 -0.3359 -0.3697
14033SOL    HW144991   3.635   5.300   2.678 -0.7447 -0.8382 -1.1592
14033SOL    HW244992   3.628   5.389   2.556  1.6570  0.3275 -0.4979
14034SOL     OW44993   3.235   5.439   5.597  0.3638 -0.1625  0.4411
14034SOL    HW144994   3.218   5.392   5.515 -1.5533  0.5197  0.3822
14034SOL    HW244995   3.236   5.531   5.572  1.1974 -0.0173  0.9835
14035SOL     OW44996   5.057   7.736   3.251  0.2788 -0.3027  0.0203
14035SOL    HW144997   5.031   7.681   3.326 -0.1555 -1.2047 -0.7646
14035SOL    HW244998   5.038   7.681   3.175  0.9816  0.5007 -0.7369
14036SOL     OW44999   5.181   7.101   3.952 -0.5027  0.3837 -0.1928
14036SOL    HW145000   5.146   7.059   4.030 -1.7685  0.2471 -0.7978
14036SOL    HW245001   5.249   7.041   3.921 -1.8036 -0.9194 -0.6523
14037SOL     OW45002   2.037   6.154   1.718 -0.4701  0.7454 -0.0909
14037SOL    HW145003   2.074   6.162   1.630  1.6120 -1.7625  0.4439
14037SOL    HW245004   1.974   6.083   1.712  0.3761 -0.0946  0.5871
14038SOL     OW45005   7.310   0.885   8.430 -1.1550 -0.1146 -0.4385
14038SOL    HW145006   7.383   0.823   8.435 -0.6575  0.3191 -1.9294
14038SOL    HW245007   7.256   0.853   8.358 -0.9994  1.0409 -1.0989
14039SOL     OW45008   6.850   3.550   1.799 -0.3991  0.1740 -0.3235
14039SOL    HW145009   6.871   3.459   1.819 -0.0439  0.2634 -0.2770
14039SOL    HW245010   6.771   3.545   1.745 -0.1932 -0.1799 -0.6004
14040SOL     OW45011   3.999   4.899   2.384  0.3895 -0.5358 -0.7492
14040SOL    HW145012   4.039   4.986   2.374  2.2555 -1.2052  0.2948
14040SOL    HW245013   3.992   4.887   2.479 -1.1424 -1.0031 -0.8907
14041SOL     OW45014   5.355   4.501   5.741 -0.2271 -0.0897  0.0310
14041SOL    HW145015   5.286   4.525   5.679 -0.7164  2.2845  1.3581
14041SOL    HW245016   5.338   4.556   5.817  2.6992  0.0372  0.7050
14042SOL     OW45017   3.130   5.575   6.460 -0.3067 -0.3829 -0.5799
14042SOL    HW145018   3.155   5.560   6.551 -0.2818  0.8458 -0.3717
14042SOL    HW245019   3.160   5.497   6.413  2.2574  0.1943 -0.0336
14043SOL     OW45020   5.377   8.031   2.788  0.0773  0.6409  0.0686
14043SOL    HW145021   5.388   7.937   2.800 -0.6274  0.8102  2.6468
14043SOL    HW245022   5.286   8.041   2.760 -0.0722  0.6133  0.5510
14044SOL     OW45023   7.394   2.037   1.471 -0.0549 -0.1238  0.0223
14044SOL    HW145024   7.424   1.952   1.504 -1.0132  0.2912  2.1040
14044SOL    HW245025   7.329   2.015   1.404  0.8774 -1.0070 -0.6247
14045SOL     OW45026   9.405   3.808   9.271  0.4858  0.7794 -0.2494
14045SOL    HW145027   9.344   3.842   9.205 -0.7081 -0.0385  0.4092
14045SOL    HW245028   9.427   3.720   9.240 -0.4219  0.2187  0.6321
14046SOL     OW45029   4.490   4.499   2.816 -0.3413 -0.2647 -0.2703
14046SOL    HW145030   4.485   4.404   2.801 -1.0830 -0.5051  1.2821
14046SOL    HW245031   4.570   4.526   2.771 -0.4496 -1.5166 -1.2629
14047SOL     OW45032   7.651   8.425   5.936 -0.5265 -0.2665  0.3716
14047SOL    HW145033   7.564   8.387   5.937 -0.8354  0.4230  0.1964
14047SOL    HW245034   7.691   8.391   5.855 -1.2783  0.8247 -0.4847
14048SOL     OW45035   2.350   1.858   5.562 -0.2094 -0.0113 -0.2928
14048SOL    HW145036   2.294   1.839   5.486 -2.5060  0.6619  1.1375
14048SOL    HW245037   2.357   1.775   5.608 -1.1315  0.1776  0.2013
14049SOL     OW45038   6.253   3.842   1.235  0.2156 -0.7195  0.4669
14049SOL    HW145039   6.341   3.806   1.251  1.4528  2.3443  1.3785
14049SOL    HW245040   6.220   3.861   1.323 -0.2460  0.5229  0.0369
14050SOL     OW45041   7.414   5.059   9.384 -0.6789 -0.0656  0.0809
14050SOL    HW145042   7.485   5.118   9.361 -0.4444 -0.4875 -0.2779
14050SOL    HW245043   7.336   5.101   9.348 -0.3780 -0.4843 -1.1147
14051SOL     OW45044   5.932   0.071   6.609 -0.2221 -0.2061 -0.6330
14051SOL    HW145045   5.996   0.078   6.680 -0.7139  0.0238 -0.2092
14051SOL    HW245046   5.970   0.008   6.549  0.1783 -0.4397 -0.1389
14052SOL     OW45047   5.644   8.686   0.610 -0.1056  0.1417 -0.5012
14052SOL    HW145048   5.631   8.623   0.681  1.6388 -0.2828 -0.5162
14052SOL    HW245049   5.714   8.649   0.557  0.1001  1.4981 -1.2315
14053SOL     OW45050   6.813   7.715   6.867 -0.0302 -0.3280 -0.4922
14053SOL    HW145051   6.896   7.677   6.840 -0.2056 -1.1538  0.1088
14053SOL    HW245052   6.780   7.759   6.788  0.7563 -0.3739 -0.8522
14054SOL     OW45053   6.300   5.186   8.831 -0.2113  0.2763  0.2921
14054SOL    HW145054   6.347   5.202   8.749 -1.5731 -1.1574 -0.8257
14054SOL    HW245055   6.357   5.127   8.880  0.2620  0.5120  0.0343
14055SOL     OW45056   3.098   8.615   7.339  0.1584 -0.0756  0.2167
14055SOL    HW145057   3.012   8.652   7.359  0.2182  0.8592 -1.1279
14055SOL    HW245058   3.089   8.579   7.250  1.4769  1.1509 -0.4612
14056SOL     OW45059   6.213   0.934   4.503  0.0412  0.1341 -0.0086
14056SOL    HW145060   6.198   0.958   4.595  0.2117 -0.5837  0.2167
14056SOL    HW245061   6.255   0.848   4.508 -1.1289 -0.5011 -0.7942
14057SOL     OW45062   2.088   2.003   3.732  0.4298  0.2349 -0.1960
14057SOL    HW145063   2.026   2.017   3.803  0.1332 -0.9125 -0.2047
14057SOL    HW245064   2.054   1.927   3.685  0.8211  0.7502 -1.3488
14058SOL     OW45065   5.420   2.182   7.769 -0.2309  0.4536  0.5648
14058SOL    HW145066   5.401   2.156   7.679 -0.7047 -1.0680  1.0811
14058SOL    HW245067   5.338   2.218   7.802 -1.0332 -1.9222  1.3520
14059SOL     OW45068   0.230   4.604   4.848  0.5441 -0.5007 -0.1769
14059SOL    HW145069   0.233   4.522   4.798  0.6566  0.1502 -1.2742
14059SOL    HW245070   0.284   4.665   4.797 -1.5089  0.9680 -0.6939
14060SOL     OW45071   6.380   6.230   3.717  0.1164  0.2106  0.1552
14060SOL    HW145072   6.395   6.161   3.781 -0.2902 -0.6403 -0.6376
14060SOL    HW245073   6.444   6.298   3.739  1.0690 -0.7599  0.4816
14061SOL     OW45074   3.144   9.410   7.745  0.1823  0.1653 -0.0368
14061SOL    HW145075   3.152   9.502   7.721 -0.2901 -0.3159 -2.2683
14061SOL    HW245076   3.172   9.407   7.836  2.7668  2.1154 -0.6321
14062SOL     OW45077   4.023   8.279   7.764 -0.2808 -0.2631  0.0102
14062SOL    HW145078   3.976   8.305   7.843  1.0716  0.1701  0.7031
14062SOL    HW245079   3.957   8.279   7.695 -1.3209  0.1190  0.9852
14063SOL     OW45080   7.192   7.224   5.411 -0.2182 -0.1845 -0.2343
14063SOL    HW145081   7.110   7.230   5.361 -0.9772 -1.3624  0.8190
14063SOL    HW245082   7.203   7.311   5.450 -0.4546  0.2646 -1.1286
14064SOL     OW45083   1.660   7.939   9.132 -0.1882 -0.0416 -0.7019
14064SOL    HW145084   1.668   7.956   9.038  0.5763  0.4475 -0.5523
14064SOL    HW245085   1.601   8.007   9.164 -0.9346 -0.5720 -0.9239
14065SOL     OW45086   4.743   8.814   5.623  0.5322 -0.1003  0.5696
14065SOL    HW145087   4.650   8.836   5.616  0.6950  0.3312 -0.3636
14065SOL    HW245088   4.774   8.815   5.533  1.1146 -1.7165  0.7248
14066SOL     OW45089   7.605   7.288   5.526 -0.4050  0.1818 -0.1853
14066SOL    HW145090   7.567   7.376   5.530 -1.1064 -0.1526  1.3730
14066SOL    HW245091   7.536   7.231   5.561 -0.5988 -1.2464 -2.6773
14067SOL     OW45092   7.855   2.171   3.656 -0.2294 -0.1730 -0.0649
14067SOL    HW145093   7.942   2.208   3.674 -0.3592  0.2065 -0.2074
14067SOL    HW245094   7.861   2.136   3.568 -0.3992  0.4106 -0.3165
14068SOL     OW45095   2.879   4.012   2.090  0.8512  0.4515 -0.5687
14068SOL    HW145096   2.941   3.971   2.151 -0.6827 -1.5501 -0.2472
14068SOL    HW245097   2.803   4.033   2.144  0.0650  0.0702 -1.5125
14069SOL     OW45098   1.762   3.522   6.752  0.0807 -0.4575  0.2137
14069SOL    HW145099   1.788   3.600   6.801  0.4698 -0.2851 -0.2621
14069SOL    HW245100   1.821   3.519   6.677  0.6454 -1.6813  0.6648
14070SOL     OW45101   3.832   2.037   9.517  0.1715  0.6541 -0.2538
14070SOL    HW145102   3.768   2.098   9.553 -0.7106 -1.2940  1.7152
14070SOL    HW245103   3.814   2.035   9.423 -2.1303  0.8150  0.1208
14071SOL     OW45104   7.599   3.109   9.041  0.7048  0.3230 -0.3966
14071SOL    HW145105   7.590   3.062   8.958  0.1472  0.3719 -0.3680
14071SOL    HW245106   7.636   3.194   9.017 -0.0325  0.5787 -0.6839
14072SOL     OW45107   3.247   6.526   6.436  0.1691  0.1052 -0.4414
14072SOL    HW145108   3.157   6.530   6.402  0.6915  0.8794 -1.7993
14072SOL    HW245109   3.257   6.435   6.465 -1.2095  0.1313  0.2156
14073SOL     OW45110   7.483   9.495   7.488 -0.5737  0.1677 -0.0540
14073SOL    HW145111   7.521   9.424   7.436 -0.2899  0.1280  0.2009
14073SOL    HW245112   7.518   9.481   7.576 -1.7153 -0.2655  0.3532
14074SOL     OW45113   2.889   8.469   1.953  0.1055  0.6552 -0.2525
14074SOL    HW145114   2.963   8.473   2.013 -0.2954 -0.8084  0.3663
14074SOL    HW245115   2.897   8.549   1.900  1.2618  1.2592  0.7927
14075SOL     OW45116   4.539   3.937   2.517 -0.2758 -0.0456 -0.3359
14075SOL    HW145117   4.498   3.945   2.431  1.8419  0.5051 -1.3496
14075SOL    HW245118   4.624   3.897   2.500 -0.0923 -0.6064  1.6152
14076SOL     OW45119   4.560   4.986   7.221 -0.1186  0.6934  0.2527
14076SOL    HW145120   4.609   5.034   7.155  1.1578 -0.9037 -0.0181
14076SOL    HW245121   4.581   4.894   7.205 -4.2126 -0.2818 -0.6976
14077SOL     OW45122   2.749   7.290   1.504  0.2125 -0.1252 -0.0178
14077SOL    HW145123   2.714   7.378   1.493 -0.1104 -0.3553 -0.9500
14077SOL    HW245124   2.789   7.269   1.420  2.1668 -0.0744  0.8500
14078SOL     OW45125   6.504   9.295   6.007 -0.2051 -0.1319  0.2024
14078SOL    HW145126   6.445   9.257   6.072  0.8009 -1.4637  0.3920
14078SOL    HW245127   6.592   9.280   6.043  0.3596 -0.4975 -1.2418
14079SOL     OW45128   1.896   5.196   0.226  0.4121 -0.3603 -0.3403
14079SOL    HW145129   1.900   5.277   0.176 -2.0762 -1.2016 -2.1162
14079SOL    HW245130   1.961   5.139   0.185 -0.4957 -0.4980 -1.6606
14080SOL     OW45131   0.820   2.937   2.261  0.3070 -0.0171  0.6500
14080SOL    HW145132   0.880   2.869   2.294 -0.9254 -2.4920 -1.8242
14080SOL    HW245133   0.734   2.909   2.290 -0.1975  0.6821 -0.1430
14081SOL     OW45134   8.607   8.107   5.388  0.5232  0.6063 -0.8407
14081SOL    HW145135   8.703   8.105   5.381  0.6177  0.6797  0.2314
14081SOL    HW245136   8.583   8.015   5.403  0.3676  0.5070 -1.6494
14082SOL     OW45137   8.193   3.601   2.778  0.2203  0.3204 -0.2360
14082SOL    HW145138   8.258   3.571   2.842  1.6570 -0.3253 -1.9215
14082SOL    HW245139   8.162   3.685   2.812 -1.2744 -1.3045  2.7998
14083SOL     OW45140   9.369   2.679   4.586 -0.0538  0.5845 -0.3213
14083SOL    HW145141   9.380   2.723   4.501 -3.0834  1.8846 -0.1769
14083SOL    HW245142   9.339   2.749   4.645 -1.9954 -1.0313  0.7335
14084SOL     OW45143   3.776   4.979   7.301  0.5081 -0.1662 -0.2098
14084SOL    HW145144   3.767   5.002   7.393  0.2616 -0.6552 -0.1102
14084SOL    HW245145   3.732   4.895   7.292  0.5241 -0.1227 -0.7767
14085SOL     OW45146   7.224   1.414   1.624 -0.2554 -0.1219  0.6053
14085SOL    HW145147   7.227   1.454   1.711 -0.0501  0.3051  0.4070
14085SOL    HW245148   7.218   1.320   1.640  0.5919 -0.1041  1.0743
14086SOL     OW45149   9.170   5.500   7.353 -0.6178 -0.0927  0.3496
14086SOL    HW145150   9.165   5.440   7.427 -2.3597  1.9954  2.0981
14086SOL    HW245151   9.239   5.562   7.378  1.4349 -1.4483 -1.6023
14087SOL     OW45152   1.188   3.819   8.125 -0.5768 -0.4254  0.1318
14087SOL    HW145153   1.223   3.730   8.116  1.4309  0.1897  1.1001
14087SOL    HW245154   1.194   3.856   8.037 -3.4040 -1.8448 -0.7513
14088SOL     OW45155   5.749   3.983   4.790 -0.1347  0.1293  0.2690
14088SOL    HW145156   5.717   3.926   4.720  1.7489 -0.2316 -0.3367
14088SOL    HW245157   5.805   4.047   4.746  2.1060 -0.8534  1.5260
14089SOL     OW45158   1.841   4.487   3.903 -0.1604  0.2093 -0.4283
14089SOL    HW145159   1.872   4.545   3.973  0.6871  0.0927 -0.7002
14089SOL    HW245160   1.914   4.482   3.842 -0.2552 -1.0628 -0.4636
14090SOL     OW45161   3.468   1.748   2.633  0.5129 -0.0804 -0.2934
14090SOL    HW145162   3.423   1.785   2.708  1.0017 -0.4704  0.1944
14090SOL    HW245163   3.434   1.797   2.558  0.4469  0.7030  0.2389
14091SOL     OW45164   3.726   3.377   6.259  0.3769  0.8329 -0.7664
14091SOL    HW145165   3.724   3.292   6.302  1.5529  1.0098 -0.3166
14091SOL    HW245166   3.643   3.382   6.211 -0.9929  0.6581  1.4799
14092SOL     OW45167   3.244   4.141   2.341 -0.4057 -0.1142 -0.0335
14092SOL    HW145168   3.248   4.172   2.432 -0.9784 -0.3932  0.0922
14092SOL    HW245169   3.330   4.163   2.305 -0.0548 -0.2688  0.6662
14093SOL     OW45170   9.257   8.619   2.395  0.1189  0.6866  0.6834
14093SOL    HW145171   9.167   8.601   2.422  0.3096  0.0994  0.9303
14093SOL    HW245172   9.260   8.715   2.386 -0.7085  0.6582  0.0113
14094SOL     OW45173   4.718   3.733   6.895  0.0746  0.5175 -0.3402
14094SOL    HW145174   4.715   3.826   6.918 -1.3146  0.5976 -0.7732
14094SOL    HW245175   4.773   3.730   6.817 -0.6565  1.1184 -0.8944
14095SOL     OW45176   0.598   1.259   2.027  0.3832  0.2202  0.2620
14095SOL    HW145177   0.555   1.343   2.008  0.0376  0.6253  2.5645
14095SOL    HW245178   0.535   1.193   1.999 -0.7860  0.7949  1.4001
14096SOL     OW45179   1.773   0.966   5.408  0.1490  0.6505 -0.4819
14096SOL    HW145180   1.740   0.876   5.417  1.5110  0.2259  0.7899
14096SOL    HW245181   1.867   0.955   5.394  0.3332  1.8805 -0.2757
14097SOL     OW45182   1.321   1.450   5.580  0.2352 -0.1084 -0.0332
14097SOL    HW145183   1.379   1.491   5.516  1.0117 -1.6041 -0.3326
14097SOL    HW245184   1.249   1.415   5.528 -0.3317  0.6777  0.1999
14098SOL     OW45185   1.730   7.357   1.572 -0.3282  0.5628  0.0367
14098SOL    HW145186   1.728   7.298   1.497 -2.0210 -1.1929  1.3351
14098SOL    HW245187   1.758   7.441   1.537 -0.3920 -0.3572 -2.3940
14099SOL     OW45188   4.390   4.821   0.118 -0.1086 -0.3417  0.2381
14099SOL    HW145189   4.468   4.827   0.173 -0.0641 -3.0185  0.5600
14099SOL    HW245190   4.359   4.912   0.112  1.8447  0.5090  1.7832
14100SOL     OW45191   7.399   7.122   5.569  0.0355  0.5262 -0.7469
14100SOL    HW145192   7.454   7.070   5.510 -0.8963  0.5554 -1.6707
14100SOL    HW245193   7.317   7.132   5.522 -1.3636 -0.8665  1.2533
14101SOL     OW45194   3.806   3.740   3.693 -0.3535 -0.2565 -0.1330
14101SOL    HW145195   3.740   3.701   3.636 -0.7012  1.4441 -0.9525
14101SOL    HW245196   3.762   3.751   3.777 -0.0630 -2.1045  0.3026
14102SOL     OW45197   6.273   5.181   9.197  0.8927  0.0480  0.2908
14102SOL    HW145198   6.280   5.091   9.165  0.6852 -0.4342  1.5378
14102SOL    HW245199   6.347   5.190   9.258  1.5348  1.0735 -0.6034
14103SOL     OW45200   6.840   2.410   8.215 -0.3136 -0.0909  0.4984
14103SOL    HW145201   6.825   2.384   8.124 -0.2194  1.2444  0.0667
14103SOL    HW245202   6.820   2.504   8.216  0.7938  0.1621  1.5914
14104SOL     OW45203   0.114   6.141   3.122 -0.1022  0.3542  0.4264
14104SOL    HW145204   0.028   6.147   3.164 -0.9140  0.5795 -1.1737
14104SOL    HW245205   0.139   6.049   3.131  0.6474  0.7257  2.9866
14105SOL     OW45206   5.223   9.423   8.030 -0.4808 -0.6772 -0.3901
14105SOL    HW145207   5.134   9.451   8.050  0.6806  1.7906  1.7497
14105SOL    HW245208   5.270   9.503   8.006  1.3606 -1.8111 -0.8648
14106SOL     OW45209   9.438   7.121   5.134  0.0011 -0.0201 -0.3874
14106SOL    HW145210   9.373   7.095   5.070 -0.1098 -1.1387  0.1459
14106SOL    HW245211   9.511   7.060   5.120 -0.2220 -0.5982  0.8451
14107SOL     OW45212   1.571   8.513   7.007 -0.4153 -0.7571  0.3633
14107SOL    HW145213   1.561   8.434   7.059  1.9190 -2.2432 -1.2549
14107SOL    HW245214   1.631   8.568   7.058 -0.7632 -0.7350  0.7500
14108SOL     OW45215   6.624   3.879   4.418 -0.0961 -0.4390 -0.2460
14108SOL    HW145216   6.637   3.921   4.333  1.0569 -1.2676 -0.5068
14108SOL    HW245217   6.614   3.786   4.398 -0.9665 -0.5049  0.4450
14109SOL     OW45218   3.716   1.216   6.906  0.1183 -0.2030 -0.0373
14109SOL    HW145219   3.632   1.230   6.949 -0.9048  1.9952 -2.4369
14109SOL    HW245220   3.717   1.123   6.885 -1.6381 -0.3137  0.2400
14110SOL     OW45221   7.500   4.087   8.623  1.1576 -0.6230  0.2507
14110SOL    HW145222   7.431   4.037   8.666  0.9740 -0.4232  0.1921
14110SOL    HW245223   7.493   4.063   8.531  1.1303 -0.5613  0.2366
14111SOL     OW45224   3.552   4.387   3.862  0.2277 -0.0842  0.2013
14111SOL    HW145225   3.562   4.326   3.935 -1.3765 -1.3947 -0.5985
14111SOL    HW245226   3.532   4.471   3.904 -1.2740 -0.9347  1.3172
14112SOL     OW45227   7.249   6.399   0.301 -1.0934 -0.0166  0.8942
14112SOL    HW145228   7.324   6.427   0.250 -0.3335 -0.2555  1.8562
14112SOL    HW245229   7.261   6.441   0.387 -2.1962  0.1616  0.9870
14113SOL     OW45230   4.951   3.365   1.906 -0.6200  0.1684  0.9267
14113SOL    HW145231   5.012   3.410   1.847 -0.6566  1.7922  2.0503
14113SOL    HW245232   4.865   3.380   1.866 -0.4975 -0.1760  0.5262
14114SOL     OW45233   5.220   7.604   4.845 -0.2021  0.0736  0.3572
14114SOL    HW145234   5.264   7.688   4.833  0.8998 -0.4002  0.9624
14114SOL    HW245235   5.251   7.550   4.773 -0.3110 -0.0592  0.4098
14115SOL     OW45236   0.083   6.883   2.814  0.3575  0.3741 -0.0094
14115SOL    HW145237   0.051   6.800   2.850  1.5153  0.4825  1.3267
14115SOL    HW245238   0.008   6.943   2.821 -0.1680 -0.2724 -0.0506
14116SOL     OW45239   9.395   0.681   6.831 -0.2553  0.2305  0.3656
14116SOL    HW145240   9.459   0.702   6.764 -1.3009 -3.2647 -2.0331
14116SOL    HW245241   9.427   0.599   6.870 -1.9327 -0.1928  0.9521
14117SOL     OW45242   6.783   0.504   0.112 -0.7195 -0.1734 -0.4218
14117SOL    HW145243   6.817   0.529   0.026 -0.2477  0.7751  0.0105
14117SOL    HW245244   6.832   0.426   0.136  0.1508  0.3504 -0.4394
14118SOL     OW45245   1.053   2.602   3.448 -0.6111 -0.3182 -0.0638
14118SOL    HW145246   1.064   2.662   3.523  3.1307 -0.1008 -0.6017
14118SOL    HW245247   0.986   2.643   3.395 -0.6571  1.5597  1.3244
14119SOL     OW45248   8.945   8.956   6.678  0.0799 -0.0761 -0.4640
14119SOL    HW145249   9.039   8.949   6.659  0.6571 -0.0586  2.0360
14119SOL    HW245250   8.904   8.960   6.592  2.2055 -2.0343 -1.6958
14120SOL     OW45251   0.586   0.189   2.287 -0.4514 -0.7301 -0.1932
14120SOL    HW145252   0.676   0.194   2.319 -0.4047 -1.9477 -0.0498
14120SOL    HW245253   0.591   0.214   2.195 -0.1266  0.0966  0.0387
14121SOL     OW45254   2.383   4.632   7.301 -0.4825  0.5226 -0.2888
14121SOL    HW145255   2.441   4.612   7.228 -1.0549 -2.2412 -0.1072
14121SOL    HW245256   2.332   4.708   7.271 -0.6474 -0.4509 -2.7577
14122SOL     OW45257   0.733   1.803   3.305  0.2273  0.0497 -0.3809
14122SOL    HW145258   0.695   1.743   3.369 -4.0481  1.8816 -0.9033
14122SOL    HW245259   0.727   1.755   3.222  1.0406 -0.3972 -0.2006
14123SOL     OW45260   3.078   5.962   7.803 -0.0258  0.2451  0.7042
14123SOL    HW145261   3.047   6.052   7.806  0.4072  0.3954  3.3108
14123SOL    HW245262   3.012   5.912   7.852  0.8151 -0.4418  1.1836
14124SOL     OW45263   6.683   5.129   0.398 -0.1708  0.0988  0.5428
14124SOL    HW145264   6.678   5.039   0.366 -0.7428  0.1784  0.3891
14124SOL    HW245265   6.774   5.154   0.385 -0.0635 -0.3759  0.3556
14125SOL     OW45266   7.040   0.070   2.370  0.4553  0.3310  0.5299
14125SOL    HW145267   7.130   0.049   2.392  0.6569 -0.2000 -0.7630
14125SOL    HW245268   7.032   0.164   2.390  2.0715  1.0493 -1.7374
14126SOL     OW45269   4.633   0.646   5.053 -0.0402  0.5430 -0.0126
14126SOL    HW145270   4.568   0.589   5.093  0.0936  0.3245 -0.1013
14126SOL    HW245271   4.717   0.603   5.070  0.0239  0.4752 -0.4738
14127SOL     OW45272   4.067   8.842   1.736 -0.4450 -0.1346  0.0471
14127SOL    HW145273   4.010   8.768   1.716  0.1404 -0.6173  0.1193
14127SOL    HW245274   4.020   8.919   1.704 -1.3321 -0.4731  0.5205
14128SOL     OW45275   3.428   9.267   7.414  0.1682  0.0745 -0.1883
14128SOL    HW145276   3.353   9.279   7.357  0.3123  3.9073  0.1537
14128SOL    HW245277   3.502   9.253   7.355  0.1590  3.0207 -1.0506
14129SOL     OW45278   5.636   5.807   2.070 -0.2530  0.1781  0.3557
14129SOL    HW145279   5.596   5.889   2.042 -1.6175 -0.9008 -1.0059
14129SOL    HW245280   5.563   5.753   2.101  0.3723 -1.1052 -0.3061
14130SOL     OW45281   6.643   6.745   3.764  0.0634  0.5944 -0.0839
14130SOL    HW145282   6.607   6.816   3.710  1.6013  1.0790 -0.5256
14130SOL    HW245283   6.601   6.666   3.732 -0.1006  1.0561 -1.0267
14131SOL     OW45284   3.572   8.159   5.433  0.1918 -0.0693 -0.1211
14131SOL    HW145285   3.628   8.216   5.379  0.0011 -1.1272 -1.4908
14131SOL    HW245286   3.581   8.195   5.521  1.7231  0.8101 -0.5768
14132SOL     OW45287   2.527   5.026   0.784 -0.4116 -0.3323 -0.4281
14132SOL    HW145288   2.465   5.075   0.730  0.2699  1.0828 -0.0098
14132SOL    HW245289   2.573   5.094   0.834  1.3645 -1.3152 -0.6231
14133SOL     OW45290   6.958   6.256   3.333  0.1360  1.0624 -0.6246
14133SOL    HW145291   6.877   6.206   3.346  1.7182 -1.3998  0.7192
14133SOL    HW245292   6.969   6.259   3.237  0.0066 -1.4103 -0.7876
14134SOL     OW45293   8.147   7.369   8.103 -0.1045 -0.3589 -0.2322
14134SOL    HW145294   8.195   7.400   8.179 -0.8898 -0.4757  0.3217
14134SOL    HW245295   8.151   7.441   8.040  0.1390 -0.0764  0.1064
14135SOL     OW45296   7.956   3.646   9.428  0.0210 -0.3307  0.5515
14135SOL    HW145297   8.022   3.694   9.378  0.2521 -0.0435  1.1168
14135SOL    HW245298   7.996   3.633   9.514  0.0487 -1.7412  0.3402
14136SOL     OW45299   7.051   8.615   8.083  0.1337 -0.3078  0.6445
14136SOL    HW145300   7.025   8.675   8.153 -1.2780 -0.8033  0.5663
14136SOL    HW245301   6.992   8.540   8.092  2.4725 -2.1735  1.3466
14137SOL     OW45302   3.835   0.620   7.288 -0.0074 -0.0546 -0.1099
14137SOL    HW145303   3.824   0.650   7.378  0.5669  3.3984 -1.0410
14137SOL    HW245304   3.762   0.660   7.241  0.0863 -1.2478 -1.3193
14138SOL     OW45305   0.520   1.970   8.215 -0.4048 -0.0916  0.1934
14138SOL    HW145306   0.483   1.890   8.177 -1.4733  0.5829 -0.2261
14138SOL    HW245307   0.608   1.944   8.243  0.8491 -0.4374 -3.5369
14139SOL     OW45308   8.308   1.784   0.384 -0.4971  0.1502 -0.1226
14139SOL    HW145309   8.301   1.730   0.463 -0.8175  1.2375  0.6022
14139SOL    HW245310   8.364   1.732   0.325 -0.5031 -0.8061  0.6891
14140SOL     OW45311   2.296   5.916   7.381 -0.2300 -0.9189 -0.5032
14140SOL    HW145312   2.280   5.836   7.330 -3.3410 -0.2303 -0.8047
14140SOL    HW245313   2.211   5.939   7.416  1.0058  1.1131  1.4070
14141SOL     OW45314   2.547   1.482   6.321  0.3515  0.1665  0.3089
14141SOL    HW145315   2.608   1.469   6.394  0.1745 -0.7604  0.3026
14141SOL    HW245316   2.581   1.559   6.274 -0.2128  1.5470  2.0501
14142SOL     OW45317   3.624   0.207   8.120  0.4840  0.0735  0.2442
14142SOL    HW145318   3.616   0.112   8.128  0.2589  0.1048  0.4023
14142SOL    HW245319   3.537   0.236   8.093  0.2775  0.3337  1.1697
14143SOL     OW45320   5.272   3.083   2.324 -0.6426 -0.1439  0.0085
14143SOL    HW145321   5.340   3.139   2.285 -1.0746  0.6698  0.3871
14143SOL    HW245322   5.260   3.012   2.261  1.1714 -0.7951  0.3486
14144SOL     OW45323   6.622   9.179   5.178 -0.2419 -0.0381 -0.4428
14144SOL    HW145324   6.637   9.143   5.090  2.6791  1.4829 -0.6743
14144SOL    HW245325   6.642   9.107   5.237 -0.2034 -0.4733 -0.9744
14145SOL     OW45326   0.008   5.390   1.902  1.1720 -0.5056 -0.3642
14145SOL    HW145327   0.072   5.322   1.880 -0.2527 -2.1788  0.4844
14145SOL    HW245328   0.007   5.393   1.997 -1.7574 -2.3403 -0.2299
14146SOL     OW45329   9.051   7.011   7.241  0.6232 -0.3292  0.3211
14146SOL    HW145330   9.106   6.969   7.175 -1.1547  0.7909 -2.0568
14146SOL    HW245331   8.983   6.947   7.260  0.5710 -0.2821  0.2952
14147SOL     OW45332   1.462   7.637   1.418  0.1198 -0.3607  0.2129
14147SOL    HW145333   1.445   7.544   1.434  1.0419 -0.5387  0.1755
14147SOL    HW245334   1.422   7.654   1.333 -0.5443 -0.5757  0.4699
14148SOL     OW45335   0.675   1.481   8.608  0.1961  0.3830 -0.3332
14148SOL    HW145336   0.676   1.556   8.547 -0.5813 -1.3953 -2.6758
14148SOL    HW245337   0.586   1.480   8.643  0.1759  0.4858 -0.3817
14149SOL     OW45338   0.530   8.218   6.589 -0.0222 -0.1456  0.1285
14149SOL    HW145339   0.468   8.197   6.659  1.1874 -1.1111  0.9527
14149SOL    HW245340   0.612   8.178   6.617  0.6213 -0.1279 -1.6239
14150SOL     OW45341   3.033   4.598   7.072  0.6533 -0.2218  0.2231
14150SOL    HW145342   2.958   4.604   7.012 -1.0456  0.5807  2.2920
14150SOL    HW245343   3.108   4.581   7.015 -1.1724 -1.7913 -1.8997
14151SOL     OW45344   8.840   1.021   4.508 -0.0948  0.3008 -0.5585
14151SOL    HW145345   8.920   1.015   4.455 -0.3257  0.0463 -0.8802
14151SOL    HW245346   8.830   0.935   4.547 -0.5684  0.1319 -1.0412
14152SOL     OW45347   6.449   2.697   2.848 -0.1404 -0.2138  0.2414
14152SOL    HW145348   6.480   2.743   2.770 -0.5283 -0.5130 -0.0930
14152SOL    HW245349   6.377   2.642   2.817  0.1671 -0.8783  0.6833
14153SOL     OW45350   0.706   5.343   7.646 -0.1716 -0.0549  0.3105
14153SOL    HW145351   0.722   5.273   7.709  1.0236  2.0071  2.4822
14153SOL    HW245352   0.630   5.314   7.596 -0.4045 -2.3689  1.8502
14154SOL     OW45353   1.009   6.683   1.674  0.0461  0.5168 -0.6876
14154SOL    HW145354   1.088   6.631   1.689  0.7869  1.5767 -0.7235
14154SOL    HW245355   1.016   6.755   1.737 -0.6801  0.8485 -0.9805
14155SOL     OW45356   8.203   3.622   3.359 -0.1267 -0.0589  0.2738
14155SOL    HW145357   8.276   3.655   3.307  0.8711 -2.0914  0.3191
14155SOL    HW245358   8.230   3.534   3.386 -1.9914 -0.3023  1.5041
14156SOL     OW45359   6.291   1.440   0.208  0.3584  0.0914 -0.2088
14156SOL    HW145360   6.293   1.349   0.176  4.0370 -0.4767  1.2064
14156SOL    HW245361   6.262   1.433   0.298 -1.0984  0.6084 -0.6103
14157SOL     OW45362   7.966   4.624   4.911  0.0357  0.4099 -0.3457
14157SOL    HW145363   7.939   4.639   4.820 -0.8888 -1.3786 -0.4207
14157SOL    HW245364   8.061   4.623   4.907  0.0345 -1.5173 -1.7217
14158SOL     OW45365   3.482   1.201   0.961  0.0929  0.3148 -0.0978
14158SOL    HW145366   3.514   1.248   0.884 -1.7824 -0.1494 -1.2199
14158SOL    HW245367   3.392   1.232   0.972 -0.0825 -0.5639  1.1434
14159SOL     OW45368   2.812   1.339   4.599 -0.4010  0.6363  0.4879
14159SOL    HW145369   2.785   1.428   4.621  0.4528  0.7265  1.2455
14159SOL    HW245370   2.787   1.287   4.676  0.5737  0.5341  0.7500
14160SOL     OW45371   2.397   8.912   4.239  0.4606 -0.7075  0.2768
14160SOL    HW145372   2.385   8.887   4.147 -1.7507 -0.2109  0.3805
14160SOL    HW245373   2.360   9.000   4.245  1.8765 -0.1491  1.3734
14161SOL     OW45374   4.826   3.730   6.624 -0.0767  0.4239  0.2544
14161SOL    HW145375   4.758   3.729   6.556  0.3684 -0.6703 -0.1959
14161SOL    HW245376   4.904   3.760   6.578  0.0033  0.6090  0.5126
14162SOL     OW45377   2.394   2.315   8.430 -0.0635 -0.3802 -0.1643
14162SOL    HW145378   2.313   2.366   8.428  0.3203  0.2734  0.6262
14162SOL    HW245379   2.373   2.240   8.485 -0.4715 -0.8292 -0.9102
14163SOL     OW45380   1.998   1.208   1.313 -0.0967 -0.3198 -0.3389
14163SOL    HW145381   2.027   1.296   1.335 -3.0535  0.1557  2.5719
14163SOL    HW245382   1.939   1.220   1.239  2.3408 -0.5042 -2.4293
14164SOL     OW45383   1.337   2.168   1.329  0.2835  0.4339  0.4353
14164SOL    HW145384   1.373   2.213   1.252 -0.8136 -1.1400 -1.0432
14164SOL    HW245385   1.413   2.157   1.387  1.5985 -0.1783 -1.3179
14165SOL     OW45386   6.373   6.719   7.510 -0.3278 -0.7025  0.6348
14165SOL    HW145387   6.361   6.689   7.601 -0.7946  1.0101  1.1689
14165SOL    HW245388   6.449   6.670   7.479 -0.0683 -1.2134  1.9957
14166SOL     OW45389   6.885   7.609   1.159  0.6189 -0.0609  0.1022
14166SOL    HW145390   6.926   7.537   1.111 -1.0421 -1.1847  0.2796
14166SOL    HW245391   6.812   7.636   1.104  0.0316  0.1368  0.9605
14167SOL     OW45392   9.407   8.128   6.346  0.8156  0.2751 -0.0789
14167SOL    HW145393   9.367   8.175   6.420  0.7498  1.2029 -0.6859
14167SOL    HW245394   9.453   8.196   6.296 -0.2830 -0.0699 -1.6459
14168SOL     OW45395   2.828   8.369   9.124  1.0115  0.1385  0.2350
14168SOL    HW145396   2.777   8.301   9.169 -0.2217 -0.0244 -1.3390
14168SOL    HW245397   2.907   8.325   9.094 -0.7516 -1.2947 -2.7164
14169SOL     OW45398   4.578   5.636   8.090 -0.2194 -0.4024 -0.0956
14169SOL    HW145399   4.670   5.659   8.078 -0.2825  0.1061  0.3398
14169SOL    HW245400   4.557   5.667   8.178 -1.2675  1.1059 -0.8222
14170SOL     OW45401   4.419   9.043   6.689 -0.1618 -0.6290  0.8297
14170SOL    HW145402   4.447   8.958   6.722 -0.6794 -0.8664  0.6589
14170SOL    HW245403   4.468   9.106   6.742  1.3307 -1.0390 -0.0151
14171SOL     OW45404   0.208   8.694   7.669  0.1640 -0.1064  0.6270
14171SOL    HW145405   0.267   8.666   7.739  0.8234 -0.3691 -0.0293
14171SOL    HW245406   0.265   8.729   7.601 -0.2670 -1.7525 -0.6743
14172SOL     OW45407   5.481   5.422   1.926 -0.7649 -0.4362  0.9344
14172SOL    HW145408   5.457   5.439   1.835 -1.8942 -0.9925  1.1096
14172SOL    HW245409   5.431   5.344   1.949  0.8315 -1.3495  1.5090
14173SOL     OW45410   0.052   5.905   0.171  0.6652  0.0510 -0.1445
14173SOL    HW145411  -0.029   5.884   0.124 -0.0717  1.3352  0.4812
14173SOL    HW245412   0.041   5.864   0.257  0.2545  0.9183  0.2453
14174SOL     OW45413   9.534   8.265   1.474 -0.2585 -0.5341  0.1822
14174SOL    HW145414   9.453   8.249   1.523 -0.8462  0.6291 -0.3702
14174SOL    HW245415   9.557   8.181   1.436 -1.3091 -0.8403  0.2097
14175SOL     OW45416   5.502   4.089   2.597 -0.2035  1.1303 -0.3657
14175SOL    HW145417   5.475   4.007   2.555 -0.8858  1.4853 -0.6352
14175SOL    HW245418   5.422   4.121   2.639  0.0396  1.7156 -0.3510
14176SOL     OW45419   0.284   9.430   4.265  0.3374 -0.8144 -0.0091
14176SOL    HW145420   0.228   9.358   4.295 -1.3800 -0.1510 -1.4344
14176SOL    HW245421   0.237   9.509   4.290  0.5686 -0.2287 -1.3454
14177SOL     OW45422   1.024   4.847   2.289 -0.0465 -0.0331 -0.0722
14177SOL    HW145423   0.985   4.778   2.342  0.6648  0.2549  0.8439
14177SOL    HW245424   1.073   4.901   2.351 -0.3545  1.1409 -0.8069
14178SOL     OW45425   9.198   8.040   5.669 -0.0611  0.1069 -0.3887
14178SOL    HW145426   9.224   7.952   5.697 -1.6495  0.0817  1.1751
14178SOL    HW245427   9.235   8.098   5.736 -0.8212  0.4148 -0.2249
14179SOL     OW45428   5.094   2.357   3.810  0.2257  0.6358 -0.3081
14179SOL    HW145429   5.078   2.370   3.903  0.8685 -2.1738  0.2859
14179SOL    HW245430   5.190   2.364   3.801  0.2495 -0.0098 -0.5878
14180SOL     OW45431   9.580   8.001   1.404  0.8060 -0.0222  0.4303
14180SOL    HW145432   9.616   7.942   1.470  1.7854  0.1691  0.0760
14180SOL    HW245433   9.521   7.946   1.353  2.9054 -1.1519 -0.9113
14181SOL     OW45434   0.099   3.508   3.120  0.2959  0.1728 -0.1145
14181SOL    HW145435   0.015   3.516   3.164  0.3732  2.4479 -0.2665
14181SOL    HW245436   0.084   3.446   3.050 -0.6858 -1.0307  1.1061
14182SOL     OW45437   7.065   0.432   3.989  0.4019 -0.2683  0.5988
14182SOL    HW145438   7.034   0.341   3.997  1.7727 -0.7970  0.1316
14182SOL    HW245439   6.985   0.484   3.994 -0.6438 -1.5936 -1.0772
14183SOL     OW45440   4.034   7.045   3.532 -0.0232 -0.1720  0.0750
14183SOL    HW145441   3.966   7.102   3.497  0.7719  0.9008  0.2277
14183SOL    HW245442   4.090   7.103   3.583  1.4201 -0.8868 -0.6265
14184SOL     OW45443   6.957   8.104   8.403 -0.0620  0.2332  0.1618
14184SOL    HW145444   6.935   8.137   8.316  4.0603  1.0068 -0.7776
14184SOL    HW245445   6.970   8.010   8.391  0.6692  0.3660 -0.1516
14185SOL     OW45446   1.036   4.319   1.667 -0.5927  0.3222 -0.3722
14185SOL    HW145447   0.952   4.286   1.636  0.0600 -0.7028 -1.0911
14185SOL    HW245448   1.043   4.286   1.757  0.0017 -1.4638 -1.0385
14186SOL     OW45449   4.151   2.999   7.377  0.5952  0.1670 -0.0275
14186SOL    HW145450   4.155   3.073   7.438 -0.0285 -0.6984  1.1157
14186SOL    HW245451   4.059   2.970   7.381  1.0823 -1.4300  0.5299
14187SOL     OW45452   1.096   8.834   2.647  0.1016  0.1275  0.8275
14187SOL    HW145453   1.061   8.908   2.598  1.8357  1.1600  1.0704
14187SOL    HW245454   1.071   8.851   2.738  1.0836  0.8116  0.9862
14188SOL     OW45455   7.673   7.791   8.305 -0.4033  0.0429 -0.4863
14188SOL    HW145456   7.733   7.793   8.231  1.9338  0.3335  1.2863
14188SOL    HW245457   7.614   7.864   8.291  0.5165  0.5907 -1.6472
14189SOL     OW45458   7.542   6.307   4.537 -0.3324  0.3543 -0.4230
14189SOL    HW145459   7.487   6.322   4.614  1.2153  1.2042  0.5701
14189SOL    HW245460   7.499   6.356   4.467 -1.8315 -0.5232 -0.1627
14190SOL     OW45461   7.505   3.054   6.680  0.1781 -0.3121  0.0026
14190SOL    HW145462   7.552   2.991   6.624  0.4699 -1.3231  1.3363
14190SOL    HW245463   7.478   3.123   6.620  2.3461 -0.2809 -1.0431
14191SOL     OW45464   5.900   8.287   4.588 -0.6217  0.4014  0.4677
14191SOL    HW145465   5.855   8.221   4.642  0.6346 -0.2271  0.7871
14191SOL    HW245466   5.915   8.242   4.505 -0.0902  0.4190  0.5567
14192SOL     OW45467   6.046   5.135   0.733 -0.3671 -0.1741  0.4725
14192SOL    HW145468   5.965   5.089   0.709 -0.6126  1.4253 -2.2029
14192SOL    HW245469   6.112   5.098   0.675  0.4790 -0.3309  1.5152
14193SOL     OW45470   7.152   2.899   2.018  0.6199  0.5921  0.1120
14193SOL    HW145471   7.192   2.822   2.057  0.8920  0.6905  0.0289
14193SOL    HW245472   7.096   2.935   2.087 -0.5132 -0.4038 -0.2626
14194SOL     OW45473   8.359   1.531   3.511 -0.4642 -0.1888  0.4369
14194SOL    HW145474   8.379   1.483   3.592 -1.4611  0.4297  1.0671
14194SOL    HW245475   8.368   1.623   3.536 -0.8770  0.0068 -0.1361
14195SOL     OW45476   0.887   0.177   3.969  0.0476 -0.1362 -0.3724
14195SOL    HW145477   0.836   0.155   3.891  0.3373  0.5057 -0.7516
14195SOL    HW245478   0.902   0.093   4.012  0.0071 -0.5205 -1.0878
14196SOL     OW45479   2.729   2.662   2.756 -0.2319  0.4234  0.3726
14196SOL    HW145480   2.740   2.725   2.685  0.6046 -0.0835  0.0398
14196SOL    HW245481   2.673   2.707   2.820 -0.1354  1.2705 -0.1292
14197SOL     OW45482   0.118   3.402   6.191 -0.1730 -0.1662 -0.4066
14197SOL    HW145483   0.134   3.496   6.186  0.6591 -0.2442  0.3604
14197SOL    HW245484   0.061   3.382   6.117 -0.7202  1.0140 -0.3123
14198SOL     OW45485   4.050   5.348   2.082 -0.6055 -0.4519  0.1931
14198SOL    HW145486   4.027   5.256   2.067 -1.1609 -0.2266 -0.3787
14198SOL    HW245487   3.967   5.390   2.106 -0.4466 -0.0097 -0.0189
14199SOL     OW45488   6.045   3.166   6.066  0.2425  0.3008 -0.7927
14199SOL    HW145489   5.980   3.109   6.024  0.1497  0.0453 -0.3011
14199SOL    HW245490   6.026   3.253   6.031 -0.0907  0.1560 -0.9767
14200SOL     OW45491   6.643   5.045   4.027 -0.3378  0.2585  0.2406
14200SOL    HW145492   6.693   5.044   3.945 -1.3618  0.0210 -0.4041
14200SOL    HW245493   6.564   5.094   4.006 -0.5339  0.3523  1.1488
14201SOL     OW45494   1.142   8.056   1.993  0.1676  0.2592  0.1232
14201SOL    HW145495   1.117   7.975   2.037 -2.4078  0.3434 -0.9985
14201SOL    HW245496   1.076   8.120   2.020  0.3042  1.1292 -1.4562
14202SOL     OW45497   6.882   7.188   2.893  0.3868 -0.4096 -0.1135
14202SOL    HW145498   6.812   7.240   2.931 -0.2241 -2.4349  1.7175
14202SOL    HW245499   6.902   7.231   2.810 -3.8974 -0.4223 -1.3981
14203SOL     OW45500   9.371   1.934   8.403  0.3792  0.3560  0.1699
14203SOL    HW145501   9.357   1.874   8.477 -0.6338 -0.8805 -0.9600
14203SOL    HW245502   9.459   1.913   8.372  0.3826  0.1064  0.3441
14204SOL     OW45503   7.625   8.403   3.358  0.8920  0.7407  0.2036
14204SOL    HW145504   7.584   8.419   3.443 -0.2318 -0.1485 -0.1343
14204SOL    HW245505   7.686   8.331   3.374 -0.5828 -0.6291 -0.0392
14205SOL     OW45506   9.456   3.134   6.164  0.4868 -0.6218 -0.0894
14205SOL    HW145507   9.483   3.213   6.118 -1.2121  0.7106  1.0608
14205SOL    HW245508   9.391   3.093   6.106  0.7314 -0.7131 -0.3008
14206SOL     OW45509   9.387   9.504   8.478  0.4642  1.0434  0.2097
14206SOL    HW145510   9.482   9.495   8.465  0.2649  0.9638 -1.3324
14206SOL    HW245511   9.376   9.595   8.507  1.0115  1.0430  0.4443
14207SOL     OW45512   3.983   6.027   2.750  0.2042 -0.5316  0.2995
14207SOL    HW145513   4.070   6.061   2.771  0.3860 -0.5732 -0.3458
14207SOL    HW245514   3.941   6.012   2.835  0.1813  1.1360  0.6184
14208SOL     OW45515   6.396   8.135   6.768 -0.2839 -0.0050  0.1759
14208SOL    HW145516   6.399   8.230   6.778  2.2444  0.0648 -0.5716
14208SOL    HW245517   6.481   8.105   6.799 -0.6430 -1.9354 -0.5604
14209SOL     OW45518   5.497   8.651   9.199 -0.1300  0.4612  0.1565
14209SOL    HW145519   5.565   8.591   9.231 -1.4947 -0.3178  1.7193
14209SOL    HW245520   5.546   8.722   9.156  1.7005  0.2875  1.8160
14210SOL     OW45521   8.880   7.176   8.571 -0.6593  0.1638 -0.5035
14210SOL    HW145522   8.871   7.096   8.520  2.0790  0.8654 -2.2989
14210SOL    HW245523   8.864   7.247   8.508 -1.6600  1.0605  0.7149
14211SOL     OW45524   4.923   8.572   1.092 -0.3466  0.3957  0.0146
14211SOL    HW145525   5.000   8.611   1.134  1.3736 -3.4527  0.8758
14211SOL    HW245526   4.858   8.567   1.163 -1.0499  2.4981 -0.3979
14212SOL     OW45527   1.574   9.127   8.290  0.3460 -0.4893 -0.2160
14212SOL    HW145528   1.481   9.104   8.300  0.0062  0.4560 -1.1201
14212SOL    HW245529   1.591   9.189   8.361  0.1215 -0.1746 -0.4381
14213SOL     OW45530   3.792   9.491   5.319 -0.6959 -0.2745 -0.0660
14213SOL    HW145531   3.744   9.508   5.238 -1.3381 -2.0091 -0.1003
14213SOL    HW245532   3.826   9.576   5.346 -0.6646  0.3788 -2.0300
14214SOL     OW45533   5.705   6.571   4.361 -0.1372 -0.1778 -0.1721
14214SOL    HW145534   5.775   6.507   4.350  0.7730  0.8721 -0.6841
14214SOL    HW245535   5.736   6.629   4.431 -1.6273 -1.1369  1.3815
14215SOL     OW45536   8.914   6.234   0.383 -0.0554  0.2620  0.6345
14215SOL    HW145537   8.960   6.223   0.300 -3.1683 -0.1358 -1.1768
14215SOL    HW245538   8.959   6.175   0.443  0.3014 -1.9398 -1.6447
14216SOL     OW45539   5.211   1.344   3.020 -0.3920  0.3310  0.2358
14216SOL    HW145540   5.215   1.262   2.970  0.0132  0.2053  0.4703
14216SOL    HW245541   5.178   1.409   2.958  1.6622  0.5508 -0.7105
14217SOL     OW45542   8.295   7.646   5.637  0.5334 -0.4837  0.1005
14217SOL    HW145543   8.332   7.724   5.678  0.9903 -0.3587 -0.5490
14217SOL    HW245544   8.287   7.583   5.708 -1.7938  0.8215  1.1139
14218SOL     OW45545   6.596   3.432   8.141 -0.8179 -0.3663  0.5685
14218SOL    HW145546   6.556   3.457   8.058 -0.2557 -0.3624  0.2943
14218SOL    HW245547   6.665   3.371   8.116 -2.5698 -2.7676  1.2497
14219SOL     OW45548   3.472   1.662   9.238 -0.0120  0.5960  0.0042
14219SOL    HW145549   3.425   1.632   9.315  0.0285  0.7604  0.0941
14219SOL    HW245550   3.512   1.745   9.265  0.3159  0.4665 -0.0753
14220SOL     OW45551   2.230   4.694   4.689  0.1669  0.3172  0.4029
14220SOL    HW145552   2.216   4.688   4.594 -0.1617 -1.1605  0.5256
14220SOL    HW245553   2.191   4.778   4.714 -1.2991 -0.0718 -0.5087
14221SOL     OW45554   3.827   2.427   8.733  1.0343 -0.5930 -0.6009
14221SOL    HW145555   3.873   2.369   8.794  2.2307 -0.3003 -1.1918
14221SOL    HW245556   3.752   2.376   8.703  0.3651 -0.7235  1.1555
14222SOL     OW45557   8.336   5.703   0.163  0.0630 -0.7823 -0.1027
14222SOL    HW145558   8.291   5.620   0.178  0.1840 -0.7641  0.3855
14222SOL    HW245559   8.304   5.733   0.078  0.7941 -1.8270 -0.7761
14223SOL     OW45560   3.021   2.679   3.081  0.1581 -0.2203  0.1259
14223SOL    HW145561   3.044   2.623   3.007 -0.6553  0.1924 -0.4524
14223SOL    HW245562   3.083   2.752   3.076  0.0042 -0.1144 -0.2430
14224SOL     OW45563   9.625   9.185   4.049 -0.2282 -0.2900  0.6010
14224SOL    HW145564   9.617   9.120   3.979 -0.1260 -1.8204  1.9445
14224SOL    HW245565   9.565   9.156   4.117 -0.8885  1.5782  0.8845
14225SOL     OW45566   8.699   2.827   2.183  0.1334  0.5100  0.3721
14225SOL    HW145567   8.769   2.828   2.249  1.5763 -1.6071 -0.9866
14225SOL    HW245568   8.735   2.774   2.112 -3.3216 -1.7469  0.0943
14226SOL     OW45569   9.464   8.009   6.720  0.3013 -0.4127  0.7287
14226SOL    HW145570   9.405   7.937   6.697 -0.9006  0.2587  1.6148
14226SOL    HW245571   9.539   7.998   6.662 -0.9413 -0.9573 -0.8442
14227SOL     OW45572   3.642   4.559   4.068 -0.2104  0.0655  0.4169
14227SOL    HW145573   3.629   4.652   4.050  1.8114 -0.0006 -1.9299
14227SOL    HW245574   3.732   4.553   4.101 -0.2661 -1.0844  0.4082
14228SOL     OW45575   7.149   7.408   8.547  0.6088  0.0560  0.0199
14228SOL    HW145576   7.227   7.426   8.495  1.3682 -1.6488  0.4678
14228SOL    HW245577   7.183   7.379   8.632 -0.5024 -0.6359  0.2580
14229SOL     OW45578   5.019   7.217   9.122  0.2763 -0.2593 -0.2169
14229SOL    HW145579   5.077   7.145   9.146  0.2431 -0.0794  0.4237
14229SOL    HW245580   4.957   7.224   9.195  1.5262  1.7447  0.7550
14230SOL     OW45581   2.706   4.159   9.630 -0.3393  0.0210  0.3270
14230SOL    HW145582   2.797   4.172   9.604 -0.0301 -2.1413  0.1371
14230SOL    HW245583   2.656   4.168   9.548 -0.0560 -0.8004  0.0599
14231SOL     OW45584   2.990   2.688   1.508  0.4851 -0.1782  0.8369
14231SOL    HW145585   2.960   2.689   1.417 -0.6978 -0.1316  1.2130
14231SOL    HW245586   3.049   2.763   1.515  0.1344  0.1524  0.2587
14232SOL     OW45587   0.312   5.356   5.794 -0.2454 -0.3451 -0.4256
14232SOL    HW145588   0.390   5.412   5.788 -0.7886  0.3542 -1.1908
14232SOL    HW245589   0.299   5.324   5.705 -0.7561 -0.5745 -0.2698
14233SOL     OW45590   8.930   7.948   2.799 -0.5321 -0.0377 -0.1033
14233SOL    HW145591   9.008   7.895   2.813 -0.8177 -0.5367 -0.3433
14233SOL    HW245592   8.860   7.884   2.784 -1.3579  0.3326  1.8914
14234SOL     OW45593   1.176   4.336   1.291 -0.0839 -0.5665 -0.2651
14234SOL    HW145594   1.222   4.402   1.239 -0.1684 -1.8508 -2.0827
14234SOL    HW245595   1.092   4.325   1.247  0.2815 -2.4931 -0.5764
14235SOL     OW45596   3.045   3.369   1.471 -0.2180  0.6276  0.5342
14235SOL    HW145597   3.123   3.419   1.495  0.6891  0.4999 -1.8665
14235SOL    HW245598   3.013   3.412   1.391 -0.4217 -1.5093 -0.6121
14236SOL     OW45599   5.199   8.453   0.377  0.4850  0.0106  0.2750
14236SOL    HW145600   5.201   8.459   0.281 -0.1381  1.2084  0.3110
14236SOL    HW245601   5.259   8.522   0.407 -0.2242  0.4491  0.7374
14237SOL     OW45602   1.988   7.364   0.771  0.8164  0.0571 -0.1415
14237SOL    HW145603   1.974   7.304   0.697  0.9742  0.6457 -0.6554
14237SOL    HW245604   2.029   7.441   0.732  0.2736  0.6592  0.4486
14238SOL     OW45605   1.034   4.856   7.931 -0.3880  0.3741 -0.5263
14238SOL    HW145606   1.116   4.807   7.940 -0.3226  0.4098 -0.9170
14238SOL    HW245607   1.037   4.921   8.002  0.1214  0.6575 -0.8058
14239SOL     OW45608   5.750   8.963   6.468  0.7480  0.0583  0.0885
14239SOL    HW145609   5.720   8.882   6.428  0.4347 -0.1232  0.6831
14239SOL    HW245610   5.760   9.024   6.395 -1.0196  0.1184 -0.1280
14240SOL     OW45611   7.198   6.691   1.157 -0.0704 -0.2724 -0.1583
14240SOL    HW145612   7.261   6.666   1.089  1.7047 -3.2301  2.2967
14240SOL    HW245613   7.245   6.754   1.211 -0.5983  0.3093 -0.3772
14241SOL     OW45614   6.905   1.342   2.591  0.1210  0.0621  0.1804
14241SOL    HW145615   6.840   1.277   2.563  0.0061  0.4067 -0.3866
14241SOL    HW245616   6.944   1.305   2.669  0.4480 -0.9550 -0.4450
14242SOL     OW45617   7.477   0.660   8.447  0.1962 -0.2146  0.2216
14242SOL    HW145618   7.536   0.638   8.374 -1.2323  0.0563 -1.0683
14242SOL    HW245619   7.405   0.598   8.439 -0.5816  0.6137  0.6337
14243SOL     OW45620   5.328   1.086   8.879 -0.1149 -0.5447 -0.3223
14243SOL    HW145621   5.309   1.018   8.944  0.2479 -1.9668 -1.6565
14243SOL    HW245622   5.299   1.167   8.921  0.0880 -1.4109  1.5989
14244SOL     OW45623   9.642   5.501   7.450  0.1070 -0.3813 -0.4702
14244SOL    HW145624   9.661   5.412   7.481 -0.7580 -0.4858 -0.2188
14244SOL    HW245625   9.728   5.543   7.444  0.3109 -0.0269  2.9936
14245SOL     OW45626   0.421   6.952   5.651 -0.0498 -0.1898 -0.2050
14245SOL    HW145627   0.359   6.974   5.722  0.0358 -0.5632 -0.0096
14245SOL    HW245628   0.467   7.034   5.634 -0.9393  0.2260 -0.6943
14246SOL     OW45629   5.055   2.710   5.121 -0.1132 -0.7316  0.2743
14246SOL    HW145630   5.046   2.666   5.037 -3.4165 -1.0976  0.7192
14246SOL    HW245631   5.029   2.645   5.186  0.1051  0.2633  1.3925
14247SOL     OW45632   3.650   8.158   4.897  0.0833 -0.4733 -0.1258
14247SOL    HW145633   3.735   8.199   4.881 -0.9837  1.5455 -0.9713
14247SOL    HW245634   3.613   8.144   4.809 -0.7632 -0.6442  0.2468
14248SOL     OW45635   3.961   8.560   3.496  0.1467  0.2458 -0.9039
14248SOL    HW145636   3.906   8.577   3.420  0.1173 -0.9862 -1.1889
14248SOL    HW245637   4.016   8.486   3.470 -0.8237 -1.1333  0.7097
14249SOL     OW45638   2.898   2.179   4.537  0.0344  0.3958  0.3591
14249SOL    HW145639   2.806   2.197   4.518 -0.4535  0.4461  2.5058
14249SOL    HW245640   2.940   2.266   4.540  0.3456  0.3303 -1.3581
14250SOL     OW45641   2.379   3.531   6.895 -0.4265 -0.6979 -0.4756
14250SOL    HW145642   2.383   3.464   6.827 -0.2648 -0.1108 -1.0509
14250SOL    HW245643   2.288   3.528   6.926 -0.5546 -0.8272 -0.8575
14251SOL     OW45644   8.557   7.904   8.558 -0.9634 -0.3448  0.1582
14251SOL    HW145645   8.461   7.909   8.552 -0.8161  1.5270 -1.4055
14251SOL    HW245646   8.588   7.949   8.480  1.2232 -0.5064  0.8825
14252SOL     OW45647   8.969   2.948   2.263  0.1367 -0.5504 -0.4571
14252SOL    HW145648   8.972   2.912   2.174  0.2797  1.0976 -1.1727
14252SOL    HW245649   8.885   2.994   2.268  0.3649 -0.1717  0.0508
14253SOL     OW45650   4.094   8.020   3.420 -0.2732  0.6642  0.0097
14253SOL    HW145651   4.002   8.031   3.396 -0.3453 -0.3966 -0.2563
14253SOL    HW245652   4.138   8.004   3.337  0.0454  0.4877  0.2132
14254SOL     OW45653   2.384   4.599   6.508  0.3131 -0.3929  0.0264
14254SOL    HW145654   2.428   4.532   6.456  1.9714  1.4150 -1.0682
14254SOL    HW245655   2.315   4.633   6.451 -1.6820 -2.2491  1.2137
14255SOL     OW45656   4.158   0.683   7.326 -0.2046 -0.0728 -0.0943
14255SOL    HW145657   4.156   0.763   7.272 -0.7741 -1.0332 -1.5407
14255SOL    HW245658   4.074   0.642   7.311  0.8247 -1.9816 -1.0194
14256SOL     OW45659   2.802   9.442   6.053  0.4200 -0.5508 -0.1142
14256SOL    HW145660   2.730   9.492   6.013  0.6086  0.4008  0.7135
14256SOL    HW245661   2.777   9.350   6.039  0.3209 -0.2736 -2.1153
14257SOL     OW45662   0.354   2.542   3.170 -0.1187  0.4766  0.0961
14257SOL    HW145663   0.383   2.554   3.260 -1.1869  0.6069  0.4307
14257SOL    HW245664   0.435   2.526   3.121  0.3910 -0.5951  1.2331
14258SOL     OW45665   2.595   7.836   1.258  0.2740  0.2256 -0.0403
14258SOL    HW145666   2.518   7.882   1.225  0.6386  0.8135 -0.0912
14258SOL    HW245667   2.658   7.840   1.186 -0.0610 -1.3016 -0.4457
14259SOL     OW45668   2.585   4.505   5.963 -0.0034  0.0513  0.1448
14259SOL    HW145669   2.631   4.543   6.038 -1.1914  0.4742  0.6822
14259SOL    HW245670   2.493   4.508   5.988 -0.1994 -3.4810  0.3497
14260SOL     OW45671   4.244   6.100   9.218  0.2013 -0.6062 -0.2040
14260SOL    HW145672   4.161   6.140   9.242  0.2862 -1.3803  1.4676
14260SOL    HW245673   4.228   6.006   9.221  0.3244 -0.8223 -2.9216
14261SOL     OW45674   9.634   8.833   2.479  0.1832 -0.0904 -0.5193
14261SOL    HW145675   9.720   8.867   2.502 -0.5008  0.8035  0.8263
14261SOL    HW245676   9.587   8.908   2.442  0.0622 -0.6491 -1.5503
14262SOL     OW45677   7.874   9.001   9.032  0.4849  0.4695  0.4593
14262SOL    HW145678   7.905   8.911   9.035 -2.2533 -0.5370  0.6564
14262SOL    HW245679   7.845   9.019   9.122 -3.2544 -0.1586 -0.4725
14263SOL     OW45680   3.539   4.334   1.925  0.4414 -0.1488 -0.3334
14263SOL    HW145681   3.630   4.324   1.898 -0.1867 -2.2202 -2.0343
14263SOL    HW245682   3.525   4.264   1.990  0.8011  2.1220  2.3644
14264SOL     OW45683   1.417   3.943   5.041  0.0269 -0.2255  0.1213
14264SOL    HW145684   1.456   3.858   5.058  1.0863  0.0015 -1.0190
14264SOL    HW245685   1.466   4.004   5.096  0.5441 -0.0979 -0.4724
14265SOL     OW45686   2.841   8.743   3.139  0.3745  0.4825  0.1580
14265SOL    HW145687   2.920   8.796   3.122  0.8984  0.3064  1.8412
14265SOL    HW245688   2.798   8.789   3.211 -1.1100  0.5885 -0.7722
14266SOL     OW45689   4.229   6.935   2.508  0.3981  0.1709  0.1391
14266SOL    HW145690   4.288   6.985   2.565  0.3865 -1.4708  1.6777
14266SOL    HW245691   4.287   6.876   2.460  0.0994 -1.6901  1.9058
14267SOL     OW45692   1.468   8.710   4.693  0.0428 -0.4458 -0.0127
14267SOL    HW145693   1.557   8.687   4.723  0.3761  0.1182 -0.5555
14267SOL    HW245694   1.476   8.800   4.662 -0.9609 -0.0216  0.8908
14268SOL     OW45695   0.669   7.322   4.752  0.1986  0.6110  0.1844
14268SOL    HW145696   0.578   7.295   4.737  0.5859 -0.1661 -0.8652
14268SOL    HW245697   0.718   7.241   4.751  0.7334  0.8562  2.3590
14269SOL     OW45698   7.620   4.386   0.064 -0.1080  0.4677  0.6172
14269SOL    HW145699   7.547   4.444   0.046 -0.9245 -0.0910  1.9692
14269SOL    HW245700   7.623   4.380   0.159  0.9467 -0.4659  0.5444
14270SOL     OW45701   7.723   3.582   8.285  0.5813 -0.3569  0.4950
14270SOL    HW145702   7.719   3.677   8.285 -0.1590 -0.3822  0.1931
14270SOL    HW245703   7.817   3.562   8.285  0.7439  0.3649  0.9384
14271SOL     OW45704   8.567   5.715   8.272 -0.4298 -0.0242  0.1053
14271SOL    HW145705   8.651   5.725   8.227 -0.3043 -0.6802  0.1887
14271SOL    HW245706   8.502   5.733   8.204 -0.2409 -1.1614 -0.4138
14272SOL     OW45707   5.704   9.197   8.441 -0.1417 -0.3110 -0.3320
14272SOL    HW145708   5.790   9.168   8.473 -1.1536 -2.3257  0.8019
14272SOL    HW245709   5.723   9.253   8.366  2.2092  0.8282  1.0229
14273SOL     OW45710   6.767   5.147   9.137  0.1613  0.6645  0.5387
14273SOL    HW145711   6.702   5.077   9.138 -0.6056  1.2548 -1.7540
14273SOL    HW245712   6.784   5.163   9.044  3.3060  0.8351  1.0488
14274SOL     OW45713   2.560   1.458   4.025  0.2422 -0.1029 -0.7304
14274SOL    HW145714   2.581   1.373   4.063  0.1049 -0.4979 -1.5094
14274SOL    HW245715   2.627   1.472   3.958 -0.1664  0.0596 -1.1113
14275SOL     OW45716   1.738   7.723   4.144 -0.1307  0.1972  0.7157
14275SOL    HW145717   1.711   7.729   4.052  0.7344 -1.3384  0.3245
14275SOL    HW245718   1.655   7.722   4.193 -0.6468 -0.1383 -0.1392
14276SOL     OW45719   1.065   9.562   5.791  0.4064  0.5259 -0.0537
14276SOL    HW145720   1.039   9.586   5.880  0.3074  0.7748 -0.1478
14276SOL    HW245721   1.160   9.574   5.790  0.4161  0.4634  0.0347
14277SOL     OW45722   4.842   6.611   5.341  0.0571 -0.1519 -0.0649
14277SOL    HW145723   4.791   6.691   5.334 -0.7454 -0.5227  1.2184
14277SOL    HW245724   4.922   6.636   5.387  0.5648  0.2195 -1.1276
14278SOL     OW45725   8.567   5.324   1.336 -0.6320  0.1210  0.3257
14278SOL    HW145726   8.589   5.248   1.389  0.6009 -0.6465 -1.1973
14278SOL    HW245727   8.475   5.312   1.313 -0.3905 -1.0648 -0.0869
14279SOL     OW45728   3.090   8.840   3.115  0.3073 -0.0320 -0.0563
14279SOL    HW145729   3.132   8.792   3.043 -0.1599  1.0062 -1.0619
14279SOL    HW245730   3.064   8.924   3.075 -1.5466 -0.1322  0.8620
14280SOL     OW45731   5.942   9.187   0.949 -0.1569 -0.1007 -0.3265
14280SOL    HW145732   6.033   9.168   0.927 -0.6370 -1.2737 -1.3964
14280SOL    HW245733   5.892   9.113   0.914 -1.2527 -1.0027  2.8130
14281SOL     OW45734   7.927   5.802   7.716  0.1586 -0.2799 -0.3049
14281SOL    HW145735   7.880   5.802   7.633  1.4923 -0.6460 -1.0773
14281SOL    HW245736   8.017   5.780   7.694  0.4648 -0.7993  1.2873
14282SOL     OW45737   1.724   0.388   0.740 -0.3682  0.1729  0.0070
14282SOL    HW145738   1.788   0.324   0.710 -1.6941 -0.2484 -2.2299
14282SOL    HW245739   1.731   0.388   0.835  1.9536 -0.8401 -0.1142
14283SOL     OW45740   2.788   8.260   3.817  0.5692  0.5559  0.0373
14283SOL    HW145741   2.820   8.320   3.884  2.5672  1.1241 -1.3202
14283SOL    HW245742   2.752   8.317   3.749  0.3498  0.0977 -0.2352
14284SOL     OW45743   9.463   5.110   7.391  0.4346  0.8313  0.0720
14284SOL    HW145744   9.498   5.080   7.307  0.1251 -0.6872  0.4567
14284SOL    HW245745   9.370   5.087   7.388  0.0589  2.2397  0.2002
14285SOL     OW45746   6.069   1.249   8.889 -0.2919  0.7477 -0.4416
14285SOL    HW145747   6.090   1.256   8.982 -3.8829 -0.3362  0.6371
14285SOL    HW245748   6.106   1.165   8.863 -0.8324  0.1587  0.5870
14286SOL     OW45749   4.595   0.400   3.655  0.0590 -0.0042  0.2314
14286SOL    HW145750   4.532   0.327   3.656 -0.6076  0.5580  1.4866
14286SOL    HW245751   4.652   0.382   3.730  0.0134  0.6396  0.4240
14287SOL     OW45752   4.218   2.466   8.069  0.4126 -0.6045  0.1464
14287SOL    HW145753   4.296   2.518   8.090 -1.0594  1.3866  1.0780
14287SOL    HW245754   4.196   2.421   8.150 -0.5597  0.5086  0.5270
14288SOL     OW45755   9.075   0.915   3.863  0.0263 -0.4007 -0.3032
14288SOL    HW145756   9.149   0.882   3.914  0.1927 -1.5667 -1.2522
14288SOL    HW245757   9.055   1.000   3.901  0.4297 -1.0411  1.4019
14289SOL     OW45758   5.300   9.380   5.079  0.3268 -0.4337 -0.3878
14289SOL    HW145759   5.319   9.302   5.026 -0.0816 -1.6494  1.1990
14289SOL    HW245760   5.274   9.346   5.164  0.2035  1.4582  0.3807
14290SOL     OW45761   4.918   1.392   0.817 -0.1767  0.1774 -0.4853
14290SOL    HW145762   4.967   1.374   0.737 -0.1501  0.9339 -0.6472
14290SOL    HW245763   4.888   1.306   0.846 -1.6744  0.0245 -2.2673
14291SOL     OW45764   2.654   4.394   2.013 -0.1773 -0.1576 -0.3904
14291SOL    HW145765   2.621   4.463   2.071  1.8891  0.7430 -0.1961
14291SOL    HW245766   2.690   4.441   1.938 -2.1129 -1.2701 -2.1353
14292SOL     OW45767   9.345   1.768   8.623 -0.1963  0.6427 -0.1549
14292SOL    HW145768   9.344   1.672   8.619  3.7633  0.4624 -0.8984
14292SOL    HW245769   9.355   1.787   8.717  0.6963  0.1958 -0.1431
14293SOL     OW45770   2.038   5.989   7.415 -0.1466  0.0532 -0.6275
14293SOL    HW145771   2.023   5.994   7.320 -0.1851  1.4586 -0.5762
14293SOL    HW245772   1.958   5.951   7.450 -0.5966  0.5642 -1.0729
14294SOL     OW45773   6.818   6.755   2.212 -0.2375 -0.1749  0.5643
14294SOL    HW145774   6.843   6.836   2.168 -1.0571 -0.9411 -1.4260
14294SOL    HW245775   6.869   6.687   2.169  0.7106 -0.7422  2.4454
14295SOL     OW45776   2.648   7.810   7.212  0.2706  0.1567 -0.9691
14295SOL    HW145777   2.596   7.881   7.173 -0.4578  0.8184  1.0934
14295SOL    HW245778   2.685   7.848   7.291  1.6610 -1.1557 -0.9439
14296SOL     OW45779   8.991   4.053   1.558  0.0285  0.1661  0.1227
14296SOL    HW145780   8.989   3.989   1.487  0.7192 -1.6565  1.6677
14296SOL    HW245781   9.074   4.037   1.603  0.0726  1.9513  0.7716
14297SOL     OW45782   3.732   3.253   3.863  0.1475  0.1977 -0.1918
14297SOL    HW145783   3.682   3.325   3.825 -1.5448 -1.0843 -0.5353
14297SOL    HW245784   3.682   3.175   3.840  1.1722 -0.9720  1.3585
14298SOL     OW45785   3.651   6.212   6.498 -0.0461  0.2021 -0.3908
14298SOL    HW145786   3.632   6.164   6.578 -0.8330  1.7450  0.3912
14298SOL    HW245787   3.745   6.200   6.485  1.0559  3.1024  3.0848
14299SOL     OW45788   5.720   6.589   0.553  0.2070  0.2691 -0.0979
14299SOL    HW145789   5.801   6.598   0.602  0.4983 -0.7203 -0.3875
14299SOL    HW245790   5.651   6.585   0.620  0.5945 -1.0011  0.2434
14300SOL     OW45791   7.001   4.564   3.420  0.7734  0.0545  0.2698
14300SOL    HW145792   7.030   4.614   3.496 -0.4508 -0.2326  0.9677
14300SOL    HW245793   6.911   4.593   3.405  0.5570 -0.8299 -0.2471
14301SOL     OW45794   3.162   8.498   2.379 -0.4614 -0.0546 -0.2013
14301SOL    HW145795   3.171   8.572   2.439 -2.8991 -0.7044  1.1020
14301SOL    HW245796   3.217   8.430   2.418  0.3164  0.4561 -0.3797
14302SOL     OW45797   5.470   3.812   8.052  0.4260 -0.1170  0.0257
14302SOL    HW145798   5.449   3.784   7.963 -2.3800 -0.8710  0.8185
14302SOL    HW245799   5.490   3.905   8.044 -0.0010 -0.1265 -1.3649
14303SOL     OW45800   5.455   8.318   3.018  0.2305  0.0528 -0.3000
14303SOL    HW145801   5.541   8.347   2.987  0.0583  1.8469  0.7943
14303SOL    HW245802   5.399   8.324   2.941  0.7759  0.1222 -0.7013
14304SOL     OW45803   8.895   2.108   7.735  0.0862 -0.4755  0.5357
14304SOL    HW145804   8.804   2.124   7.711  0.5405  1.2606 -0.1805
14304SOL    HW245805   8.944   2.126   7.655  1.1497 -0.3328  1.2027
14305SOL     OW45806   6.812   3.341   1.156 -0.2372 -0.0009 -0.2525
14305SOL    HW145807   6.898   3.321   1.193 -0.1740 -0.0401 -0.4196
14305SOL    HW245808   6.772   3.256   1.139  0.2199 -0.0159 -1.4017
14306SOL     OW45809   9.234   6.443   0.613  0.2905  0.2944  0.1145
14306SOL    HW145810   9.216   6.371   0.673  1.5483  0.5625  0.8656
14306SOL    HW245811   9.279   6.508   0.667  1.3035  0.6171 -1.0593
14307SOL     OW45812   5.809   8.267   2.385 -0.2558 -0.2694 -0.5811
14307SOL    HW145813   5.887   8.320   2.403 -0.0130 -0.6652 -0.4566
14307SOL    HW245814   5.839   8.176   2.391 -0.5664 -0.4224 -1.2696
14308SOL     OW45815   1.238   1.091   5.435 -0.2649  0.3685  0.3066
14308SOL    HW145816   1.193   1.008   5.422  0.9014 -0.1461 -0.6771
14308SOL    HW245817   1.331   1.070   5.427  0.1472  1.5069  1.6385
14309SOL     OW45818   8.021   9.585   0.287 -0.2809 -0.4476 -0.7491
14309SOL    HW145819   8.020   9.584   0.191 -1.9713 -1.6253 -0.7542
14309SOL    HW245820   8.114   9.580   0.309  0.2976  1.8890 -2.2801
14310SOL     OW45821   9.251   3.082   7.725  0.3396 -0.2908  0.2478
14310SOL    HW145822   9.202   3.006   7.693 -1.1517  0.1902  1.3071
14310SOL    HW245823   9.201   3.158   7.695  0.6721  0.2262  0.9576
14311SOL     OW45824   5.020   4.091   4.267 -0.3809  0.2487  0.5598
14311SOL    HW145825   5.030   4.129   4.180  3.7180  1.2530  1.2916
14311SOL    HW245826   5.079   4.016   4.268  0.5241  0.9211  2.7860
14312SOL     OW45827   3.249   2.846   8.799  0.5740 -0.5576  0.2853
14312SOL    HW145828   3.256   2.846   8.704 -2.5258  0.5738 -0.0533
14312SOL    HW245829   3.222   2.935   8.821  0.6511 -0.9619  2.1797
14313SOL     OW45830   5.825   3.604   0.967  0.4161  0.2232  0.2775
14313SOL    HW145831   5.834   3.649   1.051 -0.6719 -0.4144  0.7612
14313SOL    HW245832   5.873   3.522   0.979 -0.1524 -0.0891  0.4614
14314SOL     OW45833   4.816   9.397   9.462 -0.4519 -0.2054 -0.3175
14314SOL    HW145834   4.826   9.439   9.376  0.1734 -1.4365 -0.8706
14314SOL    HW245835   4.903   9.402   9.501 -0.8306  0.7357  0.4601
14315SOL     OW45836   1.182   3.960   3.455 -0.1183  0.5641 -0.0382
14315SOL    HW145837   1.249   3.981   3.519  1.1220 -1.3297 -0.6315
14315SOL    HW245838   1.229   3.955   3.371 -1.3405  0.9880 -0.7817
14316SOL     OW45839   9.516   1.771   8.122 -0.2150  0.1767  0.2157
14316SOL    HW145840   9.508   1.746   8.030 -0.9960  0.3687  0.2233
14316SOL    HW245841   9.603   1.809   8.129  0.5222 -1.3881 -0.0604
14317SOL     OW45842   9.084   4.448   5.927 -0.0918  0.4344  0.3646
14317SOL    HW145843   9.140   4.483   5.858 -0.5514 -0.5056 -0.5209
14317SOL    HW245844   9.102   4.354   5.928 -1.2114  0.1997  0.4556
14318SOL     OW45845   6.666   8.798   1.482 -0.0596 -0.2522  0.6229
14318SOL    HW145846   6.732   8.782   1.414 -0.7456 -3.8375  0.5770
14318SOL    HW245847   6.629   8.883   1.460  1.7006  0.0112 -1.7768
14319SOL     OW45848   1.296   0.620   4.822 -0.2121 -0.7411  0.2320
14319SOL    HW145849   1.251   0.699   4.851 -0.6517 -1.1849  0.7820
14319SOL    HW245850   1.338   0.645   4.740  0.8095  0.4660  1.0768
14320SOL     OW45851   9.388   3.686   6.233 -0.1579  0.5365 -0.3157
14320SOL    HW145852   9.458   3.715   6.175 -1.3628  2.2590 -0.9857
14320SOL    HW245853   9.427   3.685   6.320  0.2280  3.4306 -0.3711
14321SOL     OW45854   6.107   4.736   1.258 -0.3458  0.1531  0.0519
14321SOL    HW145855   6.071   4.725   1.170 -1.7004  1.5092  0.3788
14321SOL    HW245856   6.192   4.777   1.244  0.9930 -2.6056 -0.7182
14322SOL     OW45857   8.901   3.890   6.259  0.1320 -0.4548  0.7608
14322SOL    HW145858   8.866   3.887   6.348  1.3921  1.7848  1.4081
14322SOL    HW245859   8.982   3.840   6.263  0.4476  0.0726  1.0129
14323SOL     OW45860   3.963   2.872   2.598  0.1453 -0.5792 -0.2284
14323SOL    HW145861   3.984   2.918   2.679  3.0637 -0.3566 -0.9875
14323SOL    HW245862   3.903   2.930   2.551  1.8307  1.3708 -0.0930
14324SOL     OW45863   6.480   2.724   2.032  0.5412  0.0366 -0.6087
14324SOL    HW145864   6.448   2.800   2.080  0.6293  0.2244 -0.8419
14324SOL    HW245865   6.487   2.655   2.097 -0.8249 -0.1589 -0.6446
14325SOL     OW45866   9.565   8.294   1.170  0.1363  0.5079  0.8119
14325SOL    HW145867   9.480   8.295   1.126  0.8907  1.6829 -0.6879
14325SOL    HW245868   9.543   8.283   1.263 -1.5542 -0.8274  0.3180
14326SOL     OW45869   6.662   0.684   1.740  0.2734 -0.3244 -0.0892
14326SOL    HW145870   6.572   0.662   1.760  0.3442 -1.5348 -1.0175
14326SOL    HW245871   6.713   0.644   1.810  0.1971 -0.8731 -0.3461
14327SOL     OW45872   9.250   8.816   8.679 -0.3367  0.1895  0.4794
14327SOL    HW145873   9.291   8.752   8.738  0.2666  1.9827  2.1179
14327SOL    HW245874   9.177   8.852   8.731 -0.5022  1.0098 -0.3025
14328SOL     OW45875   3.672   4.393   0.496  0.5545  0.3591 -0.0968
14328SOL    HW145876   3.766   4.400   0.480  0.7615  0.9957  1.2454
14328SOL    HW245877   3.631   4.431   0.418  1.4167  0.5660 -0.4531
14329SOL     OW45878   0.643   4.727   3.903  0.4406 -0.0856  0.5414
14329SOL    HW145879   0.639   4.684   3.988 -1.0310  0.2779  0.6963
14329SOL    HW245880   0.579   4.798   3.909  0.5856  0.1915 -0.7415
14330SOL     OW45881   7.841   5.345   6.438  0.4760 -0.0720 -0.8065
14330SOL    HW145882   7.865   5.353   6.346  0.5709 -0.4637 -0.8202
14330SOL    HW245883   7.751   5.312   6.437  0.7661 -0.9093 -0.7735
14331SOL     OW45884   9.535   4.810   7.909 -0.1989 -0.0368  0.3424
14331SOL    HW145885   9.593   4.818   7.985  0.1410 -1.6688  0.3041
14331SOL    HW245886   9.588   4.767   7.843 -1.8152 -3.0672  0.8315
14332SOL     OW45887   1.519   0.124   7.803 -0.0940 -0.0493 -0.0832
14332SOL    HW145888   1.559   0.090   7.722 -1.9730 -1.3552 -0.5391
14332SOL    HW245889   1.425   0.122   7.785 -0.5870 -0.8185  2.3055
14333SOL     OW45890   9.419   1.562   2.640  0.3911  0.2993 -0.2385
14333SOL    HW145891   9.390   1.565   2.549 -1.9593 -2.1373  0.3012
14333SOL    HW245892   9.501   1.512   2.637  0.2061  0.0227 -1.0114
14334SOL     OW45893   7.917   7.253   6.390 -0.5318 -0.0594  0.0937
14334SOL    HW145894   7.897   7.342   6.359  3.0453  0.4137 -1.3005
14334SOL    HW245895   7.953   7.266   6.478  0.4348 -0.0128 -0.2926
14335SOL     OW45896   8.203   4.991   2.485  0.5128  0.3563 -0.0156
14335SOL    HW145897   8.169   4.916   2.436  1.8729  0.4446 -1.1554
14335SOL    HW245898   8.223   4.956   2.572  0.4198 -0.4119 -0.2988
14336SOL     OW45899   5.815   2.487   3.229 -0.0888  0.0581  0.0980
14336SOL    HW145900   5.816   2.448   3.141 -1.2841 -0.4091  0.2673
14336SOL    HW245901   5.905   2.516   3.244  0.4119 -0.9971 -0.7718
14337SOL     OW45902   6.806   2.952   1.459  0.6398  0.2484 -0.7885
14337SOL    HW145903   6.731   2.964   1.400 -0.1424  1.2199  0.3392
14337SOL    HW245904   6.882   2.969   1.404  0.0483 -0.5385 -1.9146
14338SOL     OW45905   1.823   3.484   4.153  0.3429  0.1651  0.1328
14338SOL    HW145906   1.742   3.480   4.205 -0.0080 -0.1731 -0.4205
14338SOL    HW245907   1.854   3.574   4.163 -1.2456  0.9344 -1.3217
14339SOL     OW45908   0.440   4.961   0.711  0.4787  0.1549 -0.1448
14339SOL    HW145909   0.373   5.018   0.675  1.4082  1.0712 -0.4764
14339SOL    HW245910   0.487   4.927   0.634  1.0501  0.3465  0.1130
14340SOL     OW45911   6.860   3.158   9.393  0.0684 -0.1923  0.0930
14340SOL    HW145912   6.937   3.200   9.355 -0.8160 -0.9733 -2.8175
14340SOL    HW245913   6.862   3.184   9.485  2.4689  1.7576 -0.3918
14341SOL     OW45914   6.305   6.408   0.290  0.1037  0.2605  0.0966
14341SOL    HW145915   6.334   6.498   0.275  1.0008 -0.1441 -0.7688
14341SOL    HW245916   6.364   6.375   0.358 -0.4418  0.4205  0.6536
14342SOL     OW45917   1.598   3.371   4.324 -0.1061  0.1588  0.4632
14342SOL    HW145918   1.579   3.277   4.324 -0.1779  0.1662  1.6736
14342SOL    HW245919   1.515   3.413   4.346 -0.6588  0.6810 -2.1690
14343SOL     OW45920   5.268   4.929   3.295 -0.2140 -0.2517  0.7829
14343SOL    HW145921   5.353   4.890   3.316  0.0055  0.4382  1.2135
14343SOL    HW245922   5.277   4.958   3.204  0.2548  0.4193  1.0300
14344SOL     OW45923   4.799   5.062   6.676  0.3642  0.1161 -0.4110
14344SOL    HW145924   4.815   5.154   6.654  0.4806  0.2660  0.2743
14344SOL    HW245925   4.821   5.014   6.596 -0.4934  0.7453 -1.0555
14345SOL     OW45926   2.171   2.852   5.617  0.4429  0.1969  0.1639
14345SOL    HW145927   2.229   2.841   5.541  0.1464 -0.4361  0.0244
14345SOL    HW245928   2.215   2.806   5.688 -0.2481 -0.9659 -0.1355
14346SOL     OW45929   8.318   5.806   1.090 -0.4984 -0.4242 -0.3788
14346SOL    HW145930   8.398   5.839   1.048 -1.1017 -0.4738 -1.6129
14346SOL    HW245931   8.271   5.885   1.117 -0.9020 -0.3274 -1.3385
14347SOL     OW45932   3.877   9.309   6.415 -0.1842 -0.1744  0.1908
14347SOL    HW145933   3.871   9.214   6.404  1.5831 -0.3505  0.5557
14347SOL    HW245934   3.970   9.327   6.418 -0.5009  1.3950  1.7485
14348SOL     OW45935   2.932   8.719   2.353 -0.3666 -0.1265  0.1962
14348SOL    HW145936   3.017   8.763   2.353 -0.7080  0.5550 -0.9298
14348SOL    HW245937   2.932   8.668   2.434  0.7841  0.4979  0.6105
14349SOL     OW45938   7.910   5.879   1.757  0.3571  0.0085  0.2505
14349SOL    HW145939   7.937   5.793   1.726  0.7790 -0.0432  0.7385
14349SOL    HW245940   7.920   5.937   1.681 -2.4971 -0.8361 -0.8911
14350SOL     OW45941   8.139   1.409   8.674  0.2602 -0.0915 -0.3157
14350SOL    HW145942   8.198   1.406   8.749 -0.4169  1.2556  0.3141
14350SOL    HW245943   8.089   1.328   8.680  0.8936 -0.4566  0.1136
14351SOL     OW45944   5.149   1.872   4.117 -0.1907 -0.0193  0.1653
14351SOL    HW145945   5.075   1.830   4.072 -0.0344 -0.2386  0.1091
14351SOL    HW245946   5.140   1.845   4.208 -0.9394  1.0389  0.4168
14352SOL     OW45947   1.338   7.418   1.707  0.4141  0.2289 -0.0449
14352SOL    HW145948   1.302   7.506   1.720  0.5181  0.1590  0.7625
14352SOL    HW245949   1.291   7.384   1.631  0.7646  1.1895 -0.6956
14353SOL     OW45950   7.641   3.504   8.028 -0.3930 -0.2004 -0.1923
14353SOL    HW145951   7.649   3.544   8.115  0.4757 -0.3118 -0.2051
14353SOL    HW245952   7.579   3.559   7.981 -3.3800 -1.8786  1.4664
14354SOL     OW45953   1.884   5.434   4.919  0.1448  0.3052 -0.0602
14354SOL    HW145954   1.834   5.412   4.997  0.0373 -0.1031 -0.2464
14354SOL    HW245955   1.835   5.506   4.879  1.7324  2.6363  1.8242
14355SOL     OW45956   2.080   8.461   2.519 -0.2429 -0.1541 -0.1296
14355SOL    HW145957   2.103   8.430   2.606 -1.2747  0.2144  0.2992
14355SOL    HW245958   2.147   8.525   2.497 -0.1570 -0.0082  0.5456
14356SOL     OW45959   4.207   8.413   2.132 -0.4732  0.1140 -0.1574
14356SOL    HW145960   4.145   8.482   2.109 -1.3506 -1.0505 -1.4077
14356SOL    HW245961   4.166   8.366   2.204 -1.8517 -1.6100 -1.9702
14357SOL     OW45962   6.787   3.645   2.323 -0.0032 -0.5326 -0.1374
14357SOL    HW145963   6.814   3.599   2.402 -0.6214 -0.9115 -0.1407
14357SOL    HW245964   6.819   3.591   2.251  1.6634  0.4485 -0.1800
14358SOL     OW45965   1.967   3.787   9.229 -0.4782 -0.1195 -0.2533
14358SOL    HW145966   1.890   3.829   9.267  0.4064  1.1094  0.2672
14358SOL    HW245967   1.995   3.848   9.160  0.5259 -0.1102  0.1530
14359SOL     OW45968   7.845   5.816   9.118  0.4558 -0.2084  0.2245
14359SOL    HW145969   7.940   5.815   9.128  0.4689 -2.0205  0.2307
14359SOL    HW245970   7.828   5.890   9.060  1.7386  0.9296  1.2166
14360SOL     OW45971   9.028   5.862   4.164  0.3927 -0.0127 -0.3675
14360SOL    HW145972   9.023   5.768   4.183 -0.3152 -0.0153 -0.5378
14360SOL    HW245973   9.087   5.897   4.230  1.3482 -0.7153 -0.8242
14361SOL     OW45974   8.405   0.236   4.861  0.4106 -0.7987  0.1548
14361SOL    HW145975   8.482   0.234   4.917  0.5567 -0.5325 -0.0304
14361SOL    HW245976   8.337   0.277   4.914  0.5903 -0.4098  0.0933
14362SOL     OW45977   7.931   0.821   8.044  0.1080 -0.4886 -0.1120
14362SOL    HW145978   7.963   0.897   7.995  0.2778  0.0340  0.7837
14362SOL    HW245979   7.976   0.747   8.004  1.6979  0.1302  0.4428
14363SOL     OW45980   4.683   6.519   5.735  0.0629 -0.3105  0.1916
14363SOL    HW145981   4.603   6.467   5.729  0.1909 -0.3234 -2.0764
14363SOL    HW245982   4.737   6.490   5.661  0.1864  2.8755 -1.1262
14364SOL     OW45983   6.991   5.555   8.651 -0.2831  0.2429 -0.0781
14364SOL    HW145984   7.010   5.467   8.685  1.5602  1.1205  1.2827
14364SOL    HW245985   6.895   5.559   8.650 -0.4405 -0.7610  2.6339
14365SOL     OW45986   1.133   3.494   1.798 -0.1898 -0.1183  0.1846
14365SOL    HW145987   1.052   3.499   1.849 -0.9642 -0.5715 -0.9684
14365SOL    HW245988   1.124   3.414   1.746 -1.2153  2.1827 -3.5519
14366SOL     OW45989   9.500   3.573   3.211 -0.4261 -0.5178  0.4112
14366SOL    HW145990   9.473   3.590   3.302  0.9692  1.3909  0.5380
14366SOL    HW245991   9.453   3.638   3.160  1.3175  0.6843  0.2393
14367SOL     OW45992   0.353   1.874   1.198 -0.6011 -0.4009  0.2731
14367SOL    HW145993   0.401   1.872   1.281  1.8575 -0.9171 -1.0560
14367SOL    HW245994   0.331   1.966   1.185 -0.0039 -0.1486  0.9871
14368SOL     OW45995   9.373   3.418   1.454  0.0536  0.3290 -0.2267
14368SOL    HW145996   9.278   3.415   1.465 -0.1146  1.5752 -1.1947
14368SOL    HW245997   9.387   3.396   1.362  0.6006  1.4909 -0.4278
14369SOL     OW45998   8.766   6.316   9.492  0.1678  0.2073  0.2261
14369SOL    HW145999   8.713   6.386   9.455  0.7748  1.7729  2.1699
14369SOL    HW246000   8.759   6.327   9.587  1.0320 -1.8021  0.5847
14370SOL     OW46001   7.466   6.963   2.689 -0.0377 -0.7971  0.2063
14370SOL    HW146002   7.561   6.962   2.699  0.0118  2.6728  1.5179
14370SOL    HW246003   7.451   7.007   2.605 -0.5648 -2.3540 -0.5645
14371SOL     OW46004   6.275   6.969   8.727 -0.0707 -0.2523 -0.2231
14371SOL    HW146005   6.355   6.926   8.756 -1.4845 -2.3433  0.8911
14371SOL    HW246006   6.254   7.030   8.797 -0.1985 -0.7842  0.2149
14372SOL     OW46007   9.563   1.045   3.985 -0.0540 -0.0290 -0.0998
14372SOL    HW146008   9.598   1.126   3.947 -1.9643  1.2560  0.7371
14372SOL    HW246009   9.639   0.988   3.993  1.5930  2.0881  0.3542
14373SOL     OW46010   2.993   6.731   6.421  0.2773  0.2462 -0.1036
14373SOL    HW146011   3.024   6.798   6.359 -1.4158  1.6149  0.4341
14373SOL    HW246012   2.992   6.776   6.506  0.9857 -1.1020  0.6439
14374SOL     OW46013   4.106   7.184   8.938  0.0090 -0.0736 -0.7261
14374SOL    HW146014   4.127   7.167   8.846  1.5445 -1.3758 -0.1745
14374SOL    HW246015   4.080   7.099   8.973  0.8023  0.1162  0.3756
14375SOL     OW46016   1.348   1.376   8.740  0.3683 -0.0374 -0.4937
14375SOL    HW146017   1.407   1.412   8.806 -0.9758  1.4515 -0.0217
14375SOL    HW246018   1.306   1.301   8.783  0.2875  0.2707 -0.0329
14376SOL     OW46019   9.270   6.300   2.833 -1.0365 -0.6267 -0.1810
14376SOL    HW146020   9.233   6.378   2.790  0.3788 -0.1516 -0.5971
14376SOL    HW246021   9.268   6.232   2.766  1.6374  0.2482 -1.3032
14377SOL     OW46022   6.348   9.113   5.826 -0.5264  0.3006  0.5782
14377SOL    HW146023   6.316   9.189   5.777 -0.4119  0.5690  0.9111
14377SOL    HW246024   6.413   9.149   5.887  2.4439 -0.5615 -1.8438
14378SOL     OW46025   6.895   7.129   1.714  0.0937 -0.0311 -0.0599
14378SOL    HW146026   6.875   7.036   1.703  0.1541 -0.0112 -0.3310
14378SOL    HW246027   6.813   7.174   1.693  0.9831  0.2166 -3.6332
14379SOL     OW46028   2.659   4.800   5.639  0.1147 -0.0008  0.4288
14379SOL    HW146029   2.633   4.778   5.549 -2.0144 -0.1917  1.0213
14379SOL    HW246030   2.580   4.782   5.691  0.8539  1.4127  2.1358
14380SOL     OW46031   0.834   4.732   3.719  0.3754  0.2215 -0.2877
14380SOL    HW146032   0.790   4.734   3.804 -1.9162 -1.2401 -1.3512
14380SOL    HW246033   0.828   4.822   3.688 -0.7570  0.3155  0.1521
14381SOL     OW46034   2.373   1.145   6.115 -0.4340  0.1203  0.4838
14381SOL    HW146035   2.340   1.063   6.150  0.8663  0.0399  1.6254
14381SOL    HW246036   2.319   1.213   6.155 -1.3479 -0.1553 -0.2676
14382SOL     OW46037   7.574   5.801   7.641  0.1012  0.2601  0.2290
14382SOL    HW146038   7.479   5.810   7.632 -0.3953 -2.1756  2.0163
14382SOL    HW246039   7.605   5.787   7.552 -1.7018 -2.0318 -0.1403
14383SOL     OW46040   4.354   9.472   9.042  0.0570  0.8534 -0.4319
14383SOL    HW146041   4.387   9.390   9.078 -0.5361 -0.5630 -2.9009
14383SOL    HW246042   4.432   9.524   9.024  0.4723  0.6042  0.5606
14384SOL     OW46043   7.898   7.245   3.641  0.6132  0.0855 -0.6153
14384SOL    HW146044   7.856   7.250   3.555 -0.0423 -0.8832 -0.3734
14384SOL    HW246045   7.916   7.336   3.664 -2.3449  0.7022 -0.2985
14385SOL     OW46046   3.148   6.934   3.924  0.0793 -0.0948 -0.0748
14385SOL    HW146047   3.126   7.001   3.859  0.7286  0.7120  0.5055
14385SOL    HW246048   3.066   6.891   3.944 -0.0786 -0.6114 -1.6980
14386SOL     OW46049   6.050   2.118   8.788 -0.9343  0.2171  0.0528
14386SOL    HW146050   6.053   2.200   8.837  2.0536  1.2834 -1.6956
14386SOL    HW246051   5.963   2.083   8.807 -1.1732  2.1453  3.4128
14387SOL     OW46052   4.922   6.245   3.715 -0.1644  0.4282 -0.0519
14387SOL    HW146053   4.964   6.179   3.660  1.3265  0.2018  1.2659
14387SOL    HW246054   4.838   6.206   3.739  0.5764 -0.9079  0.4981
14388SOL     OW46055   2.202   6.729   3.403  0.2227  0.6026  0.3131
14388SOL    HW146056   2.278   6.731   3.462 -0.4562  0.7728  1.2108
14388SOL    HW246057   2.167   6.640   3.413 -1.1332  1.2508  1.8381
14389SOL     OW46058   3.549   4.479   6.680 -0.1364 -0.1020  0.2722
14389SOL    HW146059   3.563   4.574   6.686  2.2638 -0.3881  0.3822
14389SOL    HW246060   3.483   4.469   6.611 -0.0717  1.6261 -0.0962
14390SOL     OW46061   7.321   3.029   4.640  0.0257 -0.9303 -0.1800
14390SOL    HW146062   7.381   3.013   4.713  1.8917  2.4296 -0.7636
14390SOL    HW246063   7.374   3.076   4.575 -3.0030  1.6385 -1.0574
14391SOL     OW46064   9.390   6.107   0.118 -0.6205  0.3151  0.4275
14391SOL    HW146065   9.463   6.114   0.181 -1.0337 -1.8516  1.2300
14391SOL    HW246066   9.402   6.021   0.077 -2.3855  0.1825  0.1254
14392SOL     OW46067   2.220   8.409   2.165  0.2477 -0.1786  0.3658
14392SOL    HW146068   2.176   8.344   2.219  1.1366 -0.6388  0.5565
14392SOL    HW246069   2.312   8.403   2.190  0.2008  2.0253  1.2842
14393SOL     OW46070   5.625   6.427   8.967  0.3731 -0.2514 -0.8134
14393SOL    HW146071   5.597   6.336   8.961  0.8542 -0.4874  0.3040
14393SOL    HW246072   5.653   6.438   9.058 -1.1896  1.4694 -0.4883
14394SOL     OW46073   8.262   2.314   2.010  0.0145  0.0890 -0.1905
14394SOL    HW146074   8.188   2.317   2.071  0.5446 -0.5761  0.4965
14394SOL    HW246075   8.228   2.267   1.933 -0.8095  1.3733 -0.6576
14395SOL     OW46076   3.273   4.223   6.797 -0.0886 -0.3269 -0.9972
14395SOL    HW146077   3.197   4.260   6.841 -0.1560 -0.3636 -1.0811
14395SOL    HW246078   3.347   4.275   6.827 -0.1057 -0.4841 -0.6794
14396SOL     OW46079   7.017   2.749   3.736  0.7938  0.4740 -0.3902
14396SOL    HW146080   6.943   2.722   3.681  0.3786  1.3721 -0.2844
14396SOL    HW246081   6.998   2.840   3.759  0.7630  0.0407  1.5331
14397SOL     OW46082   7.531   0.835   6.470  0.0783 -0.1037  0.3920
14397SOL    HW146083   7.458   0.787   6.431  0.8355 -0.0839 -1.1702
14397SOL    HW246084   7.597   0.769   6.486  1.1400  0.3175 -1.8014
14398SOL     OW46085   8.916   4.851   8.352  0.0884  0.4256 -0.0300
14398SOL    HW146086   8.927   4.874   8.259 -1.7171  1.8519  0.0471
14398SOL    HW246087   8.947   4.761   8.358  0.5163  0.3890 -1.9707
14399SOL     OW46088   5.867   8.261   7.194 -0.1966 -0.4137  0.3590
14399SOL    HW146089   5.817   8.314   7.255 -1.2456 -0.6106 -0.3167
14399SOL    HW246090   5.887   8.319   7.121  1.3881 -0.0653  1.0175
14400SOL     OW46091   6.677   7.468   3.292  0.7340 -0.1896  0.2073
14400SOL    HW146092   6.681   7.497   3.200  1.2675  1.1993  0.6383
14400SOL    HW246093   6.723   7.384   3.293  1.6841  0.2963 -0.6225
14401SOL     OW46094   7.617   5.365   1.463 -0.3551 -0.1462 -0.2536
14401SOL    HW146095   7.590   5.276   1.440  1.7864 -0.2612 -2.7526
14401SOL    HW246096   7.538   5.406   1.498 -1.4743 -2.9148  0.7924
14402SOL     OW46097   7.082   6.473   6.671 -0.3457  0.5260 -0.5148
14402SOL    HW146098   7.096   6.452   6.763  2.1101 -0.5537 -1.0509
14402SOL    HW246099   7.014   6.412   6.643  1.0479 -1.3357 -0.0944
14403SOL     OW46100   8.027   1.587   9.488  0.1088  0.3571  0.2783
14403SOL    HW146101   8.002   1.506   9.533 -0.0097 -0.1602 -0.6863
14403SOL    HW246102   8.091   1.628   9.546  1.3086 -1.1778  0.1272
14404SOL     OW46103   7.068   1.977   7.091  0.0829 -0.0999  0.1126
14404SOL    HW146104   6.984   1.967   7.136 -0.9085  0.7189 -1.4403
14404SOL    HW246105   7.132   1.985   7.161 -1.3141  0.6218  1.3786
14405SOL     OW46106   4.078   0.451   6.588 -0.2420  0.3458 -0.3454
14405SOL    HW146107   4.154   0.475   6.640  0.6678 -0.5694 -1.2103
14405SOL    HW246108   4.074   0.356   6.593 -0.1794  0.2426 -1.8579
14406SOL     OW46109   3.654   8.189   1.923  0.2073 -1.3241  0.5009
14406SOL    HW146110   3.638   8.284   1.920  0.1480 -1.2609  2.0174
14406SOL    HW246111   3.567   8.150   1.935  0.4523 -1.3757  2.4509
14407SOL     OW46112   6.503   6.959   0.376  0.5916 -0.1525  0.2643
14407SOL    HW146113   6.572   6.964   0.442  0.2913  1.0133  0.5024
14407SOL    HW246114   6.492   6.865   0.361  1.1754 -0.4093  1.3280
14408SOL     OW46115   6.112   7.614   5.089 -0.2259 -0.3164 -0.1184
14408SOL    HW146116   6.043   7.570   5.040 -0.0882 -2.2450  1.2850
14408SOL    HW246117   6.193   7.585   5.047 -0.1625 -0.9045  0.3914
14409SOL     OW46118   1.583   8.484   9.581 -0.1946  0.4276  0.0550
14409SOL    HW146119   1.567   8.572   9.614  0.0773 -0.3047  2.3282
14409SOL    HW246120   1.543   8.483   9.494 -2.3538  2.0500  0.9459
14410SOL     OW46121   1.243   8.455   9.564  0.5658  0.3698  0.1504
14410SOL    HW146122   1.307   8.489   9.501 -2.5465  1.7362 -2.6362
14410SOL    HW246123   1.270   8.492   9.648  3.7139  0.2956 -0.6999
14411SOL     OW46124   5.274   2.434   3.573  0.0990  0.7360  0.1569
14411SOL    HW146125   5.222   2.500   3.619  0.5202  1.0178  0.2407
14411SOL    HW246126   5.341   2.408   3.637  1.8769  2.5119 -0.8624
14412SOL     OW46127   7.852   7.525   0.943  0.5108  0.3614  0.7077
14412SOL    HW146128   7.823   7.601   0.994 -3.1551 -0.2412 -0.1577
14412SOL    HW246129   7.844   7.452   1.004 -0.3208  0.1194  0.3175
14413SOL     OW46130   4.410   8.141   3.809  0.1269  0.3971 -0.3403
14413SOL    HW146131   4.384   8.121   3.899 -0.4672  0.6102 -0.4590
14413SOL    HW246132   4.423   8.236   3.809 -0.0439  0.4208 -0.5208
14414SOL     OW46133   6.509   8.827   4.559  0.0041  0.1995  0.0943
14414SOL    HW146134   6.594   8.869   4.547  0.4674 -0.2178  1.6300
14414SOL    HW246135   6.467   8.879   4.629 -0.4754 -0.3444  0.2173
14415SOL     OW46136   0.309   2.663   6.367 -0.1760  0.4268  0.7049
14415SOL    HW146137   0.333   2.573   6.389  0.5131  0.0087 -1.4808
14415SOL    HW246138   0.391   2.711   6.370 -0.0960  0.3982 -0.5954
14416SOL     OW46139   2.242   3.549   8.789 -0.1045 -0.3428  0.5441
14416SOL    HW146140   2.257   3.576   8.879 -1.9616 -0.3052  0.8812
14416SOL    HW246141   2.173   3.482   8.795  2.2294 -3.0497 -0.5289
14417SOL     OW46142   0.411   9.403   4.031 -0.6968 -0.0332 -0.5426
14417SOL    HW146143   0.346   9.381   3.965 -1.6989  1.6708 -0.1715
14417SOL    HW246144   0.360   9.435   4.106  0.4595 -0.8405  0.6550
14418SOL     OW46145   8.351   8.586   6.244 -0.3609  0.4124  0.3782
14418SOL    HW146146   8.279   8.649   6.243 -1.4811 -0.7863 -1.4733
14418SOL    HW246147   8.386   8.591   6.332 -0.5801  3.3816  0.4216
14419SOL     OW46148   5.080   8.009   0.213 -0.3795 -0.2337  0.4137
14419SOL    HW146149   5.003   8.062   0.232 -1.4231 -1.2631 -0.7145
14419SOL    HW246150   5.088   8.013   0.118  1.6035  0.6778  0.5790
14420SOL     OW46151   0.472   8.361   6.884  0.2201  0.0667  0.2672
14420SOL    HW146152   0.431   8.289   6.835 -0.5540  0.3093  0.5430
14420SOL    HW246153   0.403   8.392   6.943 -0.2301  2.5540 -1.4308
14421SOL     OW46154   1.325   0.242   5.234 -1.0010  0.0337 -0.1228
14421SOL    HW146155   1.324   0.338   5.242  0.2431  0.0575 -0.1230
14421SOL    HW246156   1.240   0.221   5.196 -1.4311  1.1094  0.1971
14422SOL     OW46157   4.959   7.151   2.535  0.4259  0.2844 -0.1415
14422SOL    HW146158   4.954   7.245   2.517 -0.3090  0.3698  0.4475
14422SOL    HW246159   4.963   7.110   2.449 -2.2663  0.7080 -0.5627
14423SOL     OW46160   3.552   5.252   7.123  0.1169 -0.2580 -0.1070
14423SOL    HW146161   3.522   5.205   7.201 -0.3814  4.0820  2.6459
14423SOL    HW246162   3.647   5.258   7.133 -0.0446  1.2683  0.9433
14424SOL     OW46163   0.152   4.448   8.929  0.5056  0.1274  0.8418
14424SOL    HW146164   0.116   4.380   8.987 -0.6498 -0.1965 -0.2276
14424SOL    HW246165   0.076   4.498   8.901  0.8629 -0.5033 -1.3951
14425SOL     OW46166   9.326   7.006   7.756 -0.5791  0.1464 -0.4959
14425SOL    HW146167   9.401   6.947   7.765  0.2022  1.1151 -0.4286
14425SOL    HW246168   9.304   7.004   7.663 -0.5502 -0.2479 -0.4929
14426SOL     OW46169   8.193   0.535   1.813  0.2626 -0.6306 -0.2236
14426SOL    HW146170   8.280   0.497   1.828  0.3368  0.2243  1.8294
14426SOL    HW246171   8.210   0.620   1.774  0.3882 -0.3595  0.4025
14427SOL     OW46172   8.059   2.845   4.120  0.1421  0.0045 -0.1292
14427SOL    HW146173   8.080   2.853   4.027 -0.1040 -2.2035 -0.4280
14427SOL    HW246174   8.111   2.770   4.150 -1.9917 -1.2233  0.7615
14428SOL     OW46175   6.452   3.678   8.442  0.6687  0.4045  0.2805
14428SOL    HW146176   6.422   3.647   8.527  1.0844 -0.4796  0.1269
14428SOL    HW246177   6.423   3.768   8.436 -0.1935  0.1781  0.9634
14429SOL     OW46178   6.411   2.751   7.785 -0.4809  0.0999  0.1741
14429SOL    HW146179   6.434   2.793   7.702  1.4556 -1.6863 -0.2828
14429SOL    HW246180   6.319   2.726   7.774 -1.0767  2.3080 -0.3114
14430SOL     OW46181   5.259   8.988   8.283  0.1774 -0.0696 -0.0418
14430SOL    HW146182   5.342   8.951   8.313  0.4004 -1.2438 -1.9268
14430SOL    HW246183   5.284   9.068   8.236  0.0640  0.4579  0.7807
14431SOL     OW46184   1.267   7.323   9.168 -0.2640  0.0109  0.2124
14431SOL    HW146185   1.175   7.324   9.145 -0.5360  2.3311  1.1017
14431SOL    HW246186   1.268   7.302   9.262 -0.1293  2.1235  0.7398
14432SOL     OW46187   8.998   8.054   8.712  0.2249  0.1249  0.0536
14432SOL    HW146188   9.083   8.012   8.713  0.3609  0.3968  1.7161
14432SOL    HW246189   8.935   7.982   8.714  0.4447 -0.0403  1.4109
14433SOL     OW46190   5.454   0.926   6.032 -0.2005 -0.2196 -0.4546
14433SOL    HW146191   5.385   0.911   6.097 -0.1891  0.4530 -0.2758
14433SOL    HW246192   5.428   1.006   5.988  0.9535  0.6028  0.2852
14434SOL     OW46193   6.276   9.252   3.890 -0.2402  0.0617  0.2414
14434SOL    HW146194   6.271   9.186   3.820  1.3182  1.6039 -1.4272
14434SOL    HW246195   6.192   9.298   3.885 -0.9291 -1.0983  0.7401
14435SOL     OW46196   1.891   7.494   5.396 -0.1744  0.2199 -0.2181
14435SOL    HW146197   1.903   7.445   5.477 -1.3598 -0.6694 -0.5605
14435SOL    HW246198   1.828   7.562   5.418 -1.1100 -0.5072 -0.5537
14436SOL     OW46199   6.579   5.610   9.136  0.1830 -0.3226  0.7835
14436SOL    HW146200   6.494   5.568   9.153  0.2598 -0.4784  0.7874
14436SOL    HW246201   6.579   5.687   9.193 -0.2702  0.0989  0.2227
14437SOL     OW46202   7.373   5.007   0.497  0.1938  0.6288  0.0660
14437SOL    HW146203   7.370   4.950   0.573 -1.4922  1.0371  0.3567
14437SOL    HW246204   7.397   4.950   0.424 -1.2697 -0.4466  0.3811
14438SOL     OW46205   6.494   7.161   8.383  0.0756 -0.2854 -0.3721
14438SOL    HW146206   6.511   7.089   8.442  0.4684  0.3175  0.2631
14438SOL    HW246207   6.415   7.203   8.418 -0.8109 -1.0650 -1.3822
14439SOL     OW46208   6.772   5.513   7.943 -0.3799 -0.0172  0.9156
14439SOL    HW146209   6.733   5.538   8.027  0.6608  2.6117  0.7163
14439SOL    HW246210   6.780   5.595   7.895  0.4923 -1.2377 -1.1503
14440SOL     OW46211   3.368   3.522   5.427 -0.0911 -0.3852 -0.4918
14440SOL    HW146212   3.287   3.554   5.387 -1.2265 -0.8539  1.3451
14440SOL    HW246213   3.374   3.431   5.398 -1.2863 -0.9364  0.9085
14441SOL     OW46214   0.137   8.730   9.622  0.0701 -0.1436  0.2816
14441SOL    HW146215   0.060   8.677   9.644  0.6328 -0.8170  0.6721
14441SOL    HW246216   0.191   8.673   9.567  0.6904  0.0109  0.7114
14442SOL     OW46217   8.813   7.932   9.036 -0.6583 -0.1924 -0.4720
14442SOL    HW146218   8.729   7.901   9.071 -1.6308  0.9532 -1.6448
14442SOL    HW246219   8.867   7.853   9.029 -0.7463 -0.6304  2.5124
14443SOL     OW46220   8.229   2.684   1.139  0.2214  0.5045  0.4675
14443SOL    HW146221   8.256   2.771   1.111 -2.1795  1.8808  2.1323
14443SOL    HW246222   8.197   2.642   1.059  2.5698  0.5792 -0.5986
14444SOL     OW46223   5.664   7.022   7.347  0.3920  0.1614 -0.1680
14444SOL    HW146224   5.713   7.065   7.417  2.3187 -0.2075 -1.2185
14444SOL    HW246225   5.719   7.030   7.270 -1.3425 -0.0844 -1.5082
14445SOL     OW46226   7.975   4.741   6.733  0.7669  0.2950  0.0661
14445SOL    HW146227   7.996   4.647   6.735  0.3317  0.2022  0.9717
14445SOL    HW246228   8.054   4.784   6.767  1.6422  0.4161 -2.0204
14446SOL     OW46229   6.695   5.164   4.629  0.2694 -0.5821  0.1516
14446SOL    HW146230   6.746   5.144   4.707 -0.6591  2.0641  1.5678
14446SOL    HW246231   6.759   5.195   4.565  0.7937 -0.4587  0.7339
14447SOL     OW46232   3.355   7.424   0.051 -0.5225 -0.2165  0.0032
14447SOL    HW146233   3.424   7.410  -0.014 -1.0457  1.2261 -0.9111
14447SOL    HW246234   3.400   7.460   0.127 -0.2678  0.8997 -0.6583
14448SOL     OW46235   0.495   0.005   3.669 -0.0518  0.2433 -0.0434
14448SOL    HW146236   0.531   0.004   3.580 -0.6724  0.4229 -0.3045
14448SOL    HW246237   0.447  -0.077   3.676 -0.5844  0.5445 -0.1251
14449SOL     OW46238   8.331   3.984   7.301  0.1284 -0.3671  0.0824
14449SOL    HW146239   8.247   3.977   7.346  0.8081 -1.5814  1.2187
14449SOL    HW246240   8.349   3.895   7.270  0.1279  0.2435 -1.8476
14450SOL     OW46241   7.087   5.820   7.687 -0.1901  0.0675  0.3918
14450SOL    HW146242   7.060   5.910   7.706  0.1434  0.0178  1.1640
14450SOL    HW246243   7.166   5.829   7.634 -0.4382  0.2221  0.0449
14451SOL     OW46244   1.297   2.277   6.862  0.3394 -0.0846 -0.3440
14451SOL    HW146245   1.240   2.212   6.822  0.2185  0.0137 -0.3334
14451SOL    HW246246   1.355   2.305   6.791 -0.3261  0.5920 -0.6419
14452SOL     OW46247   5.081   9.073   7.819 -0.4842  0.5423  0.0693
14452SOL    HW146248   5.114   8.983   7.825  0.0933  0.4510 -2.7755
14452SOL    HW246249   5.137   9.123   7.877 -0.3481 -0.8141  1.1538
14453SOL     OW46250   9.068   1.445   6.283  0.1035  0.1361  0.2678
14453SOL    HW146251   9.070   1.528   6.331 -0.0063 -0.8730  2.1127
14453SOL    HW246252   9.010   1.461   6.209  0.7986  1.9570  0.0603
14454SOL     OW46253   6.523   6.383   6.653 -0.6937  0.1379  0.2440
14454SOL    HW146254   6.537   6.468   6.695 -2.0488  0.9274 -0.8120
14454SOL    HW246255   6.463   6.337   6.712 -0.6898  0.2887  0.3651
14455SOL     OW46256   7.983   0.885   2.216  0.0405  0.7019  0.2693
14455SOL    HW146257   8.046   0.862   2.148 -1.2747  0.2144 -0.8409
14455SOL    HW246258   8.000   0.824   2.287 -0.2926 -0.6009 -0.7247
14456SOL     OW46259   9.376   9.484   0.236 -0.4001  0.2627  0.1874
14456SOL    HW146260   9.302   9.530   0.196  0.4404  1.1019 -0.4634
14456SOL    HW246261   9.404   9.542   0.306  0.8223  0.9146 -0.7971
14457SOL     OW46262   1.367   7.774   8.952  0.4109 -0.2442 -0.1209
14457SOL    HW146263   1.320   7.739   8.877  0.0026 -1.0556  0.5002
14457SOL    HW246264   1.345   7.715   9.024  1.0646  0.3228  0.5606
14458SOL     OW46265   6.419   5.747   2.283 -0.0632  0.3784  0.0082
14458SOL    HW146266   6.459   5.815   2.229  0.8788 -0.3461 -0.2366
14458SOL    HW246267   6.465   5.666   2.259 -0.3098 -0.1391  1.1711
14459SOL     OW46268   4.517   1.969   6.529  0.2864  0.4271 -0.6672
14459SOL    HW146269   4.425   1.995   6.521  0.0495  0.5670  1.7579
14459SOL    HW246270   4.522   1.884   6.485 -1.5273 -0.5700  0.8801
14460SOL     OW46271   0.951   4.077   0.370  0.2300  0.5243 -0.9089
14460SOL    HW146272   0.886   4.007   0.385  2.2060 -1.2857 -0.2605
14460SOL    HW246273   0.977   4.065   0.279  1.3591 -0.3729 -0.4999
14461SOL     OW46274   6.329   9.603   7.724 -0.1492  0.3385  0.2534
14461SOL    HW146275   6.283   9.548   7.661  1.6316 -1.5128  0.4509
14461SOL    HW246276   6.406   9.635   7.677  0.2324  0.4630  0.9426
14462SOL     OW46277   2.813   0.068   6.425  0.3353  0.0404  0.8378
14462SOL    HW146278   2.737   0.009   6.424 -0.4145  0.9824  0.5277
14462SOL    HW246279   2.827   0.089   6.332 -0.0377  1.1351  1.0266
14463SOL     OW46280   7.264   0.466   5.956  0.3933 -0.1024  0.5077
14463SOL    HW146281   7.293   0.418   5.878 -0.2220  1.7189 -0.9169
14463SOL    HW246282   7.327   0.538   5.965 -0.0372  0.2006  1.1777
14464SOL     OW46283   7.276   8.999   2.746  0.5591 -0.3660 -0.1282
14464SOL    HW146284   7.309   8.919   2.706 -0.6941 -1.6307  1.2308
14464SOL    HW246285   7.238   9.049   2.674  2.6677 -0.2302 -1.2356
14465SOL     OW46286   7.492   5.932   6.837  0.0250 -0.5558  0.0025
14465SOL    HW146287   7.455   5.945   6.750 -0.1943 -1.9766 -0.1494
14465SOL    HW246288   7.486   5.837   6.851  0.5702 -0.4123  1.3349
14466SOL     OW46289   0.598   7.094   4.201  0.3581  0.1529 -0.1508
14466SOL    HW146290   0.590   7.023   4.264 -2.4100  0.5319  0.0806
14466SOL    HW246291   0.692   7.104   4.187  1.0050 -1.0864  2.5871
14467SOL     OW46292   5.079   2.143   3.633 -0.2845  0.1853  0.4350
14467SOL    HW146293   5.065   2.076   3.699  3.4573  0.6555  1.9888
14467SOL    HW246294   5.083   2.226   3.682 -1.7302  1.1703 -1.0137
14468SOL     OW46295   2.044   0.577   0.629 -0.5103  0.0810 -0.0913
14468SOL    HW146296   2.062   0.530   0.710  1.4533 -0.0740 -0.5681
14468SOL    HW246297   1.953   0.604   0.637 -0.0238  1.1977  2.7320
14469SOL     OW46298   3.394   4.716   8.939 -1.1226 -0.2012 -1.2129
14469SOL    HW146299   3.429   4.661   8.868  0.0255 -0.9287 -0.1206
14469SOL    HW246300   3.372   4.799   8.897  1.5697  0.1797 -2.0731
14470SOL     OW46301   9.014   2.754   5.043 -0.0519 -0.0753 -0.1470
14470SOL    HW146302   9.107   2.737   5.057  0.5822  2.4521 -0.7107
14470SOL    HW246303   8.970   2.717   5.119  1.3818 -1.4619  0.0384
14471SOL     OW46304   8.328   4.009   6.833 -0.2053  0.0472 -0.0589
14471SOL    HW146305   8.263   4.057   6.780  1.4809 -1.1100 -3.4402
14471SOL    HW246306   8.315   3.917   6.810  0.3227 -0.6035  2.0087
14472SOL     OW46307   8.558   6.460   3.546 -0.5449  1.0246 -0.2922
14472SOL    HW146308   8.590   6.395   3.608  0.1490  1.5818 -0.0601
14472SOL    HW246309   8.633   6.516   3.528 -0.5768  0.5837 -2.0385
14473SOL     OW46310   7.726   3.402   3.232 -0.0557 -0.0427 -0.2253
14473SOL    HW146311   7.723   3.396   3.137  0.3368  0.0794 -0.2466
14473SOL    HW246312   7.819   3.398   3.254 -0.2006 -1.2699  0.2323
14474SOL     OW46313   5.523   2.448   0.655 -0.1719 -0.1746 -0.2190
14474SOL    HW146314   5.531   2.506   0.730 -0.0938 -1.9230  1.1967
14474SOL    HW246315   5.484   2.502   0.586  0.4013  1.6572  0.8436
14475SOL     OW46316   5.028   2.399   7.255 -0.0986  0.1557 -0.3146
14475SOL    HW146317   5.027   2.489   7.287  1.2174 -0.4004  1.4780
14475SOL    HW246318   5.019   2.406   7.160  0.9896  2.2359 -0.3146
14476SOL     OW46319   0.445   7.602   4.559 -0.4120 -0.1301 -0.2115
14476SOL    HW146320   0.375   7.665   4.571  1.3633  1.9194 -0.0556
14476SOL    HW246321   0.525   7.653   4.570  1.1396 -1.9888 -2.1746
14477SOL     OW46322   2.477   5.599   2.801 -0.1894 -0.0987 -0.3037
14477SOL    HW146323   2.466   5.527   2.863  0.4585  0.1352  0.0860
14477SOL    HW246324   2.446   5.676   2.848 -1.3184 -0.1680 -0.8790
14478SOL     OW46325   4.733   0.934   9.140  0.1776  0.0946  0.4757
14478SOL    HW146326   4.807   0.907   9.195  1.9818  1.1896 -1.2621
14478SOL    HW246327   4.658   0.937   9.199  0.8176 -3.8375  1.7677
14479SOL     OW46328   8.779   7.259   3.473  0.4356  0.1328 -0.1433
14479SOL    HW146329   8.741   7.298   3.552 -1.0926 -0.8524 -0.3575
14479SOL    HW246330   8.791   7.333   3.413 -0.6558  0.5463  0.1324
14480SOL     OW46331   1.597   6.462   5.307  0.0387 -0.1602  0.4368
14480SOL    HW146332   1.644   6.441   5.226  0.9811 -0.1297  0.9668
14480SOL    HW246333   1.581   6.377   5.348 -0.6393 -0.1930  0.1211
14481SOL     OW46334   9.618   5.450   3.837 -0.1685 -0.2870  0.2152
14481SOL    HW146335   9.643   5.522   3.895 -1.1866  0.7856 -0.6308
14481SOL    HW246336   9.671   5.376   3.866  1.5276  1.0124  0.5616
14482SOL     OW46337   4.200   4.696   1.239 -0.0522  0.8796  0.0802
14482SOL    HW146338   4.138   4.643   1.290  0.3551  0.1731 -0.1481
14482SOL    HW246339   4.282   4.689   1.287  0.7411 -1.0488 -1.4471
14483SOL     OW46340   1.550   0.515   9.375  0.5704  0.5110 -0.2851
14483SOL    HW146341   1.540   0.553   9.463 -0.7458 -1.5303  0.5276
14483SOL    HW246342   1.581   0.587   9.321 -0.3174  2.3123  1.4785
14484SOL     OW46343   4.370   3.779   0.521  0.4827 -0.5744  0.1094
14484SOL    HW146344   4.315   3.819   0.588  0.8126 -0.5153  0.3496
14484SOL    HW246345   4.313   3.716   0.477  0.2628 -0.6080  0.4428
14485SOL     OW46346   2.259   1.980   6.401  0.0402 -0.0218  0.2614
14485SOL    HW146347   2.322   2.010   6.467 -1.0499  0.5266  1.0880
14485SOL    HW246348   2.178   1.966   6.450 -0.5508 -0.4848 -0.8201
14486SOL     OW46349   5.947   4.874   0.007 -0.8098  0.3891  0.1464
14486SOL    HW146350   5.913   4.900   0.092 -0.2768 -1.4556  0.9880
14486SOL    HW246351   6.039   4.851   0.024 -0.9429 -0.9009 -0.6940
14487SOL     OW46352   7.463   0.245   6.556 -0.2657  0.8209  0.1393
14487SOL    HW146353   7.452   0.322   6.611  0.6238  0.9733  0.1277
14487SOL    HW246354   7.407   0.261   6.480 -1.7914  0.4400  1.1407
14488SOL     OW46355   1.757   7.037   5.903  0.1775 -0.0732 -0.5145
14488SOL    HW146356   1.799   7.114   5.865  0.6078 -0.0449  0.0062
14488SOL    HW246357   1.670   7.067   5.929  0.9818  0.7755  1.4116
14489SOL     OW46358   6.596   8.492   4.281 -0.1876  0.6215  0.8738
14489SOL    HW146359   6.562   8.441   4.207 -0.8515  0.6189  1.1737
14489SOL    HW246360   6.650   8.560   4.241  0.1051  0.1319  0.4304
14490SOL     OW46361   7.072   2.677   6.004  0.4660 -0.3409  0.3283
14490SOL    HW146362   7.007   2.639   6.062  0.7556  0.2717  1.0651
14490SOL    HW246363   7.138   2.608   5.994  0.6214 -0.3060  1.0628
14491SOL     OW46364   0.239   3.516   0.706 -0.6402  0.0347 -0.3033
14491SOL    HW146365   0.160   3.479   0.666 -1.0131  3.5180 -3.2528
14491SOL    HW246366   0.206   3.566   0.781 -1.4488  1.7571 -1.7149
14492SOL     OW46367   0.845   2.272   7.128  0.0898 -0.6015 -0.2651
14492SOL    HW146368   0.753   2.257   7.109 -0.4590  0.7874  1.0668
14492SOL    HW246369   0.862   2.219   7.206  0.5306 -1.1802 -0.7540
14493SOL     OW46370   1.694   1.387   3.933 -0.4428 -0.4104 -0.1310
14493SOL    HW146371   1.783   1.422   3.941 -0.4742 -0.1739 -0.8153
14493SOL    HW246372   1.706   1.293   3.920 -0.3352 -0.5505  0.8585
14494SOL     OW46373   3.271   6.983   7.101 -0.2257 -0.1101 -0.2165
14494SOL    HW146374   3.193   6.929   7.106 -0.7828  0.7928  1.2964
14494SOL    HW246375   3.261   7.032   7.019 -0.5983 -0.9227 -0.6705
14495SOL     OW46376   3.721   5.398   6.664 -0.0651 -0.8646 -0.5811
14495SOL    HW146377   3.711   5.313   6.707 -1.7110 -0.7009 -0.5847
14495SOL    HW246378   3.811   5.397   6.630  0.4156 -2.0237  0.6254
14496SOL     OW46379   9.215   8.569   1.348  0.0626 -0.6527 -0.4559
14496SOL    HW146380   9.170   8.522   1.419  0.7974 -0.9157 -0.1507
14496SOL    HW246381   9.148   8.582   1.282 -1.0891  1.1072  0.9824
14497SOL     OW46382   0.530   9.404   9.639  0.3700  0.4739 -0.0288
14497SOL    HW146383   0.560   9.466   9.573 -0.0684  2.7740  1.8362
14497SOL    HW246384   0.609   9.355   9.663  1.3170  2.0869  0.2779
14498SOL     OW46385   7.918   0.235   8.301  0.5119 -0.1824 -0.2501
14498SOL    HW146386   7.903   0.230   8.396  3.4433  0.0957  0.3092
14498SOL    HW246387   7.961   0.153   8.279  0.7208  0.1520 -1.1456
14499SOL     OW46388   9.180   8.370   8.014  0.1116  0.2395 -0.4739
14499SOL    HW146389   9.188   8.301   7.948  0.0700  0.9155 -1.2009
14499SOL    HW246390   9.085   8.384   8.022  0.1582  1.5142 -1.7421
14500SOL     OW46391   6.320   7.615   1.138 -0.3319 -0.2461  0.1651
14500SOL    HW146392   6.388   7.558   1.174 -0.1030  0.3661  0.7037
14500SOL    HW246393   6.367   7.673   1.077 -0.4587 -0.1886  0.1213
14501SOL     OW46394   9.554   9.289   6.554  0.0676 -0.2348 -0.0900
14501SOL    HW146395   9.533   9.233   6.479 -0.9827 -1.6037  1.1421
14501SOL    HW246396   9.558   9.377   6.519 -1.3250 -0.7251 -1.6163
14502SOL     OW46397   8.429   8.640   0.736 -0.1023  0.3139  0.2674
14502SOL    HW146398   8.423   8.715   0.795  0.1134 -0.8680  1.8705
14502SOL    HW246399   8.357   8.653   0.673 -0.3162  1.6370  0.7552
14503SOL     OW46400   2.299   3.197   7.823 -0.1017 -0.0194  0.4617
14503SOL    HW146401   2.277   3.173   7.733  4.1216 -2.6673 -0.1274
14503SOL    HW246402   2.278   3.119   7.874  1.7793 -0.3381  0.8395
14504SOL     OW46403   5.563   4.109   5.336 -0.4444 -0.0649  0.1943
14504SOL    HW146404   5.479   4.120   5.381  0.4809 -0.3270  2.0762
14504SOL    HW246405   5.587   4.017   5.351 -0.1049 -0.1751 -0.8943
14505SOL     OW46406   1.169   2.935   4.042 -0.1220  0.3729  0.3239
14505SOL    HW146407   1.073   2.937   4.037 -0.2726 -1.4150  1.4788
14505SOL    HW246408   1.188   2.867   4.107  1.9355  1.1445  0.6006
14506SOL     OW46409   0.206   0.929   4.337 -0.2742 -0.0548  0.5483
14506SOL    HW146410   0.125   0.966   4.302 -0.2319  0.1475  0.6633
14506SOL    HW246411   0.192   0.834   4.335 -1.2199  0.0167  2.2258
14507SOL     OW46412   7.726   7.010   2.615  0.2007  0.4772  0.1548
14507SOL    HW146413   7.773   7.092   2.624 -1.2912  1.3022  0.7799
14507SOL    HW246414   7.795   6.944   2.602  1.3596  1.9928 -2.0623
14508SOL     OW46415   2.932   2.100   8.035  0.2570 -0.4931  0.5403
14508SOL    HW146416   3.006   2.120   8.093 -0.6223 -0.6022  1.7530
14508SOL    HW246417   2.859   2.085   8.095 -0.4256 -1.7741 -0.5601
14509SOL     OW46418   1.690   4.230   0.059 -0.3691 -0.7491  0.5356
14509SOL    HW146419   1.733   4.148   0.032 -1.7726 -1.6586  0.9471
14509SOL    HW246420   1.750   4.270   0.121  0.3993 -1.4175  0.2363
14510SOL     OW46421   6.163   0.675   6.278  0.4001 -0.0665 -0.4724
14510SOL    HW146422   6.073   0.654   6.304  0.1728  1.8594  0.5106
14510SOL    HW246423   6.216   0.652   6.354  0.4104  0.9178 -0.1679
14511SOL     OW46424   3.768   0.418   1.525  0.5209  0.5039 -0.2193
14511SOL    HW146425   3.787   0.405   1.618 -1.8721  0.5734  0.3256
14511SOL    HW246426   3.719   0.499   1.521 -2.4979 -1.2271 -1.0325
14512SOL     OW46427   5.551   0.608   4.068 -0.0930  0.0651  0.2991
14512SOL    HW146428   5.635   0.649   4.050 -0.3107  0.6065  0.4898
14512SOL    HW246429   5.492   0.645   4.003 -0.1738 -0.3615  0.1243
14513SOL     OW46430   1.758   3.756   2.860  0.4541  0.2735 -0.1423
14513SOL    HW146431   1.765   3.661   2.851  0.5225  0.1012  1.5087
14513SOL    HW246432   1.716   3.784   2.778 -1.8496 -1.4414  0.3454
14514SOL     OW46433   7.563   3.424   8.472 -0.5761  0.2178 -0.2228
14514SOL    HW146434   7.632   3.438   8.537 -0.4156  1.0264 -0.5564
14514SOL    HW246435   7.583   3.486   8.402 -1.1140 -0.1921 -0.7519
14515SOL     OW46436   0.401   9.400   3.655  0.4401  0.3732  0.4609
14515SOL    HW146437   0.312   9.426   3.677  0.2058  0.0096 -0.0391
14515SOL    HW246438   0.391   9.332   3.589  1.0981  0.6326  0.0806
14516SOL     OW46439   2.906   3.824   7.586 -0.3140 -0.1838 -0.6568
14516SOL    HW146440   2.893   3.874   7.666  0.8815 -1.0288  0.1036
14516SOL    HW246441   2.904   3.732   7.614  0.6279 -0.4819 -1.4952
14517SOL     OW46442   4.133   6.585   8.822 -0.3295 -0.5570  0.0289
14517SOL    HW146443   4.122   6.678   8.803  0.2807 -0.4275  0.2961
14517SOL    HW246444   4.099   6.540   8.745  2.2349 -0.0650 -1.4883
14518SOL     OW46445   3.437   0.406   2.012 -0.1346 -0.3448 -0.1205
14518SOL    HW146446   3.402   0.483   2.058  0.0726 -0.1581 -0.2738
14518SOL    HW246447   3.440   0.338   2.080  0.1643 -0.0716  0.1479
14519SOL     OW46448   4.368   0.720   6.886  0.3762 -0.3061  0.1338
14519SOL    HW146449   4.406   0.734   6.973  1.9763 -0.0541 -0.5674
14519SOL    HW246450   4.389   0.800   6.837  1.1912 -1.1975 -1.0440
14520SOL     OW46451   0.217   6.225   8.282 -0.0868  0.2556 -0.4555
14520SOL    HW146452   0.236   6.301   8.227 -1.8901 -0.2639 -1.8799
14520SOL    HW246453   0.122   6.223   8.288 -0.0051 -0.7995  1.1824
14521SOL     OW46454   5.434   6.889   5.329 -0.0089  0.2305 -0.5071
14521SOL    HW146455   5.358   6.937   5.363 -0.2975 -0.1576 -0.5987
14521SOL    HW246456   5.505   6.952   5.331 -0.6171  1.0003 -1.6063
14522SOL     OW46457   0.048   7.473   7.306 -0.6783  0.5528 -0.8264
14522SOL    HW146458  -0.047   7.472   7.298 -0.5451  1.5392 -3.3055
14522SOL    HW246459   0.076   7.386   7.280 -0.9228 -0.3691  1.7036
14523SOL     OW46460   4.798   2.218   2.874  0.0312  0.2563 -0.3494
14523SOL    HW146461   4.855   2.225   2.798 -0.7577  1.5907 -0.8588
14523SOL    HW246462   4.852   2.246   2.948  0.1498  1.1497 -0.7691
14524SOL     OW46463   4.133   3.554   0.632 -0.1119 -0.0627  0.1697
14524SOL    HW146464   4.153   3.511   0.549  1.5427 -0.6231  0.8323
14524SOL    HW246465   4.108   3.483   0.691  1.3203  0.0018  0.8894
14525SOL     OW46466   4.405   8.832   9.056 -0.0547 -0.2112  0.0440
14525SOL    HW146467   4.437   8.742   9.049 -0.5576 -0.5054  1.3290
14525SOL    HW246468   4.444   8.877   8.981  0.0769 -1.5317 -0.7102
14526SOL     OW46469   9.426   9.345   8.032  0.3144 -0.1716 -0.0162
14526SOL    HW146470   9.360   9.414   8.021 -0.2894 -0.5733  0.9766
14526SOL    HW246471   9.501   9.375   7.981  0.5084  1.8180  1.3350
14527SOL     OW46472   7.339   0.590   8.876 -0.3755  0.2085 -0.6352
14527SOL    HW146473   7.295   0.578   8.961  0.3657  1.4909 -0.0418
14527SOL    HW246474   7.395   0.513   8.867  0.8309  0.8630  0.8762
14528SOL     OW46475   8.501   8.975   5.562  0.0225 -0.1788  0.0984
14528SOL    HW146476   8.457   8.941   5.484  1.4461 -1.4613 -0.1942
14528SOL    HW246477   8.461   8.928   5.635  0.2685 -0.6851 -0.0867
14529SOL     OW46478   5.709   0.776   5.458  0.8889  0.3874  0.3318
14529SOL    HW146479   5.780   0.715   5.436  1.7894  1.2741  0.6723
14529SOL    HW246480   5.734   0.810   5.544 -1.0812 -0.8903  1.4722
14530SOL     OW46481   4.443   4.496   8.475 -0.2379  0.2845  0.2534
14530SOL    HW146482   4.425   4.421   8.419  0.6781  0.1265  0.1553
14530SOL    HW246483   4.504   4.550   8.425 -0.4727  0.8303  0.5426
14531SOL     OW46484   4.852   1.127   0.889 -0.0508  0.3579 -0.3429
14531SOL    HW146485   4.846   1.114   0.983  1.3060  0.5492 -0.2030
14531SOL    HW246486   4.837   1.041   0.851 -0.8190  0.3208  0.0250
14532SOL     OW46487   7.831   4.044   4.735  0.3040  0.0092  0.3818
14532SOL    HW146488   7.804   4.092   4.657  0.9705  0.9365  0.7001
14532SOL    HW246489   7.858   4.112   4.797  1.1640 -0.7670  0.8907
14533SOL     OW46490   0.765   1.948   8.311  0.0050 -0.1556 -0.1935
14533SOL    HW146491   0.762   1.978   8.402  1.6325 -0.8532  0.1437
14533SOL    HW246492   0.856   1.964   8.285 -0.4754  0.1465 -1.7548
14534SOL     OW46493   7.189   5.131   0.631 -0.3427 -0.2005 -0.1897
14534SOL    HW146494   7.255   5.097   0.570 -1.4018  0.3444 -1.6999
14534SOL    HW246495   7.152   5.054   0.672  2.1244 -0.4854  1.7439
14535SOL     OW46496   7.696   6.710   8.241 -0.3414 -0.4594 -0.0757
14535SOL    HW146497   7.753   6.756   8.180 -1.2741  1.0848  0.1634
14535SOL    HW246498   7.755   6.673   8.306  0.5576 -1.0066 -1.1564
14536SOL     OW46499   9.569   8.383   3.284  0.1730 -0.5487 -0.3129
14536SOL    HW146500   9.483   8.412   3.313 -0.2188 -2.8073  1.0103
14536SOL    HW246501   9.559   8.369   3.189 -1.1868 -1.5908 -0.0403
14537SOL     OW46502   1.958   8.502   2.764  0.4439 -0.2644 -0.2530
14537SOL    HW146503   1.900   8.432   2.733  0.6003 -0.6656  0.3438
14537SOL    HW246504   1.956   8.567   2.694 -1.1491 -0.0230 -0.0232
14538SOL     OW46505   3.466   2.037   7.181  0.1258  0.1621  0.3525
14538SOL    HW146506   3.554   2.032   7.144 -0.2418  0.8533 -0.6448
14538SOL    HW246507   3.434   1.947   7.180  0.6729 -0.0369  0.3700
14539SOL     OW46508   1.449   8.649   1.204  0.3534  0.1471  0.0520
14539SOL    HW146509   1.372   8.705   1.191  0.2725 -0.0074 -0.1423
14539SOL    HW246510   1.434   8.606   1.288  0.2018  0.0781 -0.0100
14540SOL     OW46511   4.057   7.248   8.411 -0.0072 -0.2774  0.3393
14540SOL    HW146512   3.964   7.225   8.417 -0.4003  1.3383  0.7632
14540SOL    HW246513   4.079   7.284   8.497  0.3760  1.5096 -0.4558
14541SOL     OW46514   6.922   6.628   5.548 -0.1203  0.2045 -0.0341
14541SOL    HW146515   7.006   6.662   5.581 -0.5093  0.8791  0.2905
14541SOL    HW246516   6.908   6.677   5.466 -0.3804  0.3793  0.1129
14542SOL     OW46517   6.981   1.239   7.725 -0.0451  0.2397  0.2945
14542SOL    HW146518   7.069   1.223   7.689  0.0952  1.8747 -0.1533
14542SOL    HW246519   6.981   1.332   7.749 -1.0070 -0.1958  2.1622
14543SOL     OW46520   2.750   1.887   1.456 -0.3660  0.1350 -0.4062
14543SOL    HW146521   2.831   1.897   1.406  0.5778 -0.1896  1.0271
14543SOL    HW246522   2.681   1.904   1.391  0.8271  0.8295 -1.5629
14544SOL     OW46523   6.922   9.335   8.110 -0.1429 -0.2882 -0.1704
14544SOL    HW146524   6.877   9.353   8.193 -0.8370 -0.0005 -0.5959
14544SOL    HW246525   6.994   9.277   8.134 -0.9435 -1.0392  0.5007
14545SOL     OW46526   7.675   6.211   0.540  0.1375  0.3682 -0.2983
14545SOL    HW146527   7.663   6.183   0.449  1.2628 -0.8976 -0.0846
14545SOL    HW246528   7.713   6.299   0.533 -0.2969  0.5117 -1.0324
14546SOL     OW46529   0.113   8.891   4.821 -0.1776  0.2498 -0.3062
14546SOL    HW146530   0.024   8.924   4.833 -0.4854 -0.0097 -1.7525
14546SOL    HW246531   0.103   8.811   4.769  0.9275  0.4974 -0.9400
14547SOL     OW46532   7.679   0.748   2.661 -0.7168 -0.0400  0.5440
14547SOL    HW146533   7.617   0.772   2.593 -1.3422  0.1828  1.1799
14547SOL    HW246534   7.693   0.654   2.651 -0.5107  0.0575 -0.1216
14548SOL     OW46535   5.220   1.409   9.325  0.1583  0.7392 -0.2369
14548SOL    HW146536   5.143   1.356   9.343  0.6469  0.6863  2.1027
14548SOL    HW246537   5.185   1.492   9.291 -1.2342  1.6923  3.1095
14549SOL     OW46538   6.916   4.744   9.422 -0.0442 -0.7245 -0.3498
14549SOL    HW146539   7.008   4.767   9.412  0.3251 -1.8549  0.2811
14549SOL    HW246540   6.895   4.696   9.342 -0.0183 -0.6838 -0.3810
14550SOL     OW46541   6.504   6.498   2.119  0.2038 -0.3026 -0.4136
14550SOL    HW146542   6.584   6.540   2.087  1.2321 -1.9216 -0.0712
14550SOL    HW246543   6.488   6.426   2.058 -0.2288 -0.8217  0.2952
14551SOL     OW46544   1.555   1.762   8.693  0.0405 -0.2960 -0.1935
14551SOL    HW146545   1.537   1.790   8.603 -1.0003  1.2806  0.4480
14551SOL    HW246546   1.650   1.750   8.697 -0.0294 -1.7120 -1.8242
14552SOL     OW46547   4.881   8.510   6.267  0.5369 -0.8265 -0.5716
14552SOL    HW146548   4.875   8.415   6.255 -2.2619 -0.8240  0.0468
14552SOL    HW246549   4.804   8.544   6.221 -0.0875  0.8518  1.5654
14553SOL     OW46550   3.752   1.151   2.457  0.5178 -0.2140 -0.2779
14553SOL    HW146551   3.752   1.220   2.523  0.3810  0.8027 -1.3080
14553SOL    HW246552   3.721   1.194   2.377  0.0244 -1.5709 -0.8459
14554SOL     OW46553   5.492   0.257   1.445  0.0485  0.1746 -0.3834
14554SOL    HW146554   5.430   0.223   1.380  0.0864 -0.4121 -0.1213
14554SOL    HW246555   5.525   0.179   1.490  0.2919  0.5476  0.0980
14555SOL     OW46556   8.943   7.728   4.565  0.3808 -0.0593  0.0508
14555SOL    HW146557   8.919   7.820   4.568  0.8880  0.0760  0.0854
14555SOL    HW246558   8.867   7.684   4.527  0.6334  0.5497 -1.2221
14556SOL     OW46559   5.648   0.343   7.179  0.2442  0.0482  0.6670
14556SOL    HW146560   5.706   0.418   7.190  0.0981  0.3467 -0.4525
14556SOL    HW246561   5.562   0.381   7.166  0.3028 -0.2491 -0.7886
14557SOL     OW46562   7.960   7.416   2.356 -0.0321 -0.1757  0.1172
14557SOL    HW146563   8.010   7.489   2.393 -1.7334 -0.0575  2.3890
14557SOL    HW246564   7.912   7.455   2.283  1.6155  0.1460 -0.8487
14558SOL     OW46565   9.286   0.827   8.362  0.0181  0.6037  0.1538
14558SOL    HW146566   9.337   0.801   8.438  1.1782 -0.3400 -0.9065
14558SOL    HW246567   9.195   0.806   8.386  0.6281 -2.3474  0.2820
14559SOL     OW46568   2.359   4.798   6.691  0.2813  1.0290  0.2164
14559SOL    HW146569   2.365   4.724   6.630 -0.4337  0.4437  0.8256
14559SOL    HW246570   2.444   4.800   6.735  0.2195  0.3827  0.3838
14560SOL     OW46571   3.561   7.998   6.118  0.6867  0.3541 -0.0968
14560SOL    HW146572   3.647   7.959   6.129  0.4846 -0.2845 -0.6878
14560SOL    HW246573   3.565   8.042   6.033  0.5592  0.6805  0.0633
14561SOL     OW46574   4.675   1.781   0.149  0.1042  0.2927 -0.3717
14561SOL    HW146575   4.629   1.731   0.217  2.9278  0.5487  1.9380
14561SOL    HW246576   4.650   1.872   0.164  1.0387  0.3972  0.6773
14562SOL     OW46577   6.195   7.351   0.145  0.4798 -0.4105  0.0027
14562SOL    HW146578   6.135   7.413   0.104  0.2128 -0.7297 -0.0916
14562SOL    HW246579   6.280   7.394   0.141  0.8215 -1.1681 -2.5499
14563SOL     OW46580   8.341   5.518   1.921  0.2492  0.1980  0.2866
14563SOL    HW146581   8.378   5.554   1.840  0.9811 -0.4532  0.3123
14563SOL    HW246582   8.286   5.587   1.956  1.2836  1.1335  0.1176
14564SOL     OW46583   6.833   5.181   7.894 -0.2459 -0.2986 -0.1543
14564SOL    HW146584   6.832   5.276   7.907 -1.4862 -0.1902 -0.7990
14564SOL    HW246585   6.759   5.165   7.834  1.5300 -1.3660 -2.2002
14565SOL     OW46586   6.371   3.942   1.868 -0.0119  0.2222 -0.0735
14565SOL    HW146587   6.301   3.884   1.838  1.1149 -0.0049 -2.4049
14565SOL    HW246588   6.342   4.030   1.841  0.8073  0.0655 -1.5421
14566SOL     OW46589   4.686   7.003   3.882 -0.5052  0.0897  0.1189
14566SOL    HW146590   4.738   7.013   3.802  0.8783 -0.9135  0.8519
14566SOL    HW246591   4.641   6.919   3.870 -1.9739  0.9258 -0.4870
14567SOL     OW46592   8.176   0.871   8.402  0.4858  0.3843  0.6443
14567SOL    HW146593   8.146   0.784   8.379  0.5065  0.4905  0.2150
14567SOL    HW246594   8.249   0.889   8.342  1.9404 -0.1813  2.1468
14568SOL     OW46595   5.685   8.198   1.779  0.1026 -0.6813 -0.4906
14568SOL    HW146596   5.753   8.263   1.761  1.1130 -1.2599  1.0865
14568SOL    HW246597   5.719   8.117   1.742 -0.1062 -0.8046 -0.4126
14569SOL     OW46598   8.556   7.059   8.813 -0.2708 -0.8821  0.1670
14569SOL    HW146599   8.629   7.068   8.874 -0.1027  1.8979 -0.3080
14569SOL    HW246600   8.597   7.043   8.728 -0.2092  0.1605 -0.0113
14570SOL     OW46601   3.160   4.767   2.686  0.2675  0.1543  0.1128
14570SOL    HW146602   3.189   4.767   2.595  0.4097  1.3191  0.1405
14570SOL    HW246603   3.177   4.678   2.717 -1.1470 -0.6991 -1.4175
14571SOL     OW46604   1.414   6.330   3.524  0.4797 -0.3188  0.3795
14571SOL    HW146605   1.458   6.284   3.595  1.3295  0.3855  0.3183
14571SOL    HW246606   1.435   6.280   3.445 -0.7396 -1.2962  0.6317
14572SOL     OW46607   3.308   4.583   3.938 -0.0779  0.1059  0.1017
14572SOL    HW146608   3.323   4.660   3.994 -0.0523 -0.9507  1.6264
14572SOL    HW246609   3.271   4.518   3.998  1.5504 -1.6662 -0.7322
14573SOL     OW46610   7.992   6.203   0.415 -0.7227  0.0452  0.5151
14573SOL    HW146611   7.902   6.189   0.384 -0.7652  0.6385  0.3691
14573SOL    HW246612   8.046   6.151   0.356 -0.9834 -0.4853  0.7328
14574SOL     OW46613   5.829   3.695   6.058  0.3692  0.2918 -0.2667
14574SOL    HW146614   5.750   3.642   6.067  0.2049  0.5851  0.0325
14574SOL    HW246615   5.890   3.660   6.123  0.2885  0.4208 -0.1220
14575SOL     OW46616   5.706   7.124   0.357  0.1058  0.0221  0.1902
14575SOL    HW146617   5.797   7.151   0.350  0.3792 -1.0294 -0.5796
14575SOL    HW246618   5.674   7.123   0.267  0.0147 -1.7811  0.2109
14576SOL     OW46619   1.531   3.035   1.087  0.4026  0.3700  0.1835
14576SOL    HW146620   1.593   3.104   1.110  1.1154  0.1300 -0.9321
14576SOL    HW246621   1.575   2.953   1.111  0.9528  0.1440 -1.4653
14577SOL     OW46622   4.149   5.286   7.664 -0.0096 -0.4672 -0.4532
14577SOL    HW146623   4.121   5.194   7.666  0.9151 -0.7487  0.9046
14577SOL    HW246624   4.218   5.291   7.729 -1.9106  1.8108  1.5822
14578SOL     OW46625   3.078   0.908   1.138  0.4140 -0.2011 -0.0262
14578SOL    HW146626   3.137   0.962   1.086  0.3847  0.1745  0.3295
14578SOL    HW246627   3.094   0.934   1.229  0.4925 -0.8839  0.1604
14579SOL     OW46628   4.758   9.411   1.297  0.0759  1.1991  0.0406
14579SOL    HW146629   4.851   9.427   1.277 -0.0976  0.5967 -1.3741
14579SOL    HW246630   4.713   9.432   1.216 -1.0826  1.7752  0.8082
14580SOL     OW46631   2.117   0.721   2.795  0.3721  0.4485  0.3348
14580SOL    HW146632   2.076   0.798   2.758 -0.4952  0.3419  1.0556
14580SOL    HW246633   2.124   0.739   2.889  0.1908 -0.3299  0.5089
14581SOL     OW46634   2.394   2.584   6.586  0.0043 -0.1588 -0.1086
14581SOL    HW146635   2.489   2.597   6.591  0.1184  0.4187 -2.3726
14581SOL    HW246636   2.363   2.658   6.534 -1.5457 -0.8781 -0.2632
14582SOL     OW46637   8.364   8.638   9.095  0.4253  0.0403 -0.3101
14582SOL    HW146638   8.395   8.578   9.163 -0.6672  0.0636  0.2292
14582SOL    HW246639   8.411   8.720   9.112 -2.0067  1.0669  2.4223
14583SOL     OW46640   5.162   0.719   2.274  0.4223  0.5966 -0.3555
14583SOL    HW146641   5.170   0.807   2.238 -2.3284  0.3531 -1.8436
14583SOL    HW246642   5.198   0.662   2.207  0.2297  0.4571 -0.3398
14584SOL     OW46643   4.025   3.847   3.863  0.4523  0.5794 -0.6265
14584SOL    HW146644   4.104   3.829   3.812  0.7227  0.6277 -0.2356
14584SOL    HW246645   3.953   3.814   3.810  0.8026 -0.1616 -0.6498
14585SOL     OW46646   4.652   3.954   4.538  0.0161  0.1532 -0.3387
14585SOL    HW146647   4.564   3.972   4.504  0.5566  1.5137 -1.0768
14585SOL    HW246648   4.664   4.016   4.609  0.9121  1.0104 -1.2034
14586SOL     OW46649   0.922   5.076   2.144  0.0621  0.1003  0.2737
14586SOL    HW146650   0.930   5.134   2.219 -0.9365 -0.0032  0.4722
14586SOL    HW246651   0.960   4.993   2.173  0.8095  0.4264  0.2387
14587SOL     OW46652   4.128   5.379   0.683  0.3108  0.4982  0.3949
14587SOL    HW146653   4.045   5.331   0.684  2.0373 -2.7791 -0.0980
14587SOL    HW246654   4.190   5.321   0.727  3.0857  1.2591 -2.2066
14588SOL     OW46655   2.400   2.486   2.899  0.1136  0.1842  0.1881
14588SOL    HW146656   2.406   2.578   2.925 -2.3744  0.6160 -0.4707
14588SOL    HW246657   2.385   2.439   2.981 -0.5626  0.6232  0.3232
14589SOL     OW46658   4.653   8.318   3.168 -0.1896 -0.0322  0.2482
14589SOL    HW146659   4.653   8.414   3.168 -0.2299 -0.0304 -0.2118
14589SOL    HW246660   4.629   8.294   3.258 -0.3123  0.3863  0.3303
14590SOL     OW46661   6.514   0.311   3.565  0.1788 -0.0807  0.2767
14590SOL    HW146662   6.465   0.253   3.506 -0.6248  1.3027 -0.4616
14590SOL    HW246663   6.447   0.366   3.605  1.1086  2.4800 -1.4291
14591SOL     OW46664   3.489   4.972   1.787  0.4125  0.3400 -0.7780
14591SOL    HW146665   3.482   4.911   1.713  0.8894  0.9392 -1.3301
14591SOL    HW246666   3.492   5.059   1.746  2.0554  0.6097 -0.1518
14592SOL     OW46667   5.688   8.309   3.925 -0.4119  0.2982 -0.5378
14592SOL    HW146668   5.746   8.333   3.853  0.1318  0.8765  0.0846
14592SOL    HW246669   5.603   8.293   3.883 -0.1532  0.8236 -1.2800
14593SOL     OW46670   4.756   1.845   6.012 -0.2115  0.5275  0.5231
14593SOL    HW146671   4.713   1.797   5.941 -0.5644  0.0402  1.0611
14593SOL    HW246672   4.821   1.899   5.967 -0.4083  0.2076 -0.1730
14594SOL     OW46673   3.771   1.703   7.208 -0.0735 -0.2258 -0.2623
14594SOL    HW146674   3.731   1.678   7.125  3.3751 -1.3005 -1.7477
14594SOL    HW246675   3.775   1.622   7.258 -1.5679  0.2997  0.7907
14595SOL     OW46676   1.192   3.615   0.615 -0.1191  0.5077 -0.2080
14595SOL    HW146677   1.282   3.583   0.615 -0.4212 -0.3761 -0.5311
14595SOL    HW246678   1.180   3.655   0.529 -0.3270 -0.2565 -0.5430
14596SOL     OW46679   6.730   3.712   1.536 -0.2208  0.2433  0.0383
14596SOL    HW146680   6.675   3.641   1.569 -1.7528  1.7251  0.8107
14596SOL    HW246681   6.815   3.670   1.520 -1.2279 -1.8944 -0.1615
14597SOL     OW46682   8.975   9.253   0.743 -0.0422 -0.4408  1.2036
14597SOL    HW146683   8.994   9.347   0.747 -0.7096 -0.3208  1.6673
14597SOL    HW246684   9.061   9.212   0.744  0.2484  0.1025  2.9836
14598SOL     OW46685   1.328   8.068   3.941 -0.2495  0.0678  0.0575
14598SOL    HW146686   1.365   7.991   3.984 -0.2280  0.6916  1.1749
14598SOL    HW246687   1.383   8.141   3.969  0.1322  0.4276 -1.5100
14599SOL     OW46688   4.265   5.149   3.529 -0.0620  0.1981 -0.2271
14599SOL    HW146689   4.282   5.060   3.498 -0.4284  0.0244  0.0558
14599SOL    HW246690   4.170   5.151   3.542 -0.0298  0.5741 -0.0621
14600SOL     OW46691   6.904   5.748   5.760  0.1377  0.3008 -0.5510
14600SOL    HW146692   6.932   5.726   5.672 -0.4971  2.0288 -1.2295
14600SOL    HW246693   6.852   5.672   5.788  0.5019 -0.3504 -1.5790
14601SOL     OW46694   1.318   1.633   8.616  0.7863  0.2012 -0.2101
14601SOL    HW146695   1.338   1.545   8.646 -0.8018  0.5323  2.0917
14601SOL    HW246696   1.393   1.686   8.644  0.0017  0.2254  2.0864
14602SOL     OW46697   9.541   1.432   6.321  0.0908  0.0576 -0.3227
14602SOL    HW146698   9.464   1.376   6.308 -0.8547  1.1656  0.3868
14602SOL    HW246699   9.535   1.460   6.412  1.9310 -0.6736  0.0650
14603SOL     OW46700   1.491   2.329   7.936 -0.2820 -0.0982  0.3152
14603SOL    HW146701   1.580   2.351   7.966 -0.2245 -0.5842  0.5023
14603SOL    HW246702   1.496   2.335   7.841  0.9175 -3.5476  0.0212
14604SOL     OW46703   5.327   5.639   0.288  0.3485  0.7402 -0.2290
14604SOL    HW146704   5.413   5.596   0.278 -0.6125 -1.2298 -0.4643
14604SOL    HW246705   5.314   5.645   0.382 -0.1390 -0.9444 -0.1470
14605SOL     OW46706   6.137   3.734   7.601 -0.1519  0.4748 -0.4007
14605SOL    HW146707   6.137   3.818   7.555  1.0634 -0.1857 -1.7042
14605SOL    HW246708   6.065   3.685   7.561  1.3656 -0.3737 -2.2435
14606SOL     OW46709   1.448   0.012   6.841 -0.2523  0.0654  0.2877
14606SOL    HW146710   1.483   0.072   6.775  0.7211 -0.5011  0.2735
14606SOL    HW246711   1.467  -0.075   6.808 -0.4683 -0.2356  0.9341
14607SOL     OW46712   8.281   3.129   1.115  0.9255 -0.2317  0.3097
14607SOL    HW146713   8.272   3.150   1.208  0.7970 -1.4020  0.5659
14607SOL    HW246714   8.342   3.055   1.112 -0.0310 -1.0168 -0.4344
14608SOL     OW46715   2.312   0.043   2.406 -0.2710  0.0422  0.0332
14608SOL    HW146716   2.380   0.085   2.460  1.6285 -0.7171 -1.6363
14608SOL    HW246717   2.259  -0.006   2.469  1.0663  0.2069  1.3669
14609SOL     OW46718   6.900   6.991   3.255  0.2019 -0.5595 -0.2504
14609SOL    HW146719   6.918   6.958   3.168 -1.8018  0.7869 -1.2481
14609SOL    HW246720   6.853   6.920   3.299 -0.1033 -0.6806 -0.7756
14610SOL     OW46721   3.790   7.076   6.213  0.2559 -0.0866  0.0192
14610SOL    HW146722   3.766   7.169   6.213 -0.2969 -0.2236 -0.4358
14610SOL    HW246723   3.706   7.030   6.206  0.6063 -0.5888 -1.2212
14611SOL     OW46724   7.750   6.647   2.707  0.3538 -0.2291 -0.6174
14611SOL    HW146725   7.784   6.561   2.682  1.5534 -0.4160  1.3998
14611SOL    HW246726   7.823   6.689   2.753 -1.4364  0.2362  1.9849
14612SOL     OW46727   6.642   4.140   2.499  0.0455  0.1319  0.1879
14612SOL    HW146728   6.575   4.149   2.566 -0.6745  0.1755 -0.5246
14612SOL    HW246729   6.670   4.048   2.505 -2.3120 -0.8212 -1.5308
14613SOL     OW46730   6.102   9.080   8.758  0.3974 -0.4232  0.2873
14613SOL    HW146731   6.150   9.056   8.837  1.5884 -0.6323 -0.4693
14613SOL    HW246732   6.133   9.019   8.692 -2.0714 -1.5689  0.1050
14614SOL     OW46733   4.424   9.265   4.523  0.3585  0.0033  0.1517
14614SOL    HW146734   4.443   9.267   4.429 -0.3325 -0.9536 -0.0288
14614SOL    HW246735   4.433   9.356   4.551  1.9375  0.0974 -0.5460
14615SOL     OW46736   0.912   5.743   1.262  0.1238 -0.1957 -0.3333
14615SOL    HW146737   0.870   5.732   1.347  1.6403 -1.0650  0.3329
14615SOL    HW246738   0.911   5.655   1.223  1.1708 -0.2038 -0.3648
14616SOL     OW46739   7.425   6.726   7.112 -0.6507  0.0207  0.2245
14616SOL    HW146740   7.419   6.636   7.142 -0.6182 -0.1386 -0.2365
14616SOL    HW246741   7.438   6.778   7.192  1.3057 -0.5667  0.3455
14617SOL     OW46742   1.811   6.386   5.536 -0.7859  0.0889  0.3345
14617SOL    HW146743   1.745   6.374   5.468 -0.3602 -0.5268  0.0215
14617SOL    HW246744   1.768   6.357   5.616 -1.4249  1.1943  0.4074
14618SOL     OW46745   3.031   9.070   4.695  0.2380 -0.1300 -0.2864
14618SOL    HW146746   2.957   9.093   4.751  0.9110  0.9211  0.2107
14618SOL    HW246747   2.992   9.050   4.610 -0.5572  1.4356 -0.3277
14619SOL     OW46748   5.056   0.081   0.871  0.0818 -0.3560  0.1295
14619SOL    HW146749   5.101   0.064   0.954  1.1301  2.5777  0.2628
14619SOL    HW246750   4.994   0.151   0.892 -1.1533 -1.0257 -1.1520
14620SOL     OW46751   8.894   6.857   2.890 -0.1367  0.3114 -0.7517
14620SOL    HW146752   8.835   6.911   2.836  2.0774  0.5376 -3.1000
14620SOL    HW246753   8.975   6.908   2.895  0.5785 -0.8967  0.6746
14621SOL     OW46754   3.204   5.551   0.080  0.3734 -0.4338  0.1343
14621SOL    HW146755   3.270   5.611   0.117 -1.9936  3.0506 -0.7483
14621SOL    HW246756   3.239   5.527  -0.006  0.0414  2.5785 -0.9750
14622SOL     OW46757   1.505   1.659   4.508  0.3051  0.2304 -0.0217
14622SOL    HW146758   1.431   1.600   4.493  0.4739 -0.0227  0.1246
14622SOL    HW246759   1.490   1.733   4.449  1.3454 -1.0769 -2.0584
14623SOL     OW46760   3.465   5.345   2.802 -0.0624  0.1746 -0.7788
14623SOL    HW146761   3.372   5.371   2.800  0.0732  0.7015 -0.5080
14623SOL    HW246762   3.491   5.358   2.894 -0.2060 -1.7450 -0.4318
14624SOL     OW46763   9.544   6.508   6.169 -0.2212  0.2909 -0.1062
14624SOL    HW146764   9.501   6.424   6.154  1.1201 -0.4508  0.0261
14624SOL    HW246765   9.636   6.485   6.185  0.0248  1.7165  0.7083
14625SOL     OW46766   7.811   8.264   8.089 -0.4708 -0.3984 -0.2187
14625SOL    HW146767   7.827   8.326   8.018  2.5778 -1.2708 -0.4422
14625SOL    HW246768   7.840   8.309   8.168 -0.9448 -0.5400  0.0414
14626SOL     OW46769   9.273   7.254   1.649  0.4516  0.3872  0.1985
14626SOL    HW146770   9.194   7.234   1.700  0.4072  1.3840  0.5459
14626SOL    HW246771   9.280   7.182   1.586 -0.4250  0.0035  0.5209
14627SOL     OW46772   2.554   1.660   6.124  0.1124 -0.0082  0.0041
14627SOL    HW146773   2.625   1.725   6.120  0.1714 -0.0388  0.4858
14627SOL    HW246774   2.478   1.710   6.153  0.2427 -0.2222  0.7201
14628SOL     OW46775   9.252   0.283   3.922 -0.6014  0.4706  0.0051
14628SOL    HW146776   9.203   0.241   3.851 -0.5054  1.2290 -0.5226
14628SOL    HW246777   9.222   0.374   3.921 -3.5483 -0.2291  3.4545
14629SOL     OW46778   4.433   4.919   0.739  0.3696 -0.3732 -0.3042
14629SOL    HW146779   4.401   4.859   0.672  0.8559 -1.6743  0.5825
14629SOL    HW246780   4.527   4.927   0.721  0.6343 -1.2364  0.5427
14630SOL     OW46781   1.210   1.192   2.908  0.3594  0.2396 -0.0579
14630SOL    HW146782   1.269   1.184   2.832  0.0162 -1.7494 -0.1824
14630SOL    HW246783   1.256   1.147   2.978 -0.0843  0.5501  0.4359
14631SOL     OW46784   3.765   1.455   8.867  0.9434 -0.4194  0.2268
14631SOL    HW146785   3.810   1.418   8.943 -2.1438 -2.4620  1.2430
14631SOL    HW246786   3.682   1.486   8.901 -0.3666 -1.0098 -2.2095
14632SOL     OW46787   6.323   5.842   4.108 -0.0505 -0.1198  0.0109
14632SOL    HW146788   6.273   5.800   4.178  0.1135 -1.3260 -0.5693
14632SOL    HW246789   6.404   5.792   4.102  0.7666  1.1381  0.2000
14633SOL     OW46790   4.465   0.298   8.950  0.3301  0.6173 -0.2893
14633SOL    HW146791   4.426   0.240   8.885 -0.4888  0.6243  0.1779
14633SOL    HW246792   4.465   0.384   8.909 -1.2593  0.8502  0.1105
14634SOL     OW46793   8.553   0.887   7.318  0.0634  0.0253  0.2147
14634SOL    HW146794   8.528   0.980   7.315 -0.5230 -0.1603 -0.9603
14634SOL    HW246795   8.585   0.875   7.408 -0.6744  1.1523  0.6638
14635SOL     OW46796   4.640   8.693   6.332 -0.3976 -0.1335 -0.0306
14635SOL    HW146797   4.711   8.740   6.376  1.3557 -2.2169 -0.4759
14635SOL    HW246798   4.675   8.673   6.245 -0.5846 -3.0912  0.4685
14636SOL     OW46799   5.646   3.429   5.003 -0.0474 -0.1038  0.1923
14636SOL    HW146800   5.709   3.470   5.062  0.7605  1.2247 -1.5193
14636SOL    HW246801   5.608   3.502   4.954 -0.4628 -1.1937 -1.1612
14637SOL     OW46802   6.980   2.392   3.132 -0.4374 -0.5065 -0.2044
14637SOL    HW146803   6.917   2.354   3.071  0.9015 -3.1704 -0.0677
14637SOL    HW246804   6.968   2.344   3.213  0.5851  0.1263  0.3514
14638SOL     OW46805   4.107   2.849   0.281 -0.2490 -0.1005  0.0281
14638SOL    HW146806   4.178   2.885   0.228  0.0213  0.2858  0.6428
14638SOL    HW246807   4.142   2.766   0.314 -0.5753 -0.5493 -0.7358
14639SOL     OW46808   1.238   4.270   8.992 -0.7352  0.1761 -0.3574
14639SOL    HW146809   1.271   4.200   8.935 -1.8853 -0.8301  0.1834
14639SOL    HW246810   1.277   4.251   9.077 -0.8682  0.3284 -0.2637
14640SOL     OW46811   6.501   5.422   0.661 -0.4715 -0.2734 -0.4436
14640SOL    HW146812   6.564   5.487   0.630 -2.0897  1.8834  0.5685
14640SOL    HW246813   6.436   5.416   0.591 -0.1208 -1.1490 -0.7100
14641SOL     OW46814   5.708   0.579   6.110 -0.1702 -0.8106  0.6133
14641SOL    HW146815   5.709   0.665   6.153 -0.4069 -0.7496  0.4987
14641SOL    HW246816   5.771   0.527   6.159 -0.0505 -0.5806  0.7056
14642SOL     OW46817   6.263   8.508   2.513  0.0246 -0.1674  0.1687
14642SOL    HW146818   6.300   8.596   2.507 -3.3506  1.3726 -0.4363
14642SOL    HW246819   6.248   8.494   2.606  0.8433 -0.2759  0.2948
14643SOL     OW46820   9.600   6.335   3.716  0.3587 -0.1455  0.0332
14643SOL    HW146821   9.579   6.260   3.772 -0.1284 -0.0904 -0.0692
14643SOL    HW246822   9.515   6.365   3.684  0.5249  0.6179  0.2881
14644SOL     OW46823   3.083   2.292   0.674  0.3275  0.5274 -0.6732
14644SOL    HW146824   3.140   2.215   0.679 -0.2051  0.1791  3.1018
14644SOL    HW246825   3.140   2.366   0.698 -0.2449  0.4357  1.1946
14645SOL     OW46826   6.176   6.577   4.987  0.3439 -0.0178 -0.3590
14645SOL    HW146827   6.177   6.673   4.992 -1.0881 -0.0375  0.6896
14645SOL    HW246828   6.240   6.557   4.919  0.8269  1.6716 -0.4604
14646SOL     OW46829   7.105   7.632   2.186 -0.3195 -0.3996 -0.5728
14646SOL    HW146830   7.158   7.628   2.266 -0.5899 -1.0399 -0.4177
14646SOL    HW246831   7.139   7.707   2.139  1.2896 -1.2703 -0.8621
14647SOL     OW46832   4.833   1.716   4.329 -0.0159 -0.3754  0.1899
14647SOL    HW146833   4.742   1.721   4.359  0.4577  0.5423  1.5737
14647SOL    HW246834   4.861   1.627   4.351 -0.5140 -0.5945 -0.0599
14648SOL     OW46835   4.024   8.636   7.606 -0.3978  0.4773 -0.3032
14648SOL    HW146836   4.027   8.600   7.518 -0.4202  0.6761 -0.3861
14648SOL    HW246837   4.112   8.624   7.641  0.2622  2.4050 -1.1593
14649SOL     OW46838   4.130   8.470   7.006  0.2205 -0.3682 -0.4015
14649SOL    HW146839   4.199   8.535   7.001 -0.0322 -0.0524  0.1498
14649SOL    HW246840   4.173   8.391   7.038 -0.1801  0.6701  3.1809
14650SOL     OW46841   1.421   8.552   5.374  0.1328  0.3373 -0.2322
14650SOL    HW146842   1.359   8.542   5.446 -0.2058  0.8535 -0.4403
14650SOL    HW246843   1.469   8.632   5.395 -2.5728  2.7703 -2.3977
14651SOL     OW46844   5.546   0.443   4.615 -0.1277 -0.1643 -0.1616
14651SOL    HW146845   5.618   0.491   4.574 -0.3700 -0.9319 -1.5520
14651SOL    HW246846   5.523   0.495   4.692  2.1568 -0.1013  0.5575
14652SOL     OW46847   5.483   8.119   0.650 -0.1650  0.0043 -0.1819
14652SOL    HW146848   5.471   8.201   0.601 -1.3267 -0.5394 -0.8626
14652SOL    HW246849   5.416   8.122   0.718 -1.8063 -1.3501 -1.6195
14653SOL     OW46850   4.536   3.660   7.263 -0.4716  0.4140  0.3252
14653SOL    HW146851   4.481   3.602   7.211 -0.1345 -0.0665  0.4942
14653SOL    HW246852   4.506   3.647   7.353  0.0971 -0.0622  0.4524
14654SOL     OW46853   9.089   0.785   3.189 -0.0079 -0.2759 -0.0680
14654SOL    HW146854   9.143   0.828   3.123  0.7567  1.6866  1.7344
14654SOL    HW246855   9.084   0.694   3.160 -0.0217  0.5626 -2.9878
14655SOL     OW46856   9.575   4.730   5.305  0.1885  0.3306  0.2403
14655SOL    HW146857   9.520   4.682   5.244  0.7044 -0.2605  0.2289
14655SOL    HW246858   9.515   4.761   5.373  0.0210 -1.4900  0.9780
14656SOL     OW46859   8.185   2.115   1.803  0.5744  0.2946 -0.0888
14656SOL    HW146860   8.103   2.099   1.850  1.5378 -0.6364  1.3779
14656SOL    HW246861   8.235   2.035   1.816  1.7580  0.8774 -0.9030
14657SOL     OW46862   7.226   4.838   6.506  0.3385 -0.2270 -0.7508
14657SOL    HW146863   7.276   4.784   6.444  2.4015  1.1047 -0.3350
14657SOL    HW246864   7.243   4.928   6.479  0.7272  0.3665  1.2887
14658SOL     OW46865   5.619   0.159   0.465 -0.1624 -0.2623 -0.2785
14658SOL    HW146866   5.594   0.068   0.482  0.0801 -0.5999 -1.6402
14658SOL    HW246867   5.674   0.184   0.539 -0.3103 -1.1943  0.1497
14659SOL     OW46868   8.668   0.988   2.212  0.1216  0.3345 -0.6945
14659SOL    HW146869   8.596   1.003   2.150 -1.3576 -0.4221  0.7595
14659SOL    HW246870   8.670   1.066   2.266  0.1253  0.1925 -0.4892
14660SOL     OW46871   9.118   3.046   1.326  0.0241 -0.1110 -0.1051
14660SOL    HW146872   9.070   3.090   1.256  0.8757  0.0190 -0.6312
14660SOL    HW246873   9.051   3.013   1.385 -0.6961  0.1693 -0.7548
14661SOL     OW46874   1.958   8.683   0.704  0.7258  0.2836 -0.0998
14661SOL    HW146875   1.965   8.774   0.673 -1.7030  0.7834  0.6370
14661SOL    HW246876   1.979   8.689   0.797  3.2202 -0.4340 -0.5265
14662SOL     OW46877   3.832   5.652   2.858 -0.6852  0.4174  0.5049
14662SOL    HW146878   3.835   5.594   2.934 -2.4159 -0.4577 -0.0344
14662SOL    HW246879   3.783   5.729   2.888 -0.9868  0.2647  0.4119
14663SOL     OW46880   8.391   8.398   3.668  0.2422  0.2611  0.1132
14663SOL    HW146881   8.407   8.456   3.593 -2.2038  1.3211  0.3009
14663SOL    HW246882   8.340   8.326   3.631  2.2173 -1.2111  0.1206
14664SOL     OW46883   6.915   5.785   8.803 -0.3390 -0.3109 -0.2124
14664SOL    HW146884   6.916   5.770   8.898 -1.1483 -1.8729 -0.4140
14664SOL    HW246885   6.962   5.710   8.767 -1.5963 -0.6955 -1.1268
14665SOL     OW46886   0.681   7.064   3.333 -0.1416  0.4999 -0.1202
14665SOL    HW146887   0.744   7.136   3.329  2.0238 -1.2881 -0.6968
14665SOL    HW246888   0.623   7.078   3.259 -1.4003  2.9570  1.2172
14666SOL     OW46889   1.444   5.207   4.943 -0.6190  0.5555  0.0681
14666SOL    HW146890   1.485   5.212   4.857 -1.9798  0.0008 -0.6332
14666SOL    HW246891   1.364   5.259   4.935 -1.4542 -0.6170  0.5645
14667SOL     OW46892   2.615   3.590   3.144 -0.1109  0.2709 -0.4278
14667SOL    HW146893   2.552   3.659   3.163  0.3336  0.8990 -1.1546
14667SOL    HW246894   2.699   3.636   3.139  0.4462 -0.5895  0.7730
14668SOL     OW46895   5.752   7.951   1.609 -0.2456  0.0861  0.3083
14668SOL    HW146896   5.800   7.876   1.574 -0.5748  0.1079 -0.2094
14668SOL    HW246897   5.693   7.976   1.538  0.3750  1.2970  0.1937
14669SOL     OW46898   3.299   7.873   6.955  0.5698  0.0397 -0.6080
14669SOL    HW146899   3.341   7.955   6.929 -0.1183  0.5993  0.0048
14669SOL    HW246900   3.353   7.840   7.026 -0.0568  0.8010  0.2376
14670SOL     OW46901   6.553   5.621   2.927 -0.3298 -0.2250 -0.3950
14670SOL    HW146902   6.544   5.687   2.996 -0.0770  0.7143 -1.2338
14670SOL    HW246903   6.640   5.583   2.940  1.2702  2.4690 -2.2814
14671SOL     OW46904   1.737   2.800   4.459  0.0149  0.4328  0.2965
14671SOL    HW146905   1.682   2.750   4.398 -0.1779  0.2032  0.6569
14671SOL    HW246906   1.805   2.839   4.403 -0.1184  0.1677 -0.0566
14672SOL     OW46907   9.140   4.602   7.721 -0.6497  0.1245 -0.4129
14672SOL    HW146908   9.170   4.609   7.811 -0.9101 -0.2673 -0.2955
14672SOL    HW246909   9.106   4.690   7.700  2.4172  1.2395 -1.2210
14673SOL     OW46910   4.153   9.375   6.448 -0.1748  0.5641 -0.3073
14673SOL    HW146911   4.181   9.285   6.431 -1.4293 -0.0291  0.5503
14673SOL    HW246912   4.206   9.403   6.522 -0.2794  0.2679 -0.1181
14674SOL     OW46913   2.704   6.241   5.853 -0.1143 -0.0400  0.6772
14674SOL    HW146914   2.761   6.174   5.889  0.5629  0.9785  1.5876
14674SOL    HW246915   2.753   6.323   5.865 -0.0750  0.4267 -2.1235
14675SOL     OW46916   6.081   6.795   3.627  0.1920 -0.1134 -0.3032
14675SOL    HW146917   6.156   6.855   3.623 -0.4826  0.8944  1.3449
14675SOL    HW246918   6.064   6.773   3.535  0.9513  1.6385 -0.9170
14676SOL     OW46919   5.381   8.386   6.475 -0.5716 -0.0793 -0.3828
14676SOL    HW146920   5.314   8.405   6.410 -0.8815 -2.4458 -0.8540
14676SOL    HW246921   5.332   8.372   6.556 -0.7204 -1.9380 -0.7556
14677SOL     OW46922   4.313   5.698   7.007 -0.1537 -0.5404  0.3272
14677SOL    HW146923   4.362   5.758   6.951 -1.6807  1.2892  0.8151
14677SOL    HW246924   4.373   5.627   7.026  1.6480  0.6832 -0.5607
14678SOL     OW46925   0.317   8.832   0.618 -0.5658  0.1231 -0.4213
14678SOL    HW146926   0.256   8.861   0.550 -0.0806  0.0010 -0.9242
14678SOL    HW246927   0.300   8.738   0.627  0.4148 -0.1801 -1.4967
14679SOL     OW46928   0.628   1.635   3.539 -0.6947  0.2581  0.4533
14679SOL    HW146929   0.547   1.663   3.583 -1.7639 -2.0679  0.0743
14679SOL    HW246930   0.599   1.598   3.456  0.4953 -2.4189  1.1281
14680SOL     OW46931   5.808   2.177   3.369 -0.4287 -0.6852 -0.7377
14680SOL    HW146932   5.882   2.123   3.396 -0.1512 -0.1692 -0.4634
14680SOL    HW246933   5.841   2.227   3.294  0.1175  0.9404  0.5308
14681SOL     OW46934   4.128   4.823   1.865  0.5747 -0.2473 -0.1895
14681SOL    HW146935   4.190   4.822   1.937 -0.1937 -2.0848  0.5056
14681SOL    HW246936   4.155   4.750   1.809 -0.3460 -0.4310 -0.4108
14682SOL     OW46937   5.112   6.139   6.788  0.0272 -0.0034 -0.0780
14682SOL    HW146938   5.125   6.231   6.765 -1.4170  0.3136  0.3018
14682SOL    HW246939   5.066   6.141   6.872 -0.4266 -1.0562 -0.2815
14683SOL     OW46940   8.015   1.151   3.766 -0.5116 -0.2694 -0.0811
14683SOL    HW146941   7.935   1.119   3.809 -1.4861  1.8398 -0.1846
14683SOL    HW246942   8.056   1.208   3.831  1.3246 -1.8337  0.2080
14684SOL     OW46943   0.278   9.496   6.856 -0.0821  0.0691  0.6146
14684SOL    HW146944   0.275   9.467   6.765 -1.5577  1.5997  0.1153
14684SOL    HW246945   0.348   9.560   6.859 -1.8377  2.1516 -0.2107
14685SOL     OW46946   7.953   0.926   4.873 -0.3818  0.3191 -0.1616
14685SOL    HW146947   8.012   0.948   4.945 -1.3747 -0.4456  0.9299
14685SOL    HW246948   8.007   0.874   4.813  0.5916  1.3953 -0.2489
14686SOL     OW46949   0.624   3.091   0.122  0.0423  0.3377 -0.9150
14686SOL    HW146950   0.652   3.005   0.154 -0.2644 -0.0321 -1.6051
14686SOL    HW246951   0.622   3.146   0.200 -1.2072 -0.6741 -0.1751
14687SOL     OW46952   8.832   5.995   9.002  0.2490  0.0639 -0.3768
14687SOL    HW146953   8.894   5.963   9.067 -0.0281 -1.5982 -0.8848
14687SOL    HW246954   8.824   5.923   8.939 -1.9351  0.3520 -0.4979
14688SOL     OW46955   3.772   2.931   2.882 -0.0180  0.2526 -0.0676
14688SOL    HW146956   3.705   2.998   2.868 -1.0446 -0.6973  0.1249
14688SOL    HW246957   3.738   2.853   2.838  0.3826 -0.5869  1.0455
14689SOL     OW46958   4.689   0.191   8.283  0.2161 -0.4226  1.2845
14689SOL    HW146959   4.642   0.157   8.208  2.3625  0.2303 -0.4544
14689SOL    HW246960   4.707   0.282   8.262  4.0796 -1.1143  0.7348
14690SOL     OW46961   6.334   9.335   2.154 -0.2953 -0.0315 -0.0970
14690SOL    HW146962   6.421   9.304   2.177 -0.8852 -1.1782  0.7461
14690SOL    HW246963   6.299   9.269   2.095 -0.2068  0.9812 -1.3169
14691SOL     OW46964   8.924   6.247   7.824 -0.8077 -0.3571  0.1790
14691SOL    HW146965   8.976   6.312   7.777 -0.4356 -0.7518  0.0314
14691SOL    HW246966   8.924   6.171   7.767 -1.2161 -0.4975  0.3621
14692SOL     OW46967   0.753   5.712   6.116 -0.0465  0.6073  0.1169
14692SOL    HW146968   0.775   5.619   6.118 -2.2966 -0.0084  2.9590
14692SOL    HW246969   0.798   5.750   6.192 -1.1684  1.2569  0.4826
14693SOL     OW46970   1.181   5.177   2.930 -0.1493  0.0721  1.1762
14693SOL    HW146971   1.164   5.168   3.024  0.1438  0.9620  1.3275
14693SOL    HW246972   1.194   5.271   2.917  1.9357 -0.2511  0.6204
14694SOL     OW46973   1.286   1.641   2.736  0.0693  0.0712 -0.0265
14694SOL    HW146974   1.327   1.637   2.650 -1.6386  0.2762 -0.8925
14694SOL    HW246975   1.342   1.699   2.787  0.6700  0.6026 -1.2566
14695SOL     OW46976   3.534   6.115   8.890 -0.0509  0.1876 -0.0903
14695SOL    HW146977   3.495   6.180   8.832  0.1193  0.8320  0.5123
14695SOL    HW246978   3.473   6.041   8.887 -1.1459  1.0322  0.5518
14696SOL     OW46979   9.586   0.236   7.318  0.1296  0.0012 -0.1655
14696SOL    HW146980   9.566   0.327   7.296 -0.9691  0.0953  1.0858
14696SOL    HW246981   9.501   0.193   7.322  0.6362 -1.0601 -0.6242
14697SOL     OW46982   3.744   0.680   8.185 -0.7003 -0.1425  0.3844
14697SOL    HW146983   3.722   0.707   8.274 -1.0626 -0.8061  0.5067
14697SOL    HW246984   3.743   0.584   8.189 -2.8060 -0.2089 -0.8423
14698SOL     OW46985   5.704   7.694   4.821 -0.4450 -0.3091  0.1962
14698SOL    HW146986   5.727   7.650   4.903 -0.7079 -1.3677 -0.2763
14698SOL    HW246987   5.677   7.622   4.763 -2.5553  0.6185 -0.0624
14699SOL     OW46988   7.587   7.561   0.788  0.1674 -0.2843  0.7035
14699SOL    HW146989   7.639   7.572   0.867  0.8562 -0.4890  0.2913
14699SOL    HW246990   7.652   7.551   0.718 -0.4147 -1.5677  0.3188
14700SOL     OW46991   4.910   7.561   5.596  0.0948  0.4337  0.0934
14700SOL    HW146992   4.890   7.645   5.555 -0.6363 -0.6012 -1.8259
14700SOL    HW246993   4.828   7.512   5.593  0.8641 -0.9017 -0.2724
14701SOL     OW46994   8.640   2.807   8.438  0.2428 -0.4186 -0.7249
14701SOL    HW146995   8.624   2.727   8.388  1.8706 -1.3085  0.1051
14701SOL    HW246996   8.725   2.838   8.406  1.5608 -1.2523  1.6819
14702SOL     OW46997   3.142   8.890   5.736  0.2959  0.0578 -0.3619
14702SOL    HW146998   3.202   8.945   5.787  1.5596 -2.0843  0.5749
14702SOL    HW246999   3.124   8.815   5.792  0.5471 -1.6733 -2.4689
14703SOL     OW47000   8.515   4.248   8.719 -0.3601  0.7481 -0.4323
14703SOL    HW147001   8.545   4.302   8.646 -1.9671  0.4893 -1.3156
14703SOL    HW247002   8.456   4.306   8.769 -1.0787  0.2225 -0.6601
14704SOL     OW47003   9.436   5.231   1.800 -0.3659  0.2803 -0.2855
14704SOL    HW147004   9.504   5.278   1.848  0.8167 -0.7421 -0.9089
14704SOL    HW247005   9.427   5.280   1.718 -0.4318  0.4594 -0.1716
14705SOL     OW47006   9.136   1.912   5.207 -0.1723 -0.0180  0.1583
14705SOL    HW147007   9.211   1.971   5.214 -0.6486  0.8598 -1.5170
14705SOL    HW247008   9.063   1.970   5.185 -0.8818 -1.1142 -0.4190
14706SOL     OW47009   3.014   3.022   0.413  0.0462 -0.0096 -0.1282
14706SOL    HW147010   2.998   2.934   0.380  0.6240  0.2080 -1.0312
14706SOL    HW247011   2.933   3.070   0.394 -0.3621 -0.4007  0.5919
14707SOL     OW47012   3.249   3.842   7.447  0.4076  0.3305 -0.3229
14707SOL    HW147013   3.261   3.788   7.525  1.4430  1.2447  0.1746
14707SOL    HW247014   3.157   3.868   7.450 -0.4379 -2.1931 -1.1382
14708SOL     OW47015   3.907   2.787   1.865 -0.0855 -0.0009 -0.4719
14708SOL    HW147016   3.974   2.848   1.898  0.0429 -0.5406  0.3186
14708SOL    HW247017   3.866   2.833   1.792 -0.0679  1.0820  0.1654
14709SOL     OW47018   1.465   8.326   7.179  0.3890  0.4960 -0.6767
14709SOL    HW147019   1.382   8.356   7.214 -0.2547 -0.8185 -1.0230
14709SOL    HW247020   1.493   8.256   7.238  0.3577 -0.2622 -1.5206
14710SOL     OW47021   3.592   9.010   5.849 -0.1808 -0.2906  0.6246
14710SOL    HW147022   3.498   9.002   5.866 -0.5402 -1.1013 -1.4622
14710SOL    HW247023   3.598   9.036   5.757  1.6364  1.3732  1.1316
14711SOL     OW47024   5.677   7.396   0.484 -0.8878  0.0694  0.0310
14711SOL    HW147025   5.672   7.322   0.424 -0.1604 -0.4189  0.5562
14711SOL    HW247026   5.639   7.469   0.435  1.6887  0.2456 -1.9298
14712SOL     OW47027   8.079   4.740   7.125  0.2475 -0.2576  0.0935
14712SOL    HW147028   8.142   4.731   7.054 -0.3670  1.0479 -0.6540
14712SOL    HW247029   8.017   4.807   7.094 -0.3838 -0.1038  1.5982
14713SOL     OW47030   8.250   8.549   1.240 -0.6901 -0.1500 -0.0379
14713SOL    HW147031   8.217   8.566   1.152 -1.0143  0.0461  0.1206
14713SOL    HW247032   8.197   8.604   1.297  0.5968  0.9653  0.1245
14714SOL     OW47033   2.342   6.429   2.385 -0.1128 -0.4695  0.4096
14714SOL    HW147034   2.395   6.384   2.319  1.8066  1.4345  0.5266
14714SOL    HW247035   2.352   6.377   2.464  1.2612 -0.4044  0.3040
14715SOL     OW47036   4.539   9.452   6.485 -0.4455 -0.3229 -0.1075
14715SOL    HW147037   4.596   9.439   6.561 -1.3494 -1.1083  0.4606
14715SOL    HW247038   4.561   9.379   6.427 -0.0304  0.0558 -0.4280
14716SOL     OW47039   7.137   9.602   1.078  0.0034 -0.3883 -0.3770
14716SOL    HW147040   7.130   9.655   1.157 -4.1818  0.7631 -1.2371
14716SOL    HW247041   7.129   9.512   1.109 -0.2228 -0.0323  0.6274
14717SOL     OW47042   4.161   9.194   6.817  0.0556  0.5341  0.0068
14717SOL    HW147043   4.173   9.280   6.779 -1.3620  1.1152  0.7990
14717SOL    HW247044   4.072   9.169   6.792  0.7470 -1.1191 -0.9770
14718SOL     OW47045   7.593   8.986   9.599 -0.4112  0.9435  0.4917
14718SOL    HW147046   7.669   8.945   9.556 -1.8123  0.6439 -1.9295
14718SOL    HW247047   7.628   9.067   9.636  1.1934  0.5753 -0.0952
14719SOL     OW47048   2.498   4.944   4.707  0.7131 -0.0278  0.0912
14719SOL    HW147049   2.454   5.025   4.731  0.2514 -0.4884  0.8438
14719SOL    HW247050   2.585   4.951   4.746  0.3231 -0.3255  1.0298
14720SOL     OW47051   3.682   8.123   8.863 -0.4745 -0.5633  0.3416
14720SOL    HW147052   3.742   8.188   8.826 -1.0164 -0.1713  0.1368
14720SOL    HW247053   3.727   8.040   8.851  0.2714 -0.2247  0.6925
14721SOL     OW47054   5.234   6.947   4.860  0.0597  0.2207  1.0303
14721SOL    HW147055   5.194   7.033   4.872  0.0425  0.1965  1.1434
14721SOL    HW247056   5.161   6.886   4.854  0.0886  0.1132  1.7205
14722SOL     OW47057   3.413   4.729   5.350  0.1547 -0.1987  0.2404
14722SOL    HW147058   3.396   4.722   5.444  2.5593 -0.5539  0.7132
14722SOL    HW247059   3.497   4.775   5.344 -1.0112  1.8694 -1.8510
14723SOL     OW47060   5.313   4.803   5.027 -0.5056 -0.3564  0.0937
14723SOL    HW147061   5.281   4.812   5.117 -1.9457 -1.6586 -0.2331
14723SOL    HW247062   5.317   4.708   5.013  2.8882 -0.2587 -0.1892
14724SOL     OW47063   2.106   7.756   4.624  0.4576 -0.1536  0.2177
14724SOL    HW147064   2.054   7.713   4.692 -1.1037 -0.1240 -0.9082
14724SOL    HW247065   2.125   7.686   4.561 -2.4718  0.7342 -1.8570
14725SOL     OW47066   1.820   0.157   3.895 -0.2339 -0.5040 -0.1072
14725SOL    HW147067   1.739   0.208   3.893 -1.0111 -1.7102 -1.9876
14725SOL    HW247068   1.872   0.198   3.964 -3.1772 -0.8500  2.5384
14726SOL     OW47069   3.637   3.687   7.944  0.6662 -0.1947 -0.2629
14726SOL    HW147070   3.711   3.668   8.003  1.2905  0.9979 -0.6244
14726SOL    HW247071   3.647   3.780   7.923 -0.5385 -0.1918 -0.8969
14727SOL     OW47072   9.409   1.803   0.544  0.2749  0.1789 -0.3240
14727SOL    HW147073   9.330   1.852   0.565  0.4828  0.0356  0.9146
14727SOL    HW247074   9.472   1.830   0.611  0.7395 -0.9463 -0.2836
14728SOL     OW47075   9.225   7.079   6.399 -0.0610  0.3394 -0.0750
14728SOL    HW147076   9.272   7.063   6.317 -1.0653  2.0835 -1.0543
14728SOL    HW247077   9.137   7.045   6.382  0.2519 -1.1097  1.0337
14729SOL     OW47078   9.477   9.438   6.170  0.4082 -0.5074  0.6343
14729SOL    HW147079   9.472   9.358   6.223 -0.1973 -0.8674  0.0591
14729SOL    HW247080   9.539   9.416   6.101  0.7530 -0.2428  0.8584
14730SOL     OW47081   7.331   5.668   6.228  0.2118  0.2369  0.3422
14730SOL    HW147082   7.330   5.655   6.133  0.1957 -1.3003  0.5321
14730SOL    HW247083   7.316   5.581   6.265  2.1763  0.4227  1.7735
14731SOL     OW47084   0.344   3.617   6.441 -0.2780 -0.0976 -0.3525
14731SOL    HW147085   0.327   3.700   6.486 -0.0212  0.4551 -1.2508
14731SOL    HW247086   0.411   3.639   6.376  1.4165 -1.4603  0.8144
14732SOL     OW47087   5.944   8.370   4.265  0.3876 -0.4770 -0.0716
14732SOL    HW147088   5.942   8.285   4.310 -0.4802  0.8678  2.6448
14732SOL    HW247089   6.030   8.372   4.224  0.9858 -2.1106  0.9719
14733SOL     OW47090   4.817   8.454   2.219 -1.1323  0.0110  0.2616
14733SOL    HW147091   4.865   8.449   2.301  0.6951  2.0739 -0.5978
14733SOL    HW247092   4.769   8.537   2.224 -0.8901  0.2326 -0.7835
14734SOL     OW47093   8.434   3.036   6.104  0.1546  0.0087 -0.0673
14734SOL    HW147094   8.375   3.048   6.029 -1.0401 -1.2724  0.6399
14734SOL    HW247095   8.426   2.944   6.127 -0.5219  0.6261  2.4656
14735SOL     OW47096   2.641   2.816   7.622  0.0542  0.2718  0.1125
14735SOL    HW147097   2.725   2.845   7.657  0.7224 -1.0211 -0.3493
14735SOL    HW247098   2.628   2.871   7.544  2.3992 -1.9690 -2.0648
14736SOL     OW47099   2.769   2.938   8.432 -0.3021 -0.0189 -0.3866
14736SOL    HW147100   2.685   2.979   8.448 -1.0702 -1.7378  0.1871
14736SOL    HW247101   2.832   2.993   8.479 -1.2915  0.4621  0.4139
14737SOL     OW47102   1.223   6.858   8.660 -0.2735 -0.1570  0.4617
14737SOL    HW147103   1.197   6.926   8.723  0.7056  2.0463 -1.3721
14737SOL    HW247104   1.235   6.780   8.714  0.0747  1.4804  2.9584
14738SOL     OW47105   8.410   0.834   5.660 -0.4076 -0.4423  0.4815
14738SOL    HW147106   8.393   0.781   5.582 -0.6588 -0.5018  0.5759
14738SOL    HW247107   8.453   0.775   5.721  0.8788 -0.0835 -0.0537
14739SOL     OW47108   1.385   1.734   6.612  0.4630 -0.0268  0.2443
14739SOL    HW147109   1.464   1.768   6.655  0.7992  0.8454 -1.0185
14739SOL    HW247110   1.410   1.646   6.583  0.1424 -0.7480  2.0172
14740SOL     OW47111   4.018   4.125   8.427 -0.2389 -0.4452 -0.4189
14740SOL    HW147112   4.007   4.137   8.521 -2.0171  0.0599 -0.6531
14740SOL    HW247113   4.086   4.187   8.402 -1.1590  0.8648  0.2426
14741SOL     OW47114   9.523   3.393   2.384  0.3099 -0.5895 -0.1363
14741SOL    HW147115   9.579   3.398   2.307 -0.2281 -1.7450 -0.6224
14741SOL    HW247116   9.437   3.368   2.350 -0.2473  0.0997  0.7110
14742SOL     OW47117   5.392   4.377   2.382  0.1059 -0.1485 -0.7262
14742SOL    HW147118   5.456   4.446   2.362 -0.4119  0.5331 -0.0982
14742SOL    HW247119   5.399   4.365   2.476 -1.6615  0.9515 -0.4071
14743SOL     OW47120   3.109   7.595   0.248  0.4349 -0.1128 -0.1503
14743SOL    HW147121   3.175   7.659   0.274  1.3584 -0.4223 -1.6050
14743SOL    HW247122   3.067   7.634   0.171 -1.2945  0.2043  0.9208
14744SOL     OW47123   2.626   2.166   3.221  0.1182  0.0800 -0.4954
14744SOL    HW147124   2.651   2.239   3.165 -0.1241 -0.1054 -0.8458
14744SOL    HW247125   2.538   2.142   3.192 -1.3803  2.0175  1.9905
14745SOL     OW47126   3.801   0.388   2.828 -0.0364 -0.1781 -0.0372
14745SOL    HW147127   3.872   0.329   2.852  0.8119  1.7528  2.6643
14745SOL    HW247128   3.796   0.383   2.733  0.3921 -4.0207 -0.0075
14746SOL     OW47129   2.610   0.601   4.396  0.3852 -0.7839  0.0322
14746SOL    HW147130   2.657   0.520   4.417  0.6472 -0.3465  1.1717
14746SOL    HW247131   2.535   0.572   4.344  1.3525 -1.5943 -0.9668
14747SOL     OW47132   9.618   4.977   0.080 -0.0154 -0.2151  0.2766
14747SOL    HW147133   9.629   4.922   0.002  3.3257  1.5827 -0.6875
14747SOL    HW247134   9.548   5.038   0.056 -2.5153 -2.6501  0.7014
14748SOL     OW47135   6.091   1.795   2.516 -0.4468  0.3993  0.5905
14748SOL    HW147136   6.042   1.865   2.471 -0.3450  0.7816  1.0601
14748SOL    HW247137   6.121   1.738   2.446 -1.3043  0.3274  0.2605
14749SOL     OW47138   7.693   2.900   5.987 -0.1765 -0.1033 -0.7571
14749SOL    HW147139   7.671   2.808   6.005  0.2662  0.2854  2.4938
14749SOL    HW247140   7.665   2.914   5.897 -3.5370 -2.4545 -0.2790
14750SOL     OW47141   4.651   3.377   0.155  0.4008 -0.3686 -0.2083
14750SOL    HW147142   4.570   3.411   0.117 -1.9247 -1.1499  3.4745
14750SOL    HW247143   4.691   3.325   0.085 -2.1915  0.2097 -2.2507
14751SOL     OW47144   7.859   9.372   9.543 -0.0686 -0.0856 -0.2180
14751SOL    HW147145   7.875   9.405   9.631 -0.0489 -0.6720  0.0072
14751SOL    HW247146   7.945   9.339   9.514  0.2581  1.4082 -1.0303
14752SOL     OW47147   0.615   5.490   7.931  0.8444  0.3251 -0.4669
14752SOL    HW147148   0.596   5.542   8.009 -2.2592 -1.8241  0.4005
14752SOL    HW247149   0.531   5.481   7.886  1.8970 -1.2088 -2.3121
14753SOL     OW47150   2.550   8.459   9.143 -0.2483 -0.1327 -0.2644
14753SOL    HW147151   2.464   8.493   9.166  0.2399  0.6927  0.4228
14753SOL    HW247152   2.553   8.466   9.048  0.4075  3.4581 -0.1524
14754SOL     OW47153   0.647   3.138   5.121  0.0311  0.2888 -0.1679
14754SOL    HW147154   0.665   3.208   5.058 -0.2249  0.4539 -0.0598
14754SOL    HW247155   0.561   3.105   5.096  0.2937 -0.2132 -0.4223
14755SOL     OW47156   6.053   6.746   9.026  0.2604 -0.0369 -0.2535
14755SOL    HW147157   6.119   6.703   8.973  1.0074  0.6782  0.0751
14755SOL    HW247158   5.970   6.727   8.982  0.7790 -0.1242 -1.2100
14756SOL     OW47159   0.376   6.243   5.562 -0.1089  0.5793  0.2239
14756SOL    HW147160   0.292   6.281   5.538 -0.1220  0.1062 -0.5102
14756SOL    HW247161   0.421   6.229   5.479  0.3325 -0.0100  0.5506
14757SOL     OW47162   0.805   4.012   5.183  0.1708  0.2775  0.2228
14757SOL    HW147163   0.882   4.066   5.166  0.1503  1.0140  2.2527
14757SOL    HW247164   0.740   4.072   5.218 -1.5676 -0.2430 -1.8689
14758SOL     OW47165   3.933   2.532   0.645 -0.8284  0.0306 -0.3154
14758SOL    HW147166   3.867   2.588   0.602 -0.6050  0.3245 -0.2793
14758SOL    HW247167   4.016   2.560   0.608 -0.7619 -0.6220 -0.6567
14759SOL     OW47168   1.804   6.834   6.560 -0.4584 -0.2673  0.3994
14759SOL    HW147169   1.752   6.812   6.638  0.3164 -1.6753  0.5592
14759SOL    HW247170   1.833   6.923   6.575 -0.1293 -0.5914  1.8545
14760SOL     OW47171   9.248   8.899   9.630  0.2512 -0.5778 -0.0135
14760SOL    HW147172   9.323   8.943   9.590 -1.0235 -0.5823 -2.5712
14760SOL    HW247173   9.219   8.959   9.699  0.2590  1.3334 -1.5780
14761SOL     OW47174   6.795   6.428   5.644  0.2145  0.3275  0.1278
14761SOL    HW147175   6.846   6.503   5.613  0.8938  0.2797  1.0947
14761SOL    HW247176   6.843   6.351   5.613  0.1280  0.2893  0.0887
14762SOL     OW47177   6.403   6.839   4.762 -0.5934 -0.2084 -0.2667
14762SOL    HW147178   6.458   6.886   4.699 -1.3569 -0.9225 -1.5209
14762SOL    HW247179   6.435   6.748   4.759 -2.2342 -0.8021 -1.5721
14763SOL     OW47180   1.093   0.298   1.041 -0.7949  0.5878 -0.0369
14763SOL    HW147181   1.112   0.239   1.114 -1.0554  0.8376  0.2350
14763SOL    HW247182   1.042   0.245   0.979  1.0480 -0.2043 -0.9466
14764SOL     OW47183   5.776   3.858   7.825 -0.6911 -0.0669  0.5411
14764SOL    HW147184   5.831   3.924   7.784 -0.4671 -0.8494 -0.4482
14764SOL    HW247185   5.703   3.908   7.863 -0.8099  0.7118 -0.6475
14765SOL     OW47186   1.761   4.376   1.475  0.2009  0.3302  0.0401
14765SOL    HW147187   1.845   4.408   1.507  0.3678 -0.4116  0.3706
14765SOL    HW247188   1.775   4.360   1.382  0.7299 -0.6990  0.2763
14766SOL     OW47189   6.243   5.614   2.071  0.2148  0.1690  0.6596
14766SOL    HW147190   6.329   5.595   2.034 -0.7437  1.3261 -2.4456
14766SOL    HW247191   6.262   5.669   2.147  2.1959  1.8844 -0.9541
14767SOL     OW47192   8.764   0.040   7.885 -0.2605  0.4052  0.6020
14767SOL    HW147193   8.847   0.087   7.893  0.5839 -0.8550 -0.4058
14767SOL    HW247194   8.758  -0.013   7.965 -0.3313  0.8326  0.8852
14768SOL     OW47195   4.950   8.949   1.571 -0.8086 -0.0639  0.2125
14768SOL    HW147196   4.990   8.863   1.567  1.1757  0.7458  1.5294
14768SOL    HW247197   4.898   8.948   1.651 -2.3330 -0.6051 -0.7291
14769SOL     OW47198   7.168   4.817   6.763  0.1999  0.5325 -0.5297
14769SOL    HW147199   7.179   4.820   6.668 -0.4670 -0.3706 -0.6529
14769SOL    HW247200   7.252   4.846   6.798  0.4123  1.0097 -1.3910
14770SOL     OW47201   8.744   7.935   0.450 -0.5016 -0.2292 -0.2670
14770SOL    HW147202   8.721   8.028   0.457 -0.8451 -0.4273  2.3844
14770SOL    HW247203   8.840   7.934   0.454 -0.5320 -0.0176  0.8475
14771SOL     OW47204   4.944   5.364   3.458 -0.0062  0.6506 -0.0347
14771SOL    HW147205   4.895   5.416   3.522  1.4016  1.3474  0.5307
14771SOL    HW247206   4.946   5.419   3.379 -0.2979  0.5394 -0.1187
14772SOL     OW47207   4.832   6.829   6.667  0.5246 -0.5303  0.4178
14772SOL    HW147208   4.790   6.907   6.705  0.4119 -0.2085 -0.3399
14772SOL    HW247209   4.759   6.776   6.635  0.6598  0.2843 -1.3956
14773SOL     OW47210   4.410   6.970   1.729 -0.8243  0.1352  0.0046
14773SOL    HW147211   4.417   6.963   1.634 -0.6793  0.9750 -0.0489
14773SOL    HW247212   4.371   6.886   1.756 -1.5124  0.1620 -0.8576
14774SOL     OW47213   5.804   4.295   3.634  0.2880 -0.2891 -0.3300
14774SOL    HW147214   5.741   4.354   3.676 -1.1961 -1.7465 -0.4157
14774SOL    HW247215   5.860   4.264   3.706 -0.2617 -0.3870  0.0592
14775SOL     OW47216   3.097   8.706   1.095  0.2955 -0.5379 -0.5757
14775SOL    HW147217   3.083   8.799   1.077  0.5671 -0.0664  1.4488
14775SOL    HW247218   3.191   8.693   1.080  0.5571 -0.1075  0.6052
14776SOL     OW47219   7.446   3.302   6.515  0.9009  0.8929 -0.2698
14776SOL    HW147220   7.358   3.306   6.478  1.5219  0.4265 -1.9362
14776SOL    HW247221   7.451   3.376   6.575 -0.7095  0.7506  0.0899
14777SOL     OW47222   5.898   2.578   4.995  0.0737 -0.1760 -0.0859
14777SOL    HW147223   5.845   2.573   5.075 -0.6294  2.3383 -0.2895
14777SOL    HW247224   5.984   2.608   5.025  0.8213 -2.2776  0.0149
14778SOL     OW47225   2.000   3.617   1.106  0.1496  0.4570 -0.1371
14778SOL    HW147226   1.984   3.704   1.069  0.0852 -0.2631 -1.8958
14778SOL    HW247227   2.095   3.609   1.109  0.2145  1.3773  2.0804
14779SOL     OW47228   8.575   4.596   3.845  0.2676  0.1706  0.0970
14779SOL    HW147229   8.668   4.573   3.855  0.4861  0.9110 -0.1605
14779SOL    HW247230   8.557   4.654   3.919  0.3053  0.8925 -0.4487
14780SOL     OW47231   4.201   5.392   8.283  0.2634  0.2755 -0.1536
14780SOL    HW147232   4.115   5.355   8.267 -0.7210  2.1036  0.5417
14780SOL    HW247233   4.189   5.447   8.361  2.1776  0.2169  0.2392
14781SOL     OW47234   4.358   1.073   7.063 -0.1312  0.4175  0.2565
14781SOL    HW147235   4.360   1.012   7.137  1.3823  0.2521  0.1059
14781SOL    HW247236   4.315   1.025   6.993  1.6006 -0.7418 -0.0593
14782SOL     OW47237   6.882   1.730   9.435 -0.0995 -0.6525  0.2735
14782SOL    HW147238   6.804   1.724   9.490 -0.6666 -1.3452 -0.5774
14782SOL    HW247239   6.953   1.698   9.490 -0.7508 -1.8898  0.4285
14783SOL     OW47240   8.038   3.617   7.312  0.1570 -0.2035 -0.8844
14783SOL    HW147241   8.002   3.673   7.381  0.2046 -1.3211  0.0709
14783SOL    HW247242   8.049   3.676   7.237  0.9055  1.2294  0.3092
14784SOL     OW47243   2.272   1.410   6.227  0.4226 -0.5011  0.2407
14784SOL    HW147244   2.232   1.425   6.313 -0.3330  0.8326 -0.3141
14784SOL    HW247245   2.356   1.457   6.232  0.5955 -0.8243  0.4054
14785SOL     OW47246   2.681   6.741   4.775 -0.1385  0.2111  0.1126
14785SOL    HW147247   2.747   6.755   4.707 -0.6171 -0.9183 -0.6296
14785SOL    HW247248   2.600   6.776   4.736  0.1404  2.5178  1.4036
14786SOL     OW47249   1.345   3.801   4.575  0.2162 -0.1848  0.0913
14786SOL    HW147250   1.423   3.747   4.585  1.8318  1.4647 -2.5832
14786SOL    HW247251   1.344   3.827   4.483 -1.7584  2.4320  0.7021
14787SOL     OW47252   3.201   3.088   8.671  0.8595  0.5638 -0.4084
14787SOL    HW147253   3.126   3.143   8.693  1.0653  0.4783  0.5699
14787SOL    HW247254   3.222   3.110   8.580  1.2212  2.4555  0.0902
14788SOL     OW47255   5.996   9.141   0.650 -0.1323 -0.1135 -0.0567
14788SOL    HW147256   6.053   9.218   0.660 -0.2799 -0.2674  2.7643
14788SOL    HW247257   6.052   9.075   0.611  1.0360  0.4112  0.6618
14789SOL     OW47258   8.790   0.752   7.185 -0.0346 -0.0902 -0.1833
14789SOL    HW147259   8.706   0.750   7.232 -0.1576  0.7554 -0.3596
14789SOL    HW247260   8.788   0.833   7.134  0.0476 -1.0445 -1.7679
14790SOL     OW47261   4.794   8.106   8.126  0.3039  0.4019  0.1938
14790SOL    HW147262   4.847   8.070   8.197  0.3472 -1.0188 -0.5301
14790SOL    HW247263   4.851   8.102   8.049 -0.0625  1.0420 -0.1214
14791SOL     OW47264   0.636   3.167   6.174 -0.1556  0.1194  0.5812
14791SOL    HW147265   0.716   3.117   6.186 -0.5261 -0.7030 -0.2388
14791SOL    HW247266   0.665   3.249   6.132  0.2943 -0.0164  0.6251
14792SOL     OW47267   4.637   2.558   1.854 -0.5992 -0.3416 -0.1170
14792SOL    HW147268   4.572   2.503   1.810  0.4616 -0.9341 -1.0133
14792SOL    HW247269   4.683   2.602   1.782 -0.4198  0.5544  0.5244
14793SOL     OW47270   3.312   2.968   5.370  0.9976  0.6709 -0.2018
14793SOL    HW147271   3.235   2.914   5.351  1.0188  0.2991  0.6910
14793SOL    HW247272   3.378   2.905   5.401  1.4450  1.0599 -0.3591
14794SOL     OW47273   2.377   3.187   2.031  0.3343 -0.3263 -0.6352
14794SOL    HW147274   2.387   3.181   2.126 -1.8581  0.3458 -0.3014
14794SOL    HW247275   2.287   3.158   2.015  0.6415 -0.3535 -2.5058
14795SOL     OW47276   8.991   7.178   9.241 -0.5328 -0.0599 -0.0627
14795SOL    HW147277   9.003   7.130   9.323  0.2741  2.4253  1.3460
14795SOL    HW247278   8.896   7.194   9.237 -0.4620  0.6666  0.9196
14796SOL     OW47279   7.292   7.141   6.761  0.5049  0.3378 -0.2607
14796SOL    HW147280   7.218   7.147   6.701 -0.3099  0.2102  0.7161
14796SOL    HW247281   7.292   7.224   6.808  1.2234  0.4928 -0.5202
14797SOL     OW47282   4.665   7.368   2.857  0.5274  0.0378  0.3121
14797SOL    HW147283   4.649   7.285   2.811 -1.5452  1.4253 -1.6633
14797SOL    HW247284   4.755   7.391   2.834  1.2543 -1.7455  1.1467
14798SOL     OW47285   0.050   4.553   9.578 -0.2407  0.1648 -0.4531
14798SOL    HW147286   0.139   4.527   9.556 -0.2006 -3.0501  2.7501
14798SOL    HW247287  -0.005   4.488   9.535 -0.6915 -0.6353  1.2798
14799SOL     OW47288   7.754   0.303   6.977  0.0510 -0.0843  0.5698
14799SOL    HW147289   7.691   0.251   7.026 -0.7486  0.7119  0.4325
14799SOL    HW247290   7.805   0.349   7.044 -0.9657  0.9183  0.7072
14800SOL     OW47291   3.278   2.251   1.581  0.0957 -0.5832  0.4209
14800SOL    HW147292   3.220   2.313   1.625 -0.7574  0.2632 -1.7313
14800SOL    HW247293   3.362   2.296   1.574 -0.7115  0.7125 -1.7542
14801SOL     OW47294   6.715   8.079   8.202  0.3419  0.0152  0.4552
14801SOL    HW147295   6.688   8.051   8.114 -0.2567  0.7361  0.3972
14801SOL    HW247296   6.791   8.135   8.186  1.4101 -1.3526  0.5553
14802SOL     OW47297   9.014   5.634   5.576  0.2424 -0.0473 -0.2048
14802SOL    HW147298   8.970   5.592   5.650 -0.1261  0.0763 -0.3497
14802SOL    HW247299   8.970   5.719   5.568 -0.2574 -0.3815 -1.0710
14803SOL     OW47300   6.456   2.296   2.294 -0.2726 -0.4775  0.2686
14803SOL    HW147301   6.503   2.291   2.377 -0.5732 -0.3475  0.4477
14803SOL    HW247302   6.379   2.240   2.307 -1.9573  1.8857  1.1648
14804SOL     OW47303   1.376   0.158   0.197  0.3473  0.7728 -0.3080
14804SOL    HW147304   1.311   0.180   0.264 -0.0606 -0.2874 -0.3316
14804SOL    HW247305   1.436   0.233   0.196 -0.4457  1.4298  0.2431
14805SOL     OW47306   3.983   5.853   3.795 -0.0020  0.1548  0.2426
14805SOL    HW147307   3.965   5.765   3.830  1.1680 -0.3850 -0.4287
14805SOL    HW247308   3.898   5.894   3.787 -0.6336 -1.1684 -0.0511
14806SOL     OW47309   6.825   3.042   9.000  0.7114 -0.1390  0.2745
14806SOL    HW147310   6.830   2.959   8.951  0.8255  0.9792 -1.7268
14806SOL    HW247311   6.910   3.083   8.985  0.4370  0.6117  0.7457
14807SOL     OW47312   5.322   4.697   5.910 -0.2633 -0.1827  0.2180
14807SOL    HW147313   5.260   4.767   5.887 -0.6570 -0.8509 -0.8174
14807SOL    HW247314   5.323   4.696   6.006 -1.5772  0.0842  0.2516
14808SOL     OW47315   8.879   1.689   8.383 -0.3827  0.1828  0.3764
14808SOL    HW147316   8.811   1.636   8.424 -0.2633  0.3954  0.8522
14808SOL    HW247317   8.949   1.694   8.448 -0.9990  2.1428  0.9407
14809SOL     OW47318   5.749   7.985   8.854  0.1288  0.4538  0.2216
14809SOL    HW147319   5.748   8.061   8.795  1.3631  1.2219  1.1338
14809SOL    HW247320   5.657   7.964   8.868 -0.2186  1.4241 -0.5157
14810SOL     OW47321   7.537   8.127   5.476 -0.6593  0.2570  0.2266
14810SOL    HW147322   7.623   8.102   5.443 -0.3989  2.4748 -0.9399
14810SOL    HW247323   7.478   8.061   5.440  0.2393  0.1018 -1.0336
14811SOL     OW47324   5.845   7.100   0.859 -0.6344  0.0174 -0.1491
14811SOL    HW147325   5.750   7.099   0.847 -0.5168  0.6864 -1.3165
14811SOL    HW247326   5.876   7.164   0.795  0.5060  0.6560  0.9998
14812SOL     OW47327   5.488   8.150   1.591 -0.0971 -0.1653  0.1495
14812SOL    HW147328   5.528   8.225   1.633 -1.7990 -0.1343  1.9020
14812SOL    HW247329   5.472   8.088   1.663 -0.6855 -1.2844 -0.8980
14813SOL     OW47330   5.866   8.680   4.495  0.3852  0.1782 -0.3013
14813SOL    HW147331   5.866   8.717   4.583  0.9883  0.5576 -0.4572
14813SOL    HW247332   5.848   8.754   4.437 -0.7313 -0.1910 -0.4622
14814SOL     OW47333   6.559   5.217   6.711 -0.3740 -0.3620  0.2325
14814SOL    HW147334   6.622   5.245   6.777 -0.6913  0.1224  0.3301
14814SOL    HW247335   6.482   5.189   6.761 -1.2795  1.6157  0.0438
14815SOL     OW47336   1.601   6.346   0.764  0.3405 -0.2229  0.0686
14815SOL    HW147337   1.671   6.410   0.747 -0.7538  0.7433 -0.9386
14815SOL    HW247338   1.520   6.394   0.748 -0.5280 -1.8955 -0.8116
14816SOL     OW47339   4.394   7.633   4.927  0.5153 -0.2276  0.7154
14816SOL    HW147340   4.454   7.585   4.869 -0.0033 -0.6548  0.5230
14816SOL    HW247341   4.423   7.610   5.015  0.3726 -0.7705  0.6246
14817SOL     OW47342   0.966   7.927   2.419 -0.3496  0.1283  0.1760
14817SOL    HW147343   1.057   7.944   2.395 -0.7893  1.0260 -0.9682
14817SOL    HW247344   0.966   7.836   2.450  0.7823 -0.1636 -0.6042
14818SOL     OW47345   1.574   2.894   6.426  0.0295  0.1897  0.3706
14818SOL    HW147346   1.609   2.912   6.513  3.2964  1.0502 -0.9388
14818SOL    HW247347   1.559   2.980   6.387  1.1438 -0.0910 -0.7542
14819SOL     OW47348   0.540   1.445   7.761  0.2378  0.1192 -0.2487
14819SOL    HW147349   0.552   1.359   7.720 -0.6138 -1.1211  1.9792
14819SOL    HW247350   0.462   1.435   7.815  1.2079  1.7155  1.5289
14820SOL     OW47351   2.681   6.092   2.676 -0.0019 -0.2216 -0.8298
14820SOL    HW147352   2.649   6.133   2.757  1.9866 -0.5542  0.1896
14820SOL    HW247353   2.607   6.095   2.616 -0.8761  1.9879  0.2812
14821SOL     OW47354   4.650   1.006   8.229  0.1622 -0.1130  0.6611
14821SOL    HW147355   4.692   1.040   8.150  0.9068  0.4267  1.2780
14821SOL    HW247356   4.673   0.913   8.231 -0.1579 -0.2064  0.0565
14822SOL     OW47357   1.320   5.439   5.839 -0.1153 -0.6485  0.3285
14822SOL    HW147358   1.359   5.420   5.924 -0.3017  1.1880  0.8674
14822SOL    HW247359   1.382   5.500   5.798 -2.0101  1.8702  0.9628
14823SOL     OW47360   0.300   4.310   4.364 -0.6189  0.4396  0.3774
14823SOL    HW147361   0.298   4.403   4.391  0.7737  0.4091  0.6950
14823SOL    HW247362   0.388   4.281   4.389 -0.5951 -0.6302 -0.8809
14824SOL     OW47363   7.854   6.308   3.349 -0.3463 -0.2531  0.1464
14824SOL    HW147364   7.782   6.302   3.286 -0.2719  0.2998  0.0091
14824SOL    HW247365   7.829   6.246   3.418 -0.7415 -0.3867 -0.1066
14825SOL     OW47366   3.866   1.453   5.475 -0.3583 -0.2414  0.2155
14825SOL    HW147367   3.777   1.488   5.471  0.2238  1.3541  0.8160
14825SOL    HW247368   3.919   1.515   5.427  0.2507 -1.9386 -1.4040
14826SOL     OW47369   5.285   3.934   3.443 -0.0541 -0.1230  0.7822
14826SOL    HW147370   5.362   3.924   3.498  0.3753 -1.0969  0.0272
14826SOL    HW247371   5.251   4.021   3.465  2.1424  1.0139  0.0410
14827SOL     OW47372   2.951   1.733   2.911 -0.3158  0.0274  0.4471
14827SOL    HW147373   2.969   1.773   2.996 -0.2684  2.5396 -0.6693
14827SOL    HW247374   3.028   1.678   2.893  0.5342  0.9479  1.1909
14828SOL     OW47375   3.376   5.769   7.612 -0.5051  0.0984  0.0076
14828SOL    HW147376   3.455   5.821   7.626 -1.6559  2.2544 -0.8860
14828SOL    HW247377   3.407   5.683   7.584  1.5007  0.5697  0.6238
14829SOL     OW47378   3.903   4.146   3.350  0.1191  0.1134 -0.2327
14829SOL    HW147379   3.909   4.095   3.431  1.1095  0.1623 -0.2698
14829SOL    HW247380   3.824   4.113   3.307  1.3546 -2.3083 -0.8567
14830SOL     OW47381   4.820   8.519   5.618  0.4154 -0.6861 -0.1479
14830SOL    HW147382   4.779   8.605   5.618  1.4995 -0.1538  0.1408
14830SOL    HW247383   4.759   8.464   5.568 -1.6156 -0.4292  1.8571
14831SOL     OW47384   6.864   2.279   5.900  0.3112  0.0949  0.5041
14831SOL    HW147385   6.786   2.291   5.845  1.2024 -0.4637 -0.9213
14831SOL    HW247386   6.836   2.216   5.966 -0.7114  0.5811  0.5698
14832SOL     OW47387   0.395   2.824   5.462 -0.5325 -0.5640 -0.2683
14832SOL    HW147388   0.451   2.856   5.533  1.3842 -1.7572 -1.1664
14832SOL    HW247389   0.326   2.890   5.454  1.5856  1.7872 -0.1071
14833SOL     OW47390   1.520   5.804   6.081 -0.2308  0.4697  0.1869
14833SOL    HW147391   1.607   5.790   6.118 -0.8851 -0.6011  1.4029
14833SOL    HW247392   1.470   5.726   6.107 -1.0993  0.2584 -1.9111
14834SOL     OW47393   8.478   0.554   1.845  0.1882 -0.3183 -0.0701
14834SOL    HW147394   8.502   0.476   1.795  0.1765  0.4784 -1.3560
14834SOL    HW247395   8.538   0.554   1.920  1.9421 -0.1880 -1.4273
14835SOL     OW47396   6.591   2.918   5.860 -0.4839  0.4449  0.1692
14835SOL    HW147397   6.650   2.992   5.872 -0.8493  0.8096 -0.2275
14835SOL    HW247398   6.520   2.953   5.805 -1.0265  0.0021  0.5777
14836SOL     OW47399   6.336   3.605   7.126  0.1950  0.6887  0.4228
14836SOL    HW147400   6.241   3.595   7.136  0.1417 -0.2925 -0.7945
14836SOL    HW247401   6.347   3.688   7.081 -0.2170  0.0630 -0.8845
14837SOL     OW47402   9.089   7.416   0.491 -0.0943 -0.1569 -0.1439
14837SOL    HW147403   9.015   7.360   0.466  0.1918 -0.5764 -0.0701
14837SOL    HW247404   9.098   7.478   0.419 -1.1078  0.4982  0.2855
14838SOL     OW47405   6.111   1.607   1.149  0.4807 -0.6134 -0.2987
14838SOL    HW147406   6.127   1.590   1.056  0.5212 -1.1872 -0.1892
14838SOL    HW247407   6.040   1.671   1.150  1.9466  1.0977 -0.7718
14839SOL     OW47408   1.680   7.748   9.310  0.1157  0.3107 -0.3121
14839SOL    HW147409   1.592   7.747   9.349  0.7489 -0.3839  1.1822
14839SOL    HW247410   1.677   7.819   9.246 -1.7579 -0.1927 -0.8601
14840SOL     OW47411   2.904   9.507   9.181 -0.2657 -0.4363  0.1718
14840SOL    HW147412   2.843   9.478   9.249 -0.3448 -0.3631  0.1325
14840SOL    HW247413   2.916   9.431   9.125 -1.7653  0.0792 -0.8914
14841SOL     OW47414   4.408   5.928   6.887 -0.6406 -0.3417 -0.4550
14841SOL    HW147415   4.444   5.949   6.800  0.4248 -0.3859 -0.0457
14841SOL    HW247416   4.348   6.000   6.906 -1.8533 -0.9691 -1.7448
14842SOL     OW47417   3.094   3.823   3.902  0.1765  0.0644  0.9189
14842SOL    HW147418   3.143   3.894   3.860 -0.0316  0.7124  1.7394
14842SOL    HW247419   3.011   3.820   3.853  0.1629  0.4239  0.9125
14843SOL     OW47420   5.378   4.381   6.369 -0.3178  0.2117 -0.0118
14843SOL    HW147421   5.473   4.384   6.363 -0.2492  1.1805  1.1050
14843SOL    HW247422   5.351   4.321   6.300  1.1356 -0.6053  0.0995
14844SOL     OW47423   0.896   1.848   5.275  0.2792  0.4628  0.0614
14844SOL    HW147424   0.948   1.873   5.198 -0.7893  1.0122 -0.5143
14844SOL    HW247425   0.863   1.761   5.254  0.5922  0.3000  0.2336
14845SOL     OW47426   1.872   9.040   0.721  0.0993 -0.2242 -0.4139
14845SOL    HW147427   1.847   9.128   0.746 -0.7441 -0.5020 -0.2710
14845SOL    HW247428   1.950   9.052   0.666 -0.3265  0.6368 -0.8403
14846SOL     OW47429   5.533   5.212   8.466  0.7356 -0.1741 -0.4043
14846SOL    HW147430   5.471   5.284   8.453  0.5629 -0.4096 -0.8820
14846SOL    HW247431   5.535   5.166   8.383 -1.9993 -2.9642  0.8942
14847SOL     OW47432   0.728   3.367   3.680  0.2803 -0.2829  0.4743
14847SOL    HW147433   0.745   3.461   3.692  0.5374 -0.3326  0.4895
14847SOL    HW247434   0.694   3.337   3.764  1.3937 -0.4761  0.8613
14848SOL     OW47435   3.210   5.308   2.215  0.0644  0.1278 -0.5782
14848SOL    HW147436   3.280   5.273   2.160  0.5778  2.6031 -1.6026
14848SOL    HW247437   3.255   5.350   2.288 -0.5922 -2.6149  1.5662
14849SOL     OW47438   3.791   6.093   5.686  0.0420 -1.1438 -0.6810
14849SOL    HW147439   3.772   6.143   5.766  0.5885 -0.9989 -0.6352
14849SOL    HW247440   3.706   6.057   5.659 -0.4224  0.0776 -0.9010
14850SOL     OW47441   7.668   5.789   3.935 -0.3991 -0.2669 -0.0715
14850SOL    HW147442   7.722   5.806   4.012 -0.9246  0.9303  0.0498
14850SOL    HW247443   7.729   5.752   3.871  0.5180  0.7837  0.1610
14851SOL     OW47444   2.162   0.552   0.086 -0.0328  0.0416  0.2856
14851SOL    HW147445   2.090   0.614   0.082 -0.8283 -0.8688  0.2472
14851SOL    HW247446   2.212   0.578   0.163 -2.0093 -1.0071  2.0209
14852SOL     OW47447   0.033   3.303   0.870  0.6503 -0.0017  0.0981
14852SOL    HW147448   0.079   3.236   0.921 -1.0422 -0.2271  1.4194
14852SOL    HW247449  -0.047   3.320   0.919  0.5335  2.2676 -0.7502
14853SOL     OW47450   5.721   6.550   6.405  0.0197 -0.2777  0.5040
14853SOL    HW147451   5.746   6.636   6.439 -0.3835  0.0133  0.0757
14853SOL    HW247452   5.797   6.521   6.355 -0.7593  0.9952 -1.5414
14854SOL     OW47453   5.558   0.618   3.704  0.2146 -0.1808  0.1720
14854SOL    HW147454   5.578   0.711   3.695  2.6897 -0.6857 -0.2314
14854SOL    HW247455   5.504   0.597   3.628 -1.3745  1.1283  0.8814
14855SOL     OW47456   8.116   8.248   1.262 -0.5366  0.2077 -0.3517
14855SOL    HW147457   8.186   8.194   1.299  0.4191  1.9308  0.4917
14855SOL    HW247458   8.132   8.246   1.167 -0.2970 -0.6601 -0.3006
14856SOL     OW47459   1.860   4.327   0.611  0.1768 -0.0047 -0.2173
14856SOL    HW147460   1.899   4.248   0.576 -0.2321 -1.5544  2.5459
14856SOL    HW247461   1.773   4.300   0.641  0.0846  1.4413  0.9469
14857SOL     OW47462   8.758   9.237   9.350  0.1496  0.1741  0.3370
14857SOL    HW147463   8.811   9.254   9.272 -1.4793 -1.2063 -1.1586
14857SOL    HW247464   8.804   9.167   9.397 -0.3638 -1.1384 -1.0398
14858SOL     OW47465   7.322   4.833   2.792  0.2728  0.8002  0.4673
14858SOL    HW147466   7.238   4.791   2.771  0.1494  1.1472  0.2552
14858SOL    HW247467   7.308   4.926   2.774  0.2819  1.0701  1.7531
14859SOL     OW47468   4.466   5.593   3.791 -1.0062  0.2287  0.1180
14859SOL    HW147469   4.448   5.583   3.884  0.6963 -1.6282  0.3206
14859SOL    HW247470   4.445   5.507   3.754  0.3068  0.2999 -0.8421
14860SOL     OW47471   8.559   5.647   9.523 -0.0352 -0.1953 -0.0239
14860SOL    HW147472   8.568   5.570   9.467 -0.0286 -0.3553  0.1951
14860SOL    HW247473   8.617   5.630   9.597  0.7950  0.4968 -0.4898
14861SOL     OW47474   1.836   3.391   5.311  0.0439 -0.4986  0.0016
14861SOL    HW147475   1.911   3.449   5.327 -2.1837  2.2250  1.4104
14861SOL    HW247476   1.822   3.397   5.217  1.6123 -1.1409 -0.3081
14862SOL     OW47477   8.502   6.470   4.956 -0.0978 -0.0273  0.4523
14862SOL    HW147478   8.496   6.400   5.021  0.7208  1.6191  2.4308
14862SOL    HW247479   8.452   6.542   4.994 -0.5812  0.6437 -1.3343
14863SOL     OW47480   5.919   6.477   3.308  0.3567  0.5501  0.5580
14863SOL    HW147481   5.830   6.455   3.337 -2.1830  1.6826 -5.0039
14863SOL    HW247482   5.912   6.567   3.274  1.8729 -0.9435 -4.7544
14864SOL     OW47483   7.943   1.694   0.618 -0.3531 -0.0711 -0.0653
14864SOL    HW147484   7.976   1.675   0.706  1.1828 -0.3120 -0.6450
14864SOL    HW247485   7.961   1.614   0.569 -2.4428 -0.4366 -0.2963
14865SOL     OW47486   6.554   1.824   8.602  0.0614 -0.1370  0.0755
14865SOL    HW147487   6.606   1.865   8.533  0.2011 -0.2868  0.0903
14865SOL    HW247488   6.491   1.891   8.628  0.5450  0.2173  0.3760
14866SOL     OW47489   3.900   7.406   5.626  0.1116 -0.2326 -0.2711
14866SOL    HW147490   3.988   7.433   5.653 -0.0448 -0.8371  0.8937
14866SOL    HW247491   3.842   7.474   5.662 -0.1542 -1.3493  1.5030
14867SOL     OW47492   0.460   6.091   1.057  0.5357 -0.3018  0.7125
14867SOL    HW147493   0.502   6.057   0.978 -3.2484  0.4080 -1.9086
14867SOL    HW247494   0.476   6.024   1.124  1.2645 -2.5381 -1.5506
14868SOL     OW47495   4.245   6.849   6.304 -0.5078  0.3748 -0.5742
14868SOL    HW147496   4.176   6.871   6.367  1.4949  1.7908  1.3080
14868SOL    HW247497   4.199   6.834   6.222 -3.2811 -1.4074  1.1306
14869SOL     OW47498   7.446   6.671   1.036  0.2390  0.3155  0.2162
14869SOL    HW147499   7.471   6.680   0.944 -1.6341  1.0953 -0.2694
14869SOL    HW247500   7.460   6.759   1.073 -1.3259  0.7038 -0.0035
14870SOL     OW47501   1.963   6.492   4.718 -0.3183 -0.0253  0.1848
14870SOL    HW147502   1.934   6.538   4.797 -2.5850  0.5054 -0.8812
14870SOL    HW247503   1.918   6.537   4.646  2.6141  0.3135 -1.6122
14871SOL     OW47504   5.732   3.126   8.641 -0.1635  0.1886 -0.2395
14871SOL    HW147505   5.826   3.114   8.656 -0.3523 -0.6547  0.3144
14871SOL    HW247506   5.727   3.191   8.571  0.8783 -0.9977 -1.4647
14872SOL     OW47507   7.397   7.886   6.380 -0.1513  0.1805  0.6325
14872SOL    HW147508   7.489   7.877   6.406 -0.4506  0.7857  1.9671
14872SOL    HW247509   7.385   7.979   6.364  0.1452 -0.1949 -2.3622
14873SOL     OW47510   0.284   5.544   0.989 -0.3150 -0.2822  0.4750
14873SOL    HW147511   0.276   5.452   0.962 -0.1652  0.0439 -0.7187
14873SOL    HW247512   0.378   5.556   1.005 -0.5856 -0.9450  2.9662
14874SOL     OW47513   4.761   7.728   4.228 -0.6019 -0.7181  0.3151
14874SOL    HW147514   4.752   7.634   4.209  2.6025 -0.9842 -0.5207
14874SOL    HW247515   4.852   7.738   4.254 -0.3364  2.4370 -1.3831
14875SOL     OW47516   6.317   4.424   9.404  0.4877  0.0130  0.1007
14875SOL    HW147517   6.390   4.373   9.370  0.0751  0.4566 -1.5495
14875SOL    HW247518   6.250   4.359   9.424  0.2740 -0.2047 -1.1910
14876SOL     OW47519   4.051   6.081   1.749 -0.4671  0.0041  0.2180
14876SOL    HW147520   4.101   6.096   1.669  1.0893 -0.1487  1.1272
14876SOL    HW247521   3.966   6.049   1.718  0.3178 -0.6848 -1.3574
14877SOL     OW47522   5.479   6.587   0.671  0.2850  0.0896  0.3433
14877SOL    HW147523   5.445   6.615   0.586  1.8471  1.8758  0.2447
14877SOL    HW247524   5.407   6.536   0.710 -0.4305 -0.8780 -2.0518
14878SOL     OW47525   4.102   0.842   7.032  0.1865  0.0462  0.1259
14878SOL    HW147526   4.148   0.881   6.959  0.9976  0.4383  0.8287
14878SOL    HW247527   4.112   0.748   7.020  1.7732  0.1262  0.6145
14879SOL     OW47528   7.271   5.598   2.890 -0.4125  0.4546 -0.5081
14879SOL    HW147529   7.306   5.597   2.980 -0.8385  1.1511 -0.3292
14879SOL    HW247530   7.220   5.517   2.883 -0.2188  0.3019 -0.1856
14880SOL     OW47531   8.980   8.511   6.744 -0.4428  0.3249 -0.3892
14880SOL    HW147532   8.897   8.551   6.770  0.0658  0.0299  1.9305
14880SOL    HW247533   9.015   8.569   6.676 -2.5134  0.4438 -1.4233
14881SOL     OW47534   7.236   6.881   1.348  0.2280 -0.0503 -0.1665
14881SOL    HW147535   7.323   6.891   1.385  0.2948  1.3639 -0.6598
14881SOL    HW247536   7.182   6.852   1.422  1.2639 -1.8934 -0.0654
14882SOL     OW47537   5.711   6.803   5.891  0.0926  0.0266 -0.3159
14882SOL    HW147538   5.707   6.713   5.857  0.2804  0.0754 -0.4668
14882SOL    HW247539   5.804   6.820   5.902  0.0116 -0.3961  1.3158
14883SOL     OW47540   8.568   6.128   3.526  0.5245 -0.1283  0.0450
14883SOL    HW147541   8.622   6.053   3.500  1.2525  0.8283 -1.2942
14883SOL    HW247542   8.631   6.200   3.536 -0.1556  0.3164  1.3475
14884SOL     OW47543   1.907   7.939   3.017  0.1353  0.6242 -0.0153
14884SOL    HW147544   1.918   7.988   2.935 -0.1183  3.4005  1.5193
14884SOL    HW247545   1.813   7.936   3.030 -0.0421 -2.4249 -1.2068
14885SOL     OW47546   8.171   3.452   7.806 -0.3394 -0.4159 -0.1353
14885SOL    HW147547   8.158   3.372   7.858 -1.0846 -1.6603 -2.1489
14885SOL    HW247548   8.102   3.450   7.741  0.4036  1.2453 -1.0235
14886SOL     OW47549   3.736   8.473   8.596 -0.1500  0.4125 -0.8884
14886SOL    HW147550   3.784   8.389   8.597 -1.2445 -0.2464 -1.5197
14886SOL    HW247551   3.727   8.496   8.688  0.4378 -0.0067 -0.7159
14887SOL     OW47552   5.793   7.895   9.548  0.0774  0.0773  0.1477
14887SOL    HW147553   5.749   7.978   9.530 -0.6048 -0.2727  0.1738
14887SOL    HW247554   5.731   7.847   9.604  0.1381 -0.7493 -0.4859
14888SOL     OW47555   7.785   3.630   0.621 -0.6631 -0.2956 -0.2394
14888SOL    HW147556   7.712   3.634   0.559 -2.2129  0.5684  1.5621
14888SOL    HW247557   7.834   3.711   0.606 -1.6838  0.4547  0.4039
14889SOL     OW47558   0.732   8.488   5.742  0.2467  0.3197 -0.2269
14889SOL    HW147559   0.735   8.570   5.792  0.1816  0.8431 -1.0736
14889SOL    HW247560   0.708   8.515   5.654  0.4479 -0.5956 -0.5635
14890SOL     OW47561   1.723   6.502   3.530  0.7685 -0.1767 -0.0055
14890SOL    HW147562   1.765   6.587   3.540  1.4101 -0.4695 -0.1933
14890SOL    HW247563   1.647   6.519   3.474  1.5946  0.0614 -1.0753
14891SOL     OW47564   8.205   3.978   8.741  0.4725 -0.5057  0.1013
14891SOL    HW147565   8.264   3.904   8.733 -0.5797 -1.3510 -0.0319
14891SOL    HW247566   8.191   4.008   8.651 -0.4854 -1.2755 -0.0210
14892SOL     OW47567   0.411   4.921   3.530  0.1724 -0.4216 -0.4468
14892SOL    HW147568   0.444   4.974   3.457  0.4192 -0.1923 -0.1723
14892SOL    HW247569   0.394   4.835   3.491  0.3830 -0.3267 -0.7564
14893SOL     OW47570   4.467   5.386   8.173  0.0645 -0.1022 -0.4503
14893SOL    HW147571   4.471   5.468   8.122  0.6463 -0.1202 -0.4366
14893SOL    HW247572   4.378   5.386   8.210 -0.0485  0.3704 -0.7041
14894SOL     OW47573   4.300   7.743   3.240 -0.3931  0.1181  0.2469
14894SOL    HW147574   4.252   7.692   3.305 -0.7498 -0.1364 -0.2077
14894SOL    HW247575   4.282   7.834   3.261 -1.6759  0.0172 -0.3557
14895SOL     OW47576   4.070   5.042   5.174 -0.0320  0.0762  0.7268
14895SOL    HW147577   4.048   5.054   5.267  1.4874 -0.2384  1.1554
14895SOL    HW247578   4.031   4.957   5.151  1.9447 -1.2243  1.9010
14896SOL     OW47579   8.209   0.098   3.852 -0.0002 -0.1139 -0.0405
14896SOL    HW147580   8.165   0.113   3.768 -0.2631  2.7733  0.5061
14896SOL    HW247581   8.139   0.072   3.911 -0.7954  2.5519  0.3490
14897SOL     OW47582   5.010   7.759   0.908  0.0171  0.1009  0.1130
14897SOL    HW147583   5.050   7.818   0.972  2.6815 -0.1239 -1.2068
14897SOL    HW247584   4.938   7.811   0.869  0.2006  1.2571  1.2573
14898SOL     OW47585   8.801   4.290   7.129  0.5270 -0.0504  0.4181
14898SOL    HW147586   8.772   4.254   7.046  1.3831 -1.2638  0.6103
14898SOL    HW247587   8.721   4.316   7.174  0.0894  1.3041 -1.0502
14899SOL     OW47588   5.001   1.143   3.132  0.3881 -0.7294 -0.1454
14899SOL    HW147589   5.017   1.199   3.208  2.1772  0.4962 -1.3456
14899SOL    HW247590   4.906   1.133   3.130  0.1216  1.0406  0.9979
14900SOL     OW47591   5.398   2.287   0.363 -0.2484 -0.1437  0.2315
14900SOL    HW147592   5.362   2.204   0.395  3.5983 -2.2535 -0.2201
14900SOL    HW247593   5.382   2.284   0.268 -0.6481 -0.0684  0.2960
14901SOL     OW47594   3.039   6.132   3.260 -0.1220  0.0033 -0.2511
14901SOL    HW147595   3.038   6.225   3.237 -0.1904  0.0208 -0.1762
14901SOL    HW247596   3.041   6.131   3.356 -1.2868 -0.0856 -0.2196
14902SOL     OW47597   7.441   0.958   6.732 -0.2905  0.5844  0.0620
14902SOL    HW147598   7.349   0.987   6.734  0.1399  1.9786  1.5660
14902SOL    HW247599   7.450   0.914   6.648 -2.3685  0.3355 -0.0806
14903SOL     OW47600   8.645   5.822   6.132 -0.0558  0.1895 -0.3014
14903SOL    HW147601   8.637   5.827   6.037  0.4340 -0.7071 -0.4030
14903SOL    HW247602   8.591   5.893   6.165 -0.8212  0.0446 -1.2240
14904SOL     OW47603   5.391   7.353   6.849  0.8691  0.4676 -0.5989
14904SOL    HW147604   5.440   7.427   6.885  0.5328 -0.3136  1.5899
14904SOL    HW247605   5.459   7.290   6.825  1.0684  0.6820 -0.6102
14905SOL     OW47606   1.058   0.661   7.099 -0.0185  0.1733  0.1723
14905SOL    HW147607   0.972   0.623   7.118 -0.4938 -0.1535 -2.3001
14905SOL    HW247608   1.110   0.587   7.069  0.3874  0.7648 -0.6023
14906SOL     OW47609   9.432   2.548   2.046 -0.5856  0.4840 -0.0108
14906SOL    HW147610   9.503   2.587   1.995  0.3288 -0.7801  0.2509
14906SOL    HW247611   9.472   2.472   2.088 -2.1346 -0.3367  0.0326
14907SOL     OW47612   7.498   1.032   8.043 -0.0784 -0.1100 -1.1510
14907SOL    HW147613   7.516   1.070   8.129  3.3470 -0.9559 -1.3432
14907SOL    HW247614   7.428   1.086   8.007  0.4894  2.2226  0.9283
14908SOL     OW47615   2.203   7.342   4.784  0.4018  0.0744  0.3961
14908SOL    HW147616   2.216   7.354   4.689 -0.3026  1.2195  0.4258
14908SOL    HW247617   2.109   7.333   4.794  0.6209 -4.0398  0.6121
14909SOL     OW47618   3.981   6.054   4.866 -0.4622  0.1900 -0.4774
14909SOL    HW147619   4.055   6.076   4.809 -0.6939  1.7441 -0.2325
14909SOL    HW247620   3.920   6.009   4.808  0.8700 -1.6332 -0.5562
14910SOL     OW47621   7.207   9.242   5.616  0.0455 -0.6782  0.0838
14910SOL    HW147622   7.219   9.224   5.710 -3.4493 -1.6085  0.5045
14910SOL    HW247623   7.274   9.306   5.595  2.8080 -2.5200  2.4977
14911SOL     OW47624   0.657   0.826   9.358 -0.5252  0.4484 -0.2881
14911SOL    HW147625   0.690   0.762   9.421  0.7969  0.9560 -0.4276
14911SOL    HW247626   0.687   0.911   9.392 -0.1800  0.7715 -1.3359
14912SOL     OW47627   5.277   5.557   2.767  0.3596 -0.5341  0.8113
14912SOL    HW147628   5.187   5.578   2.743  0.2456 -0.7441  1.0520
14912SOL    HW247629   5.327   5.569   2.686  0.0598 -0.7586  0.5919
14913SOL     OW47630   0.323   3.426   1.016 -0.5794 -0.1864  0.2364
14913SOL    HW147631   0.256   3.368   1.053 -0.8549 -0.0601 -0.0695
14913SOL    HW247632   0.290   3.450   0.930 -0.2700  0.0993  0.1955
14914SOL     OW47633   4.017   0.874   5.118  0.3840  0.2042  0.1279
14914SOL    HW147634   4.093   0.885   5.061  0.0394  0.5661 -0.2701
14914SOL    HW247635   3.950   0.929   5.079  0.5031  1.4242  1.5507
14915SOL     OW47636   2.010   3.294   8.233  0.1151 -0.0521  0.5348
14915SOL    HW147637   2.039   3.239   8.306  0.4686  0.5889  0.8864
14915SOL    HW247638   2.086   3.296   8.174 -0.2819 -0.8374 -0.0232
14916SOL     OW47639   2.822   0.235   0.540 -0.0068  0.1793  0.2064
14916SOL    HW147640   2.910   0.257   0.571 -0.1211  1.2143 -0.1699
14916SOL    HW247641   2.765   0.300   0.580 -0.5826 -0.3682  0.2936
14917SOL     OW47642   9.501   4.372   0.870 -0.7490 -0.1669  0.4057
14917SOL    HW147643   9.441   4.328   0.930  2.6732 -2.2160  2.6204
14917SOL    HW247644   9.530   4.449   0.918 -1.2031  0.5604 -0.4639
14918SOL     OW47645   0.813   3.822   1.755  0.1218 -0.2126  0.0184
14918SOL    HW147646   0.736   3.842   1.807 -0.1418  0.2191 -0.5325
14918SOL    HW247647   0.781   3.766   1.684 -0.2649  2.2154 -1.8654
14919SOL     OW47648   5.124   4.778   6.735 -0.2204  0.5659 -0.0538
14919SOL    HW147649   5.201   4.752   6.684 -1.9481 -1.1251 -2.0007
14919SOL    HW247650   5.118   4.712   6.805 -0.2222  0.3447 -0.2603
14920SOL     OW47651   6.606   4.746   9.534  0.1648 -0.3955 -0.3022
14920SOL    HW147652   6.687   4.709   9.501  1.5697  2.5402 -0.4806
14920SOL    HW247653   6.627   4.773   9.624 -0.4346  0.8147 -0.5072
14921SOL     OW47654   3.158   4.985   6.065  0.3073  0.0626 -0.3915
14921SOL    HW147655   3.088   5.022   6.012  0.2699  0.2759 -0.1938
14921SOL    HW247656   3.113   4.938   6.135  0.3435  1.5690  0.6984
14922SOL     OW47657   5.384   6.831   2.310  0.1560  0.1777 -0.3488
14922SOL    HW147658   5.392   6.742   2.343  0.2374  0.3505  0.1090
14922SOL    HW247659   5.310   6.868   2.358 -0.7175 -0.0427 -1.4638
14923SOL     OW47660   1.458   8.617   2.864  0.2226 -0.3823 -0.0200
14923SOL    HW147661   1.401   8.665   2.804  0.6233 -0.0998 -0.1747
14923SOL    HW247662   1.511   8.685   2.906  1.8958 -0.8055 -1.3702
14924SOL     OW47663   5.641   4.448   3.790  0.1318  0.1327 -0.3813
14924SOL    HW147664   5.723   4.484   3.822  0.1969 -0.0442 -0.3492
14924SOL    HW247665   5.580   4.459   3.863  0.2107 -0.0264 -0.2898
14925SOL     OW47666   1.938   7.070   8.109 -0.0320  0.0248  0.4931
14925SOL    HW147667   1.863   7.063   8.168 -0.0284  0.1979  0.5172
14925SOL    HW247668   1.907   7.032   8.027  0.2997 -1.2136  0.9169
14926SOL     OW47669   4.704   6.055   3.746  0.3711 -0.3478  0.0519
14926SOL    HW147670   4.673   5.966   3.731 -0.7267 -0.1727  1.0690
14926SOL    HW247671   4.644   6.110   3.697 -0.8139 -0.0246  1.7644
14927SOL     OW47672   6.537   2.415   0.449  0.3080 -0.2189  0.2214
14927SOL    HW147673   6.446   2.387   0.460  0.5583 -0.4732  2.0321
14927SOL    HW247674   6.566   2.372   0.369 -1.5453  0.9698 -1.1666
14928SOL     OW47675   4.395   6.622   5.784 -0.0229 -0.5614 -0.2318
14928SOL    HW147676   4.315   6.574   5.762 -1.6062  1.2082  1.2355
14928SOL    HW247677   4.397   6.622   5.880  1.4714 -0.1039 -0.2398
14929SOL     OW47678   3.606   8.792   7.958  0.3268 -0.5546  0.0064
14929SOL    HW147679   3.590   8.872   7.907  1.9683  0.0703  0.3904
14929SOL    HW247680   3.587   8.816   8.048  0.7866 -0.5846  0.1186
14930SOL     OW47681   4.842   8.741   4.526  0.3547 -0.2123 -0.7882
14930SOL    HW147682   4.816   8.815   4.471 -0.5765  0.3953  0.4174
14930SOL    HW247683   4.765   8.684   4.526  0.1633  0.0403  0.2741
14931SOL     OW47684   3.699   2.043   7.034 -0.7935 -0.2519 -0.9065
14931SOL    HW147685   3.782   1.998   7.049 -0.7145 -0.1158 -0.9351
14931SOL    HW247686   3.655   1.991   6.967 -0.0535  0.5474 -2.0537
14932SOL     OW47687   8.640   0.204   5.020 -0.0046 -0.5417 -0.1697
14932SOL    HW147688   8.672   0.290   4.994  1.1010 -0.8541  0.1224
14932SOL    HW247689   8.618   0.214   5.113 -0.9534 -0.2847 -0.4071
14933SOL     OW47690   3.528   2.689   3.088 -0.8226 -0.4261 -0.1353
14933SOL    HW147691   3.612   2.731   3.104 -0.9475  0.0594 -0.7154
14933SOL    HW247692   3.488   2.741   3.018  0.0655 -2.8728 -2.6840
14934SOL     OW47693   2.578   2.449   8.210  0.2070  0.2509 -0.4408
14934SOL    HW147694   2.521   2.440   8.286  0.1857 -2.2159 -0.6663
14934SOL    HW247695   2.667   2.452   8.247  0.1858 -0.7319 -0.2921
14935SOL     OW47696   3.789   8.842   0.107  0.3048 -0.3954 -0.2009
14935SOL    HW147697   3.779   8.765   0.050  0.9342  0.7369 -1.9467
14935SOL    HW247698   3.858   8.817   0.169 -0.0181 -1.4940 -0.2622
14936SOL     OW47699   3.816   5.254   7.179  0.2339  0.4363 -0.2323
14936SOL    HW147700   3.824   5.173   7.229  0.6962  0.9691  0.5665
14936SOL    HW247701   3.899   5.261   7.132 -0.1248  0.0368 -0.9529
14937SOL     OW47702   6.929   4.543   4.605  0.2791  0.4669 -0.2770
14937SOL    HW147703   6.926   4.636   4.585 -1.4524  0.3633 -0.7072
14937SOL    HW247704   6.897   4.538   4.696 -0.3081  0.2578 -0.4883
14938SOL     OW47705   7.329   3.844   3.929  0.0050 -0.1782 -0.2966
14938SOL    HW147706   7.373   3.769   3.889 -1.1814  0.9128 -4.0586
14938SOL    HW247707   7.399   3.906   3.948  0.7129 -1.1600  0.4045
14939SOL     OW47708   8.296   1.384   4.946  0.2899  0.0787 -0.0636
14939SOL    HW147709   8.205   1.414   4.938  0.3599 -0.0352 -1.4932
14939SOL    HW247710   8.348   1.460   4.920  0.5116 -0.6207 -1.8142
14940SOL     OW47711   6.326   6.776   3.153  0.0965  0.5074  0.6371
14940SOL    HW147712   6.312   6.683   3.134  0.3722  0.8759 -1.7608
14940SOL    HW247713   6.367   6.777   3.239  3.6479 -1.9193 -0.7618
14941SOL     OW47714   5.582   4.708   7.626 -0.3775 -0.0915 -0.4116
14941SOL    HW147715   5.617   4.787   7.667 -1.1872  0.6799 -1.1839
14941SOL    HW247716   5.653   4.643   7.635  0.1054  0.5547  0.6687
14942SOL     OW47717   3.211   5.124   7.418  0.3436  0.2916 -0.3713
14942SOL    HW147718   3.196   5.100   7.509 -2.5783 -1.3659 -1.1724
14942SOL    HW247719   3.198   5.219   7.416 -2.0896  0.0510  0.6055
14943SOL     OW47720   4.226   7.209   3.352  0.5848 -0.4211  0.1178
14943SOL    HW147721   4.278   7.274   3.305  0.8645 -0.0781  0.8812
14943SOL    HW247722   4.143   7.253   3.370  0.1384 -0.8566 -0.8150
14944SOL     OW47723   8.173   0.053   7.831  0.4302 -0.5684  0.2184
14944SOL    HW147724   8.197   0.141   7.859  1.8398 -0.3350 -1.5610
14944SOL    HW247725   8.242  -0.003   7.867  1.1267 -0.5266 -0.9758
14945SOL     OW47726   2.707   1.892   5.850 -0.0833 -0.1969 -0.3712
14945SOL    HW147727   2.731   1.980   5.822  0.8257 -0.8725 -1.7942
14945SOL    HW247728   2.686   1.845   5.770  0.6925 -1.6409  0.2179
14946SOL     OW47729   6.964   6.521   7.824 -0.1011 -0.8080 -0.0526
14946SOL    HW147730   6.879   6.482   7.803 -0.3446 -0.1188 -0.3868
14946SOL    HW247731   7.013   6.518   7.742 -0.7135  1.0423 -0.5214
14947SOL     OW47732   8.063   7.131   0.549  0.3054  0.0934 -1.0162
14947SOL    HW147733   8.015   7.115   0.630  2.0792 -1.3427 -0.1824
14947SOL    HW247734   8.026   7.213   0.515 -1.6100 -0.1366  0.3559
14948SOL     OW47735   1.385   3.310   7.002  0.1414 -0.4402  0.7963
14948SOL    HW147736   1.388   3.346   7.091 -1.1901 -1.1304  1.1543
14948SOL    HW247737   1.293   3.321   6.976  0.3175 -1.0950 -0.1278
14949SOL     OW47738   5.952   6.366   0.652 -0.1029 -0.1904 -0.5652
14949SOL    HW147739   5.971   6.368   0.559  2.1016  1.3884 -0.1496
14949SOL    HW247740   5.989   6.447   0.687 -3.3939  0.7184  1.2803
14950SOL     OW47741   7.413   5.412   0.992 -0.3138 -0.1114  0.1302
14950SOL    HW147742   7.356   5.360   0.935  0.0714  0.2961 -0.6509
14950SOL    HW247743   7.361   5.489   1.014 -0.0989  0.2393 -0.5476
14951SOL     OW47744   8.071   9.594   0.765  0.5761 -0.4017  0.2276
14951SOL    HW147745   8.051   9.522   0.825  1.8478 -1.3589 -0.4315
14951SOL    HW247746   8.166   9.588   0.752  0.4286  0.1521 -1.3729
14952SOL     OW47747   0.404   2.430   7.093 -0.0728  0.1567 -0.4842
14952SOL    HW147748   0.436   2.416   7.004 -0.1188  1.9551 -0.8056
14952SOL    HW247749   0.326   2.484   7.083 -2.4614 -2.8168  0.3956
14953SOL     OW47750   0.737   1.247   1.260  0.6707 -0.7434 -0.0322
14953SOL    HW147751   0.767   1.157   1.266  1.4391 -0.5478 -0.7500
14953SOL    HW247752   0.673   1.247   1.189  1.3733 -0.5513 -0.6743
14954SOL     OW47753   4.067   6.597   7.778 -0.2863  0.0387  0.2647
14954SOL    HW147754   4.086   6.547   7.857 -0.4003 -0.5033 -0.0422
14954SOL    HW247755   4.033   6.532   7.716  1.3187  0.1415 -0.7861
14955SOL     OW47756   8.945   5.257   1.883  0.2223  0.3820  0.2099
14955SOL    HW147757   9.029   5.229   1.847  0.1878 -0.0156  0.4322
14955SOL    HW247758   8.880   5.202   1.840  0.0258  0.9884 -0.2884
14956SOL     OW47759   7.137   5.855   3.952  0.0609 -0.5700  0.5644
14956SOL    HW147760   7.232   5.857   3.948  0.0473 -0.1439  0.3634
14956SOL    HW247761   7.115   5.916   4.023 -0.0990  0.2433 -0.1597
14957SOL     OW47762   1.430   0.672   2.913  0.2353 -0.3040 -0.4737
14957SOL    HW147763   1.525   0.656   2.907  0.4499 -0.2691  1.9112
14957SOL    HW247764   1.391   0.585   2.904  0.5417 -0.4298 -0.6047
14958SOL     OW47765   9.602   9.499   2.894 -0.1803  0.2773  0.0432
14958SOL    HW147766   9.608   9.453   2.811  0.6231 -0.9078  0.7254
14958SOL    HW247767   9.690   9.492   2.932  0.3316  3.4080 -0.3259
14959SOL     OW47768   2.340   6.488   4.072 -0.3373 -0.3078  0.1116
14959SOL    HW147769   2.253   6.452   4.087 -0.0384 -1.6069 -1.0144
14959SOL    HW247770   2.362   6.461   3.982  2.2177 -2.2849  1.1880
14960SOL     OW47771   8.938   9.071   3.648 -0.4024  0.2779  0.0897
14960SOL    HW147772   8.950   9.078   3.553  0.4598 -0.4699  0.1323
14960SOL    HW247773   8.873   9.001   3.659  3.1165 -3.3264  0.1291
14961SOL     OW47774   5.207   7.735   7.440 -0.5325 -0.5325 -0.8315
14961SOL    HW147775   5.125   7.785   7.438  0.9960  2.2411  0.4322
14961SOL    HW247776   5.244   7.746   7.352  0.0191  1.1589 -0.4436
14962SOL     OW47777   8.286   9.480   2.621 -0.8569 -0.3343  0.3193
14962SOL    HW147778   8.280   9.391   2.657 -0.5054 -0.2582  0.5737
14962SOL    HW247779   8.283   9.537   2.697  1.2672 -0.2233  0.3897
14963SOL     OW47780   2.741   5.207   8.912  0.1718 -0.0534  0.4032
14963SOL    HW147781   2.829   5.203   8.949  1.2096 -0.8842 -1.9205
14963SOL    HW247782   2.706   5.291   8.941  2.8294  1.5964 -0.8276
14964SOL     OW47783   8.606   1.610   4.899 -0.2261  0.0507 -0.2290
14964SOL    HW147784   8.517   1.642   4.885  0.4967  1.8538 -1.0117
14964SOL    HW247785   8.638   1.587   4.812 -0.5831 -2.5975  0.2665
14965SOL     OW47786   9.251   8.878   2.414 -0.6258  0.2817 -0.4352
14965SOL    HW147787   9.267   8.952   2.355  0.6770  0.9246  0.6746
14965SOL    HW247788   9.262   8.914   2.502  3.3591 -1.7832  0.1836
14966SOL     OW47789   5.672   1.963   9.239  0.3362  0.2601  0.8534
14966SOL    HW147790   5.634   1.947   9.325 -0.0002 -2.3904  0.3120
14966SOL    HW247791   5.688   1.875   9.203  1.2954  1.2750 -1.4276
14967SOL     OW47792   7.195   9.457   4.166  0.0985  0.0232  0.4319
14967SOL    HW147793   7.261   9.483   4.230 -0.0903  0.4731  0.4537
14967SOL    HW247794   7.216   9.508   4.088  0.4725 -0.7080  0.0489
14968SOL     OW47795   9.164   1.061   5.576  0.0057 -0.3543  0.0849
14968SOL    HW147796   9.173   1.142   5.625  0.1984 -0.9680  1.1048
14968SOL    HW247797   9.253   1.034   5.555 -0.1179  0.7127 -2.0405
14969SOL     OW47798   9.007   7.262   3.867  0.2573 -0.5988  0.0090
14969SOL    HW147799   8.998   7.327   3.798 -0.3298  1.0898  1.5770
14969SOL    HW247800   9.098   7.271   3.895  0.5535 -1.4303 -0.6664
14970SOL     OW47801   9.176   5.221   8.854 -0.1301 -0.2743 -0.2271
14970SOL    HW147802   9.241   5.162   8.817  0.6543  0.1831  0.3746
14970SOL    HW247803   9.099   5.167   8.868  0.5309 -1.1311  0.1900
14971SOL     OW47804   4.754   3.523   3.149 -0.4049 -0.3141  0.1310
14971SOL    HW147805   4.815   3.462   3.191  1.8150  1.1612 -0.7913
14971SOL    HW247806   4.706   3.469   3.087  2.2144 -1.0750 -1.4098
14972SOL     OW47807   9.378   5.728   7.053 -0.0388 -0.1252  0.1889
14972SOL    HW147808   9.462   5.768   7.074  0.2454  0.0522 -1.1708
14972SOL    HW247809   9.398   5.635   7.044 -0.0048 -0.0998 -0.0091
14973SOL     OW47810   8.848   6.768   3.969 -0.2563  0.1677  0.9243
14973SOL    HW147811   8.918   6.721   3.922 -0.9272  1.4690 -1.5893
14973SOL    HW247812   8.892   6.810   4.042  0.7726 -2.3773  1.8855
14974SOL     OW47813   5.333   4.025   3.045 -0.3359 -0.4005 -0.7644
14974SOL    HW147814   5.406   3.992   3.097  0.0602  0.0411 -1.0371
14974SOL    HW247815   5.256   3.980   3.081 -0.1115  0.0971  0.3726
14975SOL     OW47816   4.971   0.905   6.905 -0.3956  0.2530 -0.0000
14975SOL    HW147817   4.952   0.865   6.990 -2.2108  0.0178 -0.4639
14975SOL    HW247818   4.985   0.997   6.924  1.8356 -0.1987  0.8344
14976SOL     OW47819   2.822   5.469   6.450  0.0233  0.4053  0.0027
14976SOL    HW147820   2.906   5.509   6.473 -0.0019  1.0292 -0.9543
14976SOL    HW247821   2.769   5.541   6.416 -0.2910 -0.2936 -1.0511
14977SOL     OW47822   2.764   1.147   2.225  0.2436  0.7146  0.4840
14977SOL    HW147823   2.835   1.163   2.287  2.2057 -1.4186 -1.0370
14977SOL    HW247824   2.699   1.099   2.274  1.0680  0.3931  1.2875
14978SOL     OW47825   4.356   9.380   3.048  0.0529  0.7761 -0.4586
14978SOL    HW147826   4.410   9.371   3.126 -0.1198  1.8149 -0.2036
14978SOL    HW247827   4.272   9.411   3.080 -0.0245  1.1908 -1.0433
14979SOL     OW47828   4.409   1.987   7.086  0.1047  0.6737 -0.0065
14979SOL    HW147829   4.393   2.007   6.993  0.7942  0.2523 -0.2269
14979SOL    HW247830   4.495   2.025   7.103  0.3158  0.0749  0.2520
14980SOL     OW47831   7.841   0.113   0.764  0.4595 -0.2143 -0.1933
14980SOL    HW147832   7.807   0.024   0.758  1.7107 -0.6643 -1.1404
14980SOL    HW247833   7.934   0.104   0.741  0.1673  1.6110 -2.4012
14981SOL     OW47834   3.498   0.928   0.225  0.2433 -0.1823 -0.7345
14981SOL    HW147835   3.585   0.924   0.187 -0.1753  2.0445 -2.0912
14981SOL    HW247836   3.438   0.917   0.151 -0.6297 -0.0086 -0.0760
14982SOL     OW47837   8.526   5.592   7.525  0.4586  0.1807 -0.3186
14982SOL    HW147838   8.547   5.513   7.576 -1.4735 -1.3829 -1.8268
14982SOL    HW247839   8.499   5.656   7.591  1.4400 -0.5860  0.8846
14983SOL     OW47840   1.786   0.551   1.312  0.3436 -0.7575  0.2280
14983SOL    HW147841   1.869   0.548   1.265  0.1071 -0.5651 -0.2050
14983SOL    HW247842   1.739   0.626   1.274  0.0449 -0.7594  0.5864
14984SOL     OW47843   2.083   1.774   5.029 -0.0237  0.3818 -0.1813
14984SOL    HW147844   2.019   1.836   4.995  2.1862  2.7548 -0.3653
14984SOL    HW247845   2.168   1.810   5.002  1.4885 -1.7201  1.4105
14985SOL     OW47846   9.039   8.496   5.873 -0.1231  0.4777  0.0032
14985SOL    HW147847   9.005   8.549   5.946  0.2970 -0.3343  0.8178
14985SOL    HW247848   9.085   8.424   5.916 -0.2010 -0.2410 -1.0799
14986SOL     OW47849   7.933   5.523   0.725  0.4604 -0.4019  0.5229
14986SOL    HW147850   7.958   5.526   0.818  0.7111 -0.0738  0.4477
14986SOL    HW247851   7.867   5.591   0.715  0.0459 -0.7908  0.5683
14987SOL     OW47852   0.280   4.496   9.471  0.4877 -0.2383  0.1487
14987SOL    HW147853   0.295   4.409   9.433 -0.2002  0.6092 -2.2859
14987SOL    HW247854   0.281   4.555   9.395 -0.5645  1.6877  1.5489
14988SOL     OW47855   3.086   8.743   6.227  0.3598 -0.1590  0.1626
14988SOL    HW147856   3.087   8.808   6.157  2.3392 -0.2542  0.0498
14988SOL    HW247857   2.997   8.748   6.263 -0.4234  0.5290 -1.7349
14989SOL     OW47858   4.010   9.373   8.460  0.1821 -0.1193 -0.4392
14989SOL    HW147859   4.044   9.293   8.420  0.0281 -2.2491  3.2135
14989SOL    HW247860   4.084   9.409   8.509 -0.1210  1.2657 -0.9578
14990SOL     OW47861   4.920   0.114   8.421  0.0442  0.4471 -0.0260
14990SOL    HW147862   4.846   0.112   8.361 -0.8529 -1.6977  1.0454
14990SOL    HW247863   4.896   0.179   8.487 -1.0770 -0.4287  0.4698
14991SOL     OW47864   2.276   9.145   4.229 -0.4959  0.2026  0.6618
14991SOL    HW147865   2.184   9.127   4.248 -0.2930 -0.4451  1.0628
14991SOL    HW247866   2.279   9.156   4.133 -0.8900 -0.4102  0.5743
14992SOL     OW47867   3.968   7.216   2.118  0.2345  0.4787 -0.1531
14992SOL    HW147868   3.961   7.137   2.065 -2.2740 -0.8841  1.9432
14992SOL    HW247869   3.991   7.185   2.205  0.7935  2.2430  0.3739
14993SOL     OW47870   2.159   5.696   3.247  0.0947  0.3611 -0.0894
14993SOL    HW147871   2.181   5.770   3.304  0.5903 -0.4166  0.7692
14993SOL    HW247872   2.070   5.672   3.272  0.3306 -0.0135  0.4247
14994SOL     OW47873   0.770   4.646   8.810 -0.3212 -0.5476  0.4629
14994SOL    HW147874   0.832   4.678   8.744 -1.1934  3.0546  1.1752
14994SOL    HW247875   0.688   4.634   8.761 -1.2557  3.1172  0.8252
14995SOL     OW47876   0.714   4.125   8.891 -0.0771  0.1080  0.1709
14995SOL    HW147877   0.685   4.155   8.805 -0.1299 -0.2010  0.0799
14995SOL    HW247878   0.633   4.108   8.940 -0.1066 -1.7710 -0.4304
14996SOL     OW47879   8.864   9.347   5.504 -0.2943 -0.6160 -0.1954
14996SOL    HW147880   8.897   9.425   5.458 -2.0876  1.6282  2.0103
14996SOL    HW247881   8.908   9.274   5.462  3.1277  1.7088 -1.0487
14997SOL     OW47882   7.286   3.132   1.231 -0.0083  0.2856  0.3651
14997SOL    HW147883   7.344   3.058   1.250 -1.9957 -1.6018 -0.3775
14997SOL    HW247884   7.311   3.160   1.143  1.4601  1.2571  1.0586
14998SOL     OW47885   5.522   1.757   4.468  0.3175 -0.3009  0.1125
14998SOL    HW147886   5.461   1.684   4.460 -1.3760  1.1057 -0.5813
14998SOL    HW247887   5.608   1.716   4.478 -0.4775 -2.3694 -0.9695
14999SOL     OW47888   5.247   1.618   4.506 -0.8225  0.6763 -0.6144
14999SOL    HW147889   5.228   1.526   4.486 -1.0523  0.8494 -1.2147
14999SOL    HW247890   5.283   1.616   4.595 -1.8831  0.1294 -0.1820
15000SOL     OW47891   5.090   4.904   2.741  0.1040  0.3093  0.0720
15000SOL    HW147892   5.183   4.885   2.744  0.4315  1.6418 -0.5908
15000SOL    HW247893   5.052   4.833   2.690  0.8766  0.1349 -0.2686
15001SOL     OW47894   9.498   5.643   1.827  0.4281  0.0972 -0.4183
15001SOL    HW147895   9.543   5.565   1.858  0.5873  0.0676 -0.7194
15001SOL    HW247896   9.525   5.712   1.887  1.2508  0.1811 -0.8681
15002SOL     OW47897   0.288   7.776   4.661  0.3435  0.5496 -0.0005
15002SOL    HW147898   0.362   7.804   4.716  1.9625 -1.2417 -1.1446
15002SOL    HW247899   0.271   7.851   4.605 -0.0898  1.7241  1.6234
15003SOL     OW47900   6.324   2.832   1.262  0.1068  0.8424  0.0737
15003SOL    HW147901   6.253   2.886   1.297 -1.9264 -0.4330 -1.8759
15003SOL    HW247902   6.355   2.781   1.337 -2.5506 -0.1651  0.5677
15004SOL     OW47903   3.702   1.971   2.061 -0.0220  0.0653 -0.2691
15004SOL    HW147904   3.666   2.059   2.052  0.6876  0.5013  1.0093
15004SOL    HW247905   3.627   1.917   2.087 -0.1271  0.6110  0.5811
15005SOL     OW47906   1.516   1.275   0.386  0.1909  0.4452  0.1533
15005SOL    HW147907   1.587   1.215   0.410  1.5801  2.0867  0.3458
15005SOL    HW247908   1.481   1.238   0.305  0.6795 -0.8693  0.5040
15006SOL     OW47909   0.334   1.416   0.897 -0.0532  0.0160  0.2267
15006SOL    HW147910   0.274   1.490   0.895 -0.4216 -0.2911 -1.1873
15006SOL    HW247911   0.280   1.342   0.925  0.2839  0.2406  1.5080
15007SOL     OW47912   3.198   1.115   5.553  0.3886  0.0944 -0.2857
15007SOL    HW147913   3.235   1.139   5.638  0.3365  1.0290 -0.5233
15007SOL    HW247914   3.265   1.141   5.490 -0.0199  0.3698 -0.6074
15008SOL     OW47915   7.136   2.621   2.921 -0.1341  0.1699  0.1407
15008SOL    HW147916   7.167   2.652   3.007 -0.5320  0.3659  0.2181
15008SOL    HW247917   7.169   2.686   2.859 -1.9084  1.4186  0.4259
15009SOL     OW47918   1.843   4.382   0.223  0.1655 -0.3741 -0.0242
15009SOL    HW147919   1.890   4.377   0.140  1.0204  0.0783  0.4132
15009SOL    HW247920   1.898   4.439   0.278 -1.3352  0.9071  0.2201
15010SOL     OW47921   1.309   8.065   1.174 -0.1560 -0.1061  0.0968
15010SOL    HW147922   1.336   8.139   1.120  0.2168 -0.1885  0.1715
15010SOL    HW247923   1.390   8.026   1.204 -0.3022  1.1205  2.3606
15011SOL     OW47924   2.725   8.556   1.636  0.2015 -0.3455 -0.1100
15011SOL    HW147925   2.675   8.627   1.596  0.9393  1.1789  1.4817
15011SOL    HW247926   2.776   8.600   1.705  0.7594 -2.4330  0.8819
15012SOL     OW47927   5.936   7.413   5.337  0.0750 -0.2039 -0.3306
15012SOL    HW147928   5.846   7.437   5.316  0.3639 -0.5741 -2.1242
15012SOL    HW247929   5.930   7.372   5.423 -1.6964 -1.5021 -1.0125
15013SOL     OW47930   9.397   0.686   1.685 -0.3870  0.2245 -0.3960
15013SOL    HW147931   9.475   0.663   1.635 -0.2160  0.0543 -0.0540
15013SOL    HW247932   9.389   0.781   1.673  0.1613  0.3243 -0.0284
15014SOL     OW47933   7.334   0.197   5.505 -0.8473  0.6905  0.0495
15014SOL    HW147934   7.250   0.235   5.479 -0.4166  1.9008  0.3663
15014SOL    HW247935   7.352   0.130   5.439 -1.9332  0.6022 -0.1672
15015SOL     OW47936   9.060   1.825   0.623  0.0706 -0.3310  0.4904
15015SOL    HW147937   9.082   1.773   0.546 -1.4824  0.1355 -0.3103
15015SOL    HW247938   9.102   1.910   0.608  0.1330 -0.3842  0.3642
15016SOL     OW47939   5.042   3.779   7.629 -0.1877  0.2220 -0.3112
15016SOL    HW147940   5.106   3.787   7.558 -1.4669  2.7146 -1.3169
15016SOL    HW247941   5.091   3.805   7.707  0.9273 -1.4322 -0.3976
15017SOL     OW47942   8.047   0.858   4.255  0.2754 -0.0341  0.5409
15017SOL    HW147943   8.005   0.917   4.192 -0.4906 -0.0800  0.9970
15017SOL    HW247944   8.140   0.863   4.233 -0.0625 -0.8572 -1.2912
15018SOL     OW47945   8.747   5.206   1.178  0.1203 -0.0597 -0.2977
15018SOL    HW147946   8.804   5.274   1.215 -1.2162 -0.0424  1.9556
15018SOL    HW247947   8.659   5.236   1.199 -0.5880 -1.5509 -1.0096
15019SOL     OW47948   1.400   7.353   3.434  0.1193  0.4975  0.0677
15019SOL    HW147949   1.445   7.346   3.518  3.8445 -0.7796 -1.7771
15019SOL    HW247950   1.448   7.423   3.388 -2.6360  2.0551 -0.6462
15020SOL     OW47951   8.538   2.428   8.869  0.2850  0.2308  0.5688
15020SOL    HW147952   8.582   2.352   8.831 -1.7602 -0.9247  0.3522
15020SOL    HW247953   8.504   2.397   8.953 -0.1011  1.0806  0.7405
15021SOL     OW47954   8.385   4.696   3.653 -0.0355 -0.4333 -0.3760
15021SOL    HW147955   8.299   4.653   3.658 -0.4366  0.0345 -2.4415
15021SOL    HW247956   8.446   4.630   3.685 -0.8371 -1.9341 -1.7790
15022SOL     OW47957   5.901   2.562   9.044 -0.4148 -0.4376  0.6647
15022SOL    HW147958   5.838   2.491   9.056 -0.8134 -0.1175  0.4929
15022SOL    HW247959   5.861   2.637   9.088 -0.8357  0.1551 -0.6665
15023SOL     OW47960   8.120   5.897   9.132 -0.0298  0.0850 -0.0132
15023SOL    HW147961   8.186   5.915   9.065  0.9267  0.9735  1.1242
15023SOL    HW247962   8.124   5.973   9.190  0.0662 -1.2187  1.7699
15024SOL     OW47963   0.072   5.458   5.350 -0.2990  0.4020  0.0166
15024SOL    HW147964   0.158   5.463   5.391  0.3530 -1.0046 -1.0960
15024SOL    HW247965   0.085   5.489   5.261 -1.0022  0.4101 -0.0959
15025SOL     OW47966   3.414   4.393   9.225 -0.0574 -0.0079  0.0940
15025SOL    HW147967   3.320   4.413   9.225 -0.3488 -1.3211  0.3248
15025SOL    HW247968   3.425   4.328   9.155  0.4694 -0.7923  0.8893
15026SOL     OW47969   6.304   5.622   8.441 -0.5417  0.0625  0.4116
15026SOL    HW147970   6.300   5.637   8.536  0.1708  0.4321  0.3871
15026SOL    HW247971   6.375   5.559   8.429 -0.1735  0.5352  0.0670
15027SOL     OW47972   8.911   3.045   6.425  0.1570 -0.2715 -0.2829
15027SOL    HW147973   8.825   3.077   6.400 -0.2727 -1.8982 -0.9423
15027SOL    HW247974   8.958   3.032   6.342  1.0011  0.4347  0.0589
15028SOL     OW47975   2.424   4.607   2.926 -0.2584  0.2094  0.0600
15028SOL    HW147976   2.364   4.679   2.908  1.5690  1.3086 -2.2405
15028SOL    HW247977   2.373   4.528   2.908 -1.4087  1.0445 -0.4636
15029SOL     OW47978   5.245   6.599   7.866  1.0357 -0.1242  0.1431
15029SOL    HW147979   5.159   6.570   7.835  2.2623 -1.5167 -2.2570
15029SOL    HW247980   5.246   6.577   7.959 -0.4467 -2.0198 -0.2362
15030SOL     OW47981   7.404   3.675   7.333 -0.1022 -1.2373 -0.2973
15030SOL    HW147982   7.367   3.660   7.419 -2.5570  1.6024 -0.7067
15030SOL    HW247983   7.331   3.662   7.272  0.3348  1.3074 -1.4786
15031SOL     OW47984   6.092   1.968   0.829  0.1729 -0.5269 -0.1202
15031SOL    HW147985   6.073   2.006   0.744  1.6988  0.7660  0.0701
15031SOL    HW247986   6.021   1.999   0.885  1.2295  2.0257 -0.0250
15032SOL     OW47987   1.334   8.298   1.604 -0.6487 -0.1637  0.0139
15032SOL    HW147988   1.427   8.321   1.597 -0.6555 -0.4840 -1.5310
15032SOL    HW247989   1.323   8.270   1.695  0.7081  0.1038  0.2865
15033SOL     OW47990   9.566   6.488   0.762 -0.5501  0.0287 -0.1458
15033SOL    HW147991   9.581   6.578   0.791 -1.6959  0.2475 -0.2066
15033SOL    HW247992   9.628   6.476   0.690  1.0370  0.0808  1.1566
15034SOL     OW47993   5.465   5.148   0.649 -0.0897 -0.0905  0.0208
15034SOL    HW147994   5.379   5.190   0.646 -0.8817 -1.5849  0.8305
15034SOL    HW247995   5.468   5.105   0.734  1.6630  0.3099  0.2018
15035SOL     OW47996   0.043   2.584   7.855  0.0736  0.2306 -0.3169
15035SOL    HW147997   0.044   2.627   7.770  1.8761 -1.8173 -1.4610
15035SOL    HW247998   0.136   2.566   7.873 -0.4913 -3.6868 -0.3734
15036SOL     OW47999   1.566   6.380   4.642 -0.8479  0.0183  0.4516
15036SOL    HW148000   1.639   6.330   4.678 -0.8378  0.0353  0.4543
15036SOL    HW248001   1.496   6.315   4.632 -0.3480 -0.3267 -0.9988
15037SOL     OW48002   9.015   6.027   8.013 -0.6536 -0.1966  0.1241
15037SOL    HW148003   8.974   6.111   7.996 -1.2839 -0.9832 -2.6941
15037SOL    HW248004   9.017   5.983   7.928  2.8926 -1.6312  0.7755
15038SOL     OW48005   5.920   6.098   2.021  0.4058 -0.2553  0.0530
15038SOL    HW148006   5.870   6.027   1.981  0.3275  0.3342 -0.9306
15038SOL    HW248007   5.872   6.120   2.100  0.8351 -1.7847  0.7805
15039SOL     OW48008   1.268   9.398   4.195  0.2722 -0.3254 -0.3326
15039SOL    HW148009   1.250   9.309   4.165 -0.0239 -0.3995  0.0616
15039SOL    HW248010   1.335   9.430   4.135 -0.6182 -0.3105 -1.3432
15040SOL     OW48011   7.062   4.790   4.950  0.1390 -0.6680  0.3720
15040SOL    HW148012   7.123   4.862   4.934 -3.8916  3.1276  0.0472
15040SOL    HW248013   7.029   4.766   4.864 -0.6369 -0.8063  0.6931
15041SOL     OW48014   7.445   4.883   2.233 -0.2738 -0.7922  0.0045
15041SOL    HW148015   7.460   4.829   2.155 -0.0766  0.4821 -0.8658
15041SOL    HW248016   7.370   4.938   2.209  0.7510  0.7137  0.0901
15042SOL     OW48017   1.905   1.860   0.790  0.1394 -0.2830  0.1244
15042SOL    HW148018   1.892   1.925   0.721  1.5065 -1.0944 -0.9592
15042SOL    HW248019   1.825   1.807   0.788 -1.8767  2.3368  2.2946
15043SOL     OW48020   3.440   8.824   3.247 -0.0668  0.0642  0.0812
15043SOL    HW148021   3.351   8.790   3.248  0.1395 -0.7145 -2.1279
15043SOL    HW248022   3.494   8.750   3.275  0.0829 -0.3887 -1.3177
15044SOL     OW48023   8.540   6.051   6.258 -0.6939 -0.6232  0.0186
15044SOL    HW148024   8.557   6.081   6.347  1.3184  2.2115 -1.1611
15044SOL    HW248025   8.467   6.105   6.227 -1.0364 -1.2177 -0.2205
15045SOL     OW48026   7.259   2.426   8.432 -0.1229  0.1157 -0.3245
15045SOL    HW148027   7.184   2.403   8.488  0.4068 -0.9679 -0.0212
15045SOL    HW248028   7.254   2.365   8.359  0.0147  0.5617 -0.7070
15046SOL     OW48029   6.786   4.366   8.962  0.0195 -0.3920 -0.1207
15046SOL    HW148030   6.758   4.287   9.009 -0.7621  0.1331  0.3321
15046SOL    HW248031   6.880   4.354   8.949  0.0680 -1.0213  0.6911
15047SOL     OW48032   2.354   2.246   1.050  0.4787 -0.0068 -0.3074
15047SOL    HW148033   2.383   2.155   1.039  1.0669  0.4257 -2.8417
15047SOL    HW248034   2.260   2.243   1.031  0.7056  0.0729 -1.4718
15048SOL     OW48035   0.558   8.399   0.911 -0.5848  0.0375 -0.0960
15048SOL    HW148036   0.587   8.364   0.995  2.9195 -2.1208 -1.9669
15048SOL    HW248037   0.607   8.481   0.900 -1.4133  0.5771  0.1226
15049SOL     OW48038   1.530   9.395   1.125  0.1315 -0.2125  0.7170
15049SOL    HW148039   1.598   9.399   1.192  0.7121  1.2309  0.0863
15049SOL    HW248040   1.528   9.303   1.098  1.2215 -0.4422  1.3618
15050SOL     OW48041   8.957   5.721   7.614 -0.5758 -0.1188 -0.2808
15050SOL    HW148042   8.909   5.668   7.549 -0.3818 -0.8389  0.1505
15050SOL    HW248043   9.017   5.774   7.562 -0.4441 -0.6651 -0.6989
15051SOL     OW48044   8.290   0.587   0.648 -0.5841 -0.1275  0.1359
15051SOL    HW148045   8.297   0.554   0.558 -2.3466 -0.5342  0.0999
15051SOL    HW248046   8.297   0.682   0.640 -1.2455 -0.1252 -0.5084
15052SOL     OW48047   0.257   8.439   3.110  0.0895 -0.3716  0.1618
15052SOL    HW148048   0.312   8.366   3.080  0.3272 -0.1655  0.0910
15052SOL    HW248049   0.197   8.400   3.173  0.3355 -0.5942  0.2589
15053SOL     OW48050   7.759   4.704   0.139  0.0187  0.7782 -0.0709
15053SOL    HW148051   7.838   4.651   0.143 -0.9033 -1.2591 -4.1111
15053SOL    HW248052   7.688   4.645   0.162 -0.9063  0.3915 -3.4465
15054SOL     OW48053   6.117   1.592   9.346  0.6482  0.0708 -0.2283
15054SOL    HW148054   6.099   1.521   9.284 -0.4045 -0.7501  0.9720
15054SOL    HW248055   6.042   1.592   9.405  1.4842  1.0267  0.8743
15055SOL     OW48056   4.227   6.208   6.585  0.5915  0.6543  0.0713
15055SOL    HW148057   4.134   6.184   6.593 -0.1350  3.0090 -0.3614
15055SOL    HW248058   4.248   6.193   6.493  0.7508 -0.2037  0.2424
15056SOL     OW48059   0.513   9.621   6.853 -0.0996 -0.2026 -0.4888
15056SOL    HW148060   0.559   9.693   6.897  0.7701 -0.9089 -0.1973
15056SOL    HW248061   0.554   9.617   6.767  0.9993 -1.3659  0.0621
15057SOL     OW48062   4.331   3.258   0.073  0.5032  0.2997  0.0496
15057SOL    HW148063   4.353   3.351   0.072  1.0622  0.1801  0.5585
15057SOL    HW248064   4.235   3.256   0.065  0.5139  0.9035 -0.2805
15058SOL     OW48065   3.051   5.193   8.602  0.1854 -0.3909  0.4886
15058SOL    HW148066   3.062   5.254   8.529 -3.4628 -0.7311 -0.5511
15058SOL    HW248067   3.076   5.108   8.565  1.0239 -0.1759  0.5443
15059SOL     OW48068   9.132   2.612   5.845 -0.1246  0.0652 -0.1438
15059SOL    HW148069   9.060   2.564   5.884 -0.6269  2.6659  2.5033
15059SOL    HW248070   9.201   2.547   5.833 -1.5938 -1.7701  0.9123
15060SOL     OW48071   5.621   5.124   1.459 -0.0840  0.3177  0.0462
15060SOL    HW148072   5.611   5.169   1.543  2.0961  1.5847 -0.2992
15060SOL    HW248073   5.669   5.044   1.480 -0.6697 -0.0181  0.1466
15061SOL     OW48074   4.234   5.406   1.814 -0.9181 -0.6379  0.0858
15061SOL    HW148075   4.184   5.324   1.817 -0.4153 -0.9293  0.7749
15061SOL    HW248076   4.205   5.453   1.893 -0.4435 -0.6085  0.2426
15062SOL     OW48077   4.756   6.513   3.751 -0.0899 -0.6115 -0.1118
15062SOL    HW148078   4.843   6.476   3.735 -0.0118 -0.5216  0.0945
15062SOL    HW248079   4.748   6.583   3.686  1.2693  1.4734  1.7761
15063SOL     OW48080   1.968   9.540   8.883  0.6707  0.0774  0.4513
15063SOL    HW148081   1.896   9.596   8.854  0.3122  0.1275  1.4021
15063SOL    HW248082   1.989   9.487   8.806  0.3370  0.7970 -0.1575
15064SOL     OW48083   6.097   0.122   2.409  0.1724  0.0941  0.3852
15064SOL    HW148084   6.077   0.118   2.503 -0.1373  1.4746  0.3980
15064SOL    HW248085   6.192   0.110   2.405 -0.0274 -1.9771  0.6875
15065SOL     OW48086   8.826   1.700   7.515  0.0397  0.1996 -0.2808
15065SOL    HW148087   8.915   1.736   7.515 -0.2726  1.0120  0.7472
15065SOL    HW248088   8.835   1.614   7.475  1.9835 -1.4495  3.2641
15066SOL     OW48089   7.022   9.233   0.740 -0.0749  0.2156 -0.1161
15066SOL    HW148090   7.072   9.215   0.820  0.1108 -0.1597 -0.3138
15066SOL    HW248091   6.931   9.238   0.769  0.1917  2.7598  0.5652
15067SOL     OW48092   3.871   6.788   1.461  0.5160 -0.1045  0.1754
15067SOL    HW148093   3.865   6.735   1.540  1.2435 -0.8894 -0.2831
15067SOL    HW248094   3.962   6.780   1.432  0.3815  0.5470 -0.4830
15068SOL     OW48095   9.578   7.445   8.118 -0.0814  0.0293 -0.1722
15068SOL    HW148096   9.610   7.360   8.086  2.0381  0.4925  0.5405
15068SOL    HW248097   9.507   7.423   8.178 -0.4350 -1.1612 -1.0013
15069SOL     OW48098   2.511   0.413   1.580 -1.2293 -0.0102  0.2186
15069SOL    HW148099   2.435   0.359   1.600 -0.2753 -0.9565  1.4976
15069SOL    HW248100   2.548   0.435   1.665  1.8151 -2.4399 -0.2712
15070SOL     OW48101   8.403   0.838   0.734 -0.5265 -0.0110  0.0751
15070SOL    HW148102   8.449   0.832   0.650 -0.5347 -1.5190  0.1537
15070SOL    HW248103   8.405   0.931   0.755 -0.5617  0.4030 -1.6102
15071SOL     OW48104   8.539   3.418   8.871 -0.2626  0.4036 -0.2573
15071SOL    HW148105   8.554   3.383   8.959  0.0446  0.4304 -0.3003
15071SOL    HW248106   8.625   3.417   8.829 -0.5682 -0.5430 -0.9050
15072SOL     OW48107   2.450   7.884   0.519  0.2248 -0.0074 -0.1070
15072SOL    HW148108   2.529   7.852   0.562 -1.1382 -2.1518  0.9532
15072SOL    HW248109   2.380   7.872   0.583 -1.6613 -2.0654 -2.3102
15073SOL     OW48110   5.735   0.253   3.416 -0.1660  0.6677 -0.0092
15073SOL    HW148111   5.659   0.300   3.451  0.1131  0.6230  0.6634
15073SOL    HW248112   5.768   0.311   3.347 -2.0679 -0.2785 -1.8252
15074SOL     OW48113   9.141   6.244   3.067 -0.1241 -0.2321  0.0994
15074SOL    HW148114   9.191   6.267   2.988 -0.0554 -0.9528 -0.0739
15074SOL    HW248115   9.056   6.285   3.054 -0.0735 -0.2475 -0.2981
15075SOL     OW48116   2.365   2.963   2.450  0.0367 -0.0732 -0.5113
15075SOL    HW148117   2.324   2.883   2.484 -0.7560  0.7539  0.5324
15075SOL    HW248118   2.295   3.006   2.401  0.3999  0.1047 -0.8782
15076SOL     OW48119   2.331   4.247   0.162 -0.0775 -0.0889 -0.1904
15076SOL    HW148120   2.382   4.208   0.233 -0.2720 -1.4402 -0.7474
15076SOL    HW248121   2.266   4.179   0.139 -2.9920  1.9834  1.2973
15077SOL     OW48122   4.913   5.358   0.759  0.0560 -0.1194  0.2128
15077SOL    HW148123   4.827   5.315   0.764  0.5186 -1.2907 -1.1100
15077SOL    HW248124   4.959   5.329   0.838 -0.0011 -1.2947 -0.1661
15078SOL     OW48125   3.293   3.406   9.168  0.1689 -0.3729 -0.2141
15078SOL    HW148126   3.344   3.325   9.166  1.8911  0.6599 -1.5991
15078SOL    HW248127   3.338   3.462   9.231  1.0407  0.6625 -1.6685
15079SOL     OW48128   1.136   0.165   3.653  0.3138  0.1178  0.3183
15079SOL    HW148129   1.197   0.146   3.724  0.4866  0.3669  0.2365
15079SOL    HW248130   1.092   0.081   3.636 -0.9815  0.4409  1.8955
15080SOL     OW48131   5.454   1.203   3.879 -0.4405 -0.8244 -0.1982
15080SOL    HW148132   5.543   1.191   3.846 -0.4217  0.5192 -0.6855
15080SOL    HW248133   5.464   1.270   3.947 -1.0071 -1.0502  0.1083
15081SOL     OW48134   6.270   5.264   1.118 -0.2774 -0.0912 -0.3864
15081SOL    HW148135   6.235   5.182   1.084  1.5851 -0.8667 -0.5153
15081SOL    HW248136   6.329   5.295   1.049 -0.7323  1.2320 -0.2160
15082SOL     OW48137   2.637   0.157   7.205 -0.0470 -0.2223 -0.6420
15082SOL    HW148138   2.662   0.065   7.208 -0.8130 -0.4614 -1.3446
15082SOL    HW248139   2.720   0.205   7.209  0.2894 -0.8753  1.5161
15083SOL     OW48140   8.794   0.780   1.496  0.0549  0.1636  0.3230
15083SOL    HW148141   8.730   0.795   1.427 -1.1141 -1.2785  1.0255
15083SOL    HW248142   8.784   0.855   1.555 -1.3854 -0.2568  0.6713
15084SOL     OW48143   5.911   3.458   0.544 -0.4627  0.1061  0.2428
15084SOL    HW148144   5.889   3.404   0.620  0.8915 -2.0447 -0.8157
15084SOL    HW248145   5.907   3.548   0.577  0.0551 -0.7484  2.8528
15085SOL     OW48146   8.030   2.507   9.068 -0.3705  0.4996 -0.3921
15085SOL    HW148147   7.995   2.419   9.084 -1.0726  0.3555 -2.3658
15085SOL    HW248148   8.075   2.500   8.983  1.0737  1.6518  0.2297
15086SOL     OW48149   1.294   5.666   1.921  0.0069 -0.6127 -0.0084
15086SOL    HW148150   1.330   5.590   1.876 -1.9302 -1.4885 -0.1691
15086SOL    HW248151   1.199   5.660   1.907 -0.5042  0.1176  2.5852
15087SOL     OW48152   5.444   3.261   9.013  0.3820  0.6845  0.2985
15087SOL    HW148153   5.449   3.201   8.938  1.2855 -0.5746  1.3251
15087SOL    HW248154   5.352   3.288   9.015  0.2537  0.4509 -1.0201
15088SOL     OW48155   3.962   1.708   5.384 -0.4154  0.0509 -0.1443
15088SOL    HW148156   4.037   1.686   5.328 -0.3173 -0.2505  0.1013
15088SOL    HW248157   3.943   1.800   5.364  1.3548  0.7878  1.3090
15089SOL     OW48158   5.101   6.858   9.429 -0.1668  0.0484 -0.5244
15089SOL    HW148159   5.134   6.837   9.517  2.0027 -0.4765 -1.3984
15089SOL    HW248160   5.136   6.789   9.373  1.1311  2.0339 -2.3091
15090SOL     OW48161   4.554   1.864   1.215 -0.3084  0.2943  0.3682
15090SOL    HW148162   4.479   1.861   1.274 -0.8111 -0.5963 -0.2688
15090SOL    HW248163   4.534   1.935   1.154 -1.6109 -1.1230 -0.9675
15091SOL     OW48164   5.857   2.261   1.252 -0.1210  0.3210  0.6423
15091SOL    HW148165   5.858   2.214   1.335 -1.0783 -3.6177 -1.3647
15091SOL    HW248166   5.949   2.269   1.227  0.0566 -1.2840  0.7031
15092SOL     OW48167   7.713   9.257   0.290 -0.4570  0.0665 -0.7781
15092SOL    HW148168   7.635   9.204   0.271 -0.9715  0.1958  0.8854
15092SOL    HW248169   7.682   9.347   0.289 -0.8902  0.0310  2.1051
15093SOL     OW48170   7.127   0.393   8.564  0.1080 -0.4388 -0.4872
15093SOL    HW148171   7.032   0.379   8.564 -0.0079  0.2878  0.0669
15093SOL    HW248172   7.153   0.377   8.654  0.4922 -0.4301 -0.5965
15094SOL     OW48173   1.409   4.693   9.630  0.3640 -0.6368  0.2584
15094SOL    HW148174   1.454   4.611   9.610  2.1067 -0.2108  2.0641
15094SOL    HW248175   1.474   4.743   9.680 -1.1299  1.2862  0.3548
15095SOL     OW48176   1.772   4.008   9.544  0.1956  0.1664 -0.3405
15095SOL    HW148177   1.769   3.985   9.451  1.5951  0.5952 -0.5135
15095SOL    HW248178   1.851   3.964   9.577 -1.2406 -1.4864  1.0970
15096SOL     OW48179   0.022   2.526   0.628  0.0026  0.2775  0.7485
15096SOL    HW148180   0.049   2.493   0.541 -0.8236  1.1364  0.1528
15096SOL    HW248181  -0.067   2.493   0.639  0.0025  0.4187  1.1491
15097SOL     OW48182   8.722   4.467   3.109  0.1683  0.2689  0.5110
15097SOL    HW148183   8.685   4.520   3.180  1.0730  0.4786  0.8271
15097SOL    HW248184   8.753   4.531   3.045 -0.2318  0.0858  0.1282
15098SOL     OW48185   2.730   3.207   2.040  0.1437  0.3476 -0.2803
15098SOL    HW148186   2.744   3.114   2.059  0.7474  0.2477 -1.2036
15098SOL    HW248187   2.653   3.230   2.093 -0.9240 -1.0442 -1.1594
15099SOL     OW48188   5.353   1.840   4.900 -0.6655 -0.1019 -0.1426
15099SOL    HW148189   5.300   1.762   4.885  1.4251 -1.5189 -0.5873
15099SOL    HW248190   5.394   1.826   4.985 -2.7144  2.0732  1.3172
15100SOL     OW48191   3.646   5.109   3.363 -0.2287 -1.0311 -0.3618
15100SOL    HW148192   3.678   5.093   3.274  0.2845  2.3185 -0.9127
15100SOL    HW248193   3.551   5.116   3.354 -0.1461 -0.3020 -0.7572
15101SOL     OW48194   2.047   0.048   4.278  0.2601  0.0999  0.0552
15101SOL    HW148195   2.104  -0.015   4.232 -0.0646  1.1580 -1.9168
15101SOL    HW248196   1.959   0.015   4.262  0.1353  0.5757 -0.2577
15102SOL     OW48197   3.031   4.030   9.320 -0.3005 -0.1419  0.3446
15102SOL    HW148198   2.941   4.000   9.331 -0.8241  1.5933  1.0542
15102SOL    HW248199   3.085   3.954   9.343 -1.5318 -0.2424  3.3345
15103SOL     OW48200   8.402   3.410   6.735 -0.1767  0.0084 -0.3620
15103SOL    HW148201   8.480   3.445   6.778 -0.3294 -0.0648 -0.0279
15103SOL    HW248202   8.423   3.414   6.641 -0.8518  2.6271 -0.4657
15104SOL     OW48203   7.273   3.409   4.667  0.0463  0.7432 -0.4574
15104SOL    HW148204   7.193   3.379   4.710  0.7987 -1.5211 -0.4992
15104SOL    HW248205   7.340   3.405   4.735  1.1224 -2.3051 -1.4869
15105SOL     OW48206   7.541   7.423   1.982 -0.3276  0.3472  0.1199
15105SOL    HW148207   7.589   7.441   1.901 -0.0777  2.4148  0.6563
15105SOL    HW248208   7.465   7.481   1.979  0.0866  1.0382  1.6757
15106SOL     OW48209   4.836   2.957   0.802  0.0326 -0.3572 -0.5020
15106SOL    HW148210   4.762   3.017   0.788 -0.3998 -0.1144  2.2380
15106SOL    HW248211   4.805   2.873   0.768 -0.9313  0.0871 -0.7677
15107SOL     OW48212   3.728   4.801   8.011 -0.1602  0.6685  0.2965
15107SOL    HW148213   3.689   4.813   7.924  0.7913  0.9101 -0.1106
15107SOL    HW248214   3.821   4.823   7.999  0.1800 -0.2178  1.1586
15108SOL     OW48215   1.194   0.370   9.221  0.5789 -1.0560 -0.3707
15108SOL    HW148216   1.179   0.432   9.150 -0.0906 -1.8458 -0.9498
15108SOL    HW248217   1.197   0.424   9.300 -2.5166 -0.4616 -0.5329
15109SOL     OW48218   9.103   2.359   3.034 -0.8263 -0.2637  0.4214
15109SOL    HW148219   9.132   2.287   3.089  0.4190  0.6938  1.0494
15109SOL    HW248220   9.036   2.403   3.086 -1.1671 -0.5994  0.2771
15110SOL     OW48221   9.403   8.899   7.851  0.1459  0.2077 -0.0948
15110SOL    HW148222   9.497   8.914   7.861  0.2340  0.1732 -0.7832
15110SOL    HW248223   9.397   8.804   7.834  0.1040  0.3902 -1.1882
15111SOL     OW48224   9.433   9.210   9.560 -1.0643 -0.0642 -0.1496
15111SOL    HW148225   9.431   9.134   9.619  0.5313  0.3929  0.5557
15111SOL    HW248226   9.413   9.174   9.474  2.1748 -1.8575 -0.3093
15112SOL     OW48227   0.672   5.329   5.729  0.1118  0.0712 -0.5162
15112SOL    HW148228   0.631   5.413   5.708  1.8917  0.8022 -1.2534
15112SOL    HW248229   0.758   5.333   5.688  0.2201 -2.1619 -0.6330
15113SOL     OW48230   7.553   2.182   3.387  0.8116  0.0734 -0.7960
15113SOL    HW148231   7.638   2.213   3.421  0.1246  0.7814  0.3643
15113SOL    HW248232   7.492   2.200   3.458  0.2826 -3.8864 -0.0065
15114SOL     OW48233   7.052   2.817   5.128 -0.0067 -0.3278 -0.6349
15114SOL    HW148234   7.019   2.904   5.151 -0.6580 -0.9534  0.9010
15114SOL    HW248235   7.146   2.821   5.145 -0.1482 -0.1274  0.1438
15115SOL     OW48236   1.321   3.280   8.168  0.1148 -0.1161 -0.1172
15115SOL    HW148237   1.260   3.283   8.094  2.0051  0.2118 -1.7659
15115SOL    HW248238   1.361   3.194   8.163  1.3982  0.4788 -0.4921
15116SOL     OW48239   3.634   0.634   1.561 -0.2173  0.4819 -0.0211
15116SOL    HW148240   3.585   0.582   1.625  0.1048 -0.8728 -0.8384
15116SOL    HW248241   3.566   0.678   1.510 -0.5396 -0.0799 -0.0859
15117SOL     OW48242   7.850   6.987   3.278  0.2796 -0.8036 -0.0048
15117SOL    HW148243   7.879   7.007   3.189  0.1234 -1.8876 -0.3157
15117SOL    HW248244   7.755   6.995   3.274  0.3757  1.0412  0.5733
15118SOL     OW48245   4.523   0.388   3.013  0.4308  0.3466  0.2008
15118SOL    HW148246   4.546   0.360   3.102  1.1450 -0.1230 -0.1248
15118SOL    HW248247   4.445   0.338   2.991  1.0697 -0.6065  0.0372
15119SOL     OW48248   5.040   1.274   8.963  0.4157  0.0514  0.0913
15119SOL    HW148249   5.129   1.306   8.971  0.3255 -0.0887  2.1369
15119SOL    HW248250   5.035   1.202   9.026 -1.6067  1.1750  1.3257
15120SOL     OW48251   1.827   7.963   6.503  0.0550  0.6476  0.1253
15120SOL    HW148252   1.890   7.920   6.561  0.0490  1.8798  1.0635
15120SOL    HW248253   1.839   7.919   6.419  2.8201  1.4425  0.0245
15121SOL     OW48254   9.380   8.977   1.037  0.0294 -0.6708  0.0727
15121SOL    HW148255   9.430   8.928   1.102 -1.6852 -2.3871  0.2094
15121SOL    HW248256   9.294   8.934   1.036 -0.6401  0.5653 -1.9014
15122SOL     OW48257   3.332   7.847   7.872  0.0845 -0.2436 -0.1510
15122SOL    HW148258   3.270   7.774   7.864 -1.4111  0.7877  1.4199
15122SOL    HW248259   3.396   7.816   7.937  0.4251 -0.7785 -0.7307
15123SOL     OW48260   9.606   1.875   2.570 -0.0290  0.0031  0.3353
15123SOL    HW148261   9.700   1.863   2.585 -0.1542 -0.3325  0.8788
15123SOL    HW248262   9.583   1.807   2.507 -0.1245 -0.6454  1.0572
15124SOL     OW48263   0.853   8.221   6.470 -0.2392 -0.0116  0.0810
15124SOL    HW148264   0.860   8.170   6.551  0.4616  0.1093  0.0992
15124SOL    HW248265   0.856   8.155   6.400  0.3544 -0.0263  0.1150
15125SOL     OW48266   1.844   8.457   2.346 -0.0880 -0.2071 -0.7930
15125SOL    HW148267   1.915   8.445   2.410 -1.2001 -0.6477  0.4113
15125SOL    HW248268   1.866   8.399   2.274  1.1792  0.2614 -0.8069
15126SOL     OW48269   0.953   3.040   0.073  0.0224  0.4069  0.1851
15126SOL    HW148270   0.972   2.947   0.076  1.7363  0.6435 -1.1908
15126SOL    HW248271   0.889   3.049   0.002  0.6209  0.3619 -0.3694
15127SOL     OW48272   7.491   6.122   2.787 -0.4393 -0.5250 -0.1445
15127SOL    HW148273   7.527   6.051   2.840  2.5012  0.8188 -0.1360
15127SOL    HW248274   7.500   6.092   2.697 -3.2054 -1.8016 -0.1227
15128SOL     OW48275   3.215   0.277   7.034 -0.0250 -0.3694  0.3094
15128SOL    HW148276   3.215   0.339   6.961  0.1984 -1.1784 -0.4031
15128SOL    HW248277   3.297   0.294   7.080 -0.7911  1.0718  1.2147
15129SOL     OW48278   9.575   8.678   5.515  0.0874 -0.5534  0.5822
15129SOL    HW148279   9.595   8.623   5.591 -2.3998 -0.0909  1.6777
15129SOL    HW248280   9.649   8.666   5.456  2.9499  0.2510  3.6825
15130SOL     OW48281   8.832   1.306   8.111 -0.0132 -0.6769  0.0755
15130SOL    HW148282   8.851   1.374   8.176  0.5307 -0.2763 -0.4866
15130SOL    HW248283   8.783   1.352   8.043  1.9378 -0.3627 -1.2138
15131SOL     OW48284   0.743   5.531   9.462  0.2310  0.0071  0.1100
15131SOL    HW148285   0.797   5.464   9.419  0.1352 -0.3562  0.5477
15131SOL    HW248286   0.727   5.496   9.549 -1.1922 -0.1627 -0.1945
15132SOL     OW48287   5.587   0.283   7.479  0.0119 -0.1481  0.4288
15132SOL    HW148288   5.509   0.227   7.476 -1.5940  1.7607  2.6734
15132SOL    HW248289   5.611   0.294   7.387 -1.9342 -1.3895 -0.3121
15133SOL     OW48290   8.942   1.764   1.896 -0.1521  0.0673  0.8063
15133SOL    HW148291   9.038   1.766   1.892  0.0024 -3.4690 -1.3591
15133SOL    HW248292   8.915   1.725   1.813 -3.3420 -0.8400  2.1108
15134SOL     OW48293   3.844   0.131   2.511  0.6125  0.4152 -0.6660
15134SOL    HW148294   3.770   0.187   2.537 -0.5077 -0.6303 -1.5427
15134SOL    HW248295   3.910   0.148   2.579 -0.4845  1.2250  0.2535
15135SOL     OW48296   0.523   0.798   4.777  0.1320 -0.1396  0.0800
15135SOL    HW148297   0.462   0.771   4.709 -0.6193  1.0484  0.2604
15135SOL    HW248298   0.559   0.716   4.810 -2.0895 -0.9519  0.6488
15136SOL     OW48299   9.063   3.849   2.485  0.1930  0.1518 -0.0099
15136SOL    HW148300   9.063   3.856   2.389  0.6633  0.5267  0.0150
15136SOL    HW248301   9.091   3.936   2.515  0.6384 -0.1491  0.4552
15137SOL     OW48302   2.852   0.048   3.255  0.0562 -0.6178  0.2950
15137SOL    HW148303   2.823  -0.033   3.212 -1.6723  0.7975 -1.3697
15137SOL    HW248304   2.905   0.093   3.189 -1.3610  0.8813  0.1185
15138SOL     OW48305   2.635   5.649   2.404 -0.3351  0.1582 -0.0397
15138SOL    HW148306   2.685   5.730   2.416 -2.0826  1.2414  0.2744
15138SOL    HW248307   2.686   5.598   2.341 -0.3969  2.5799 -2.1952
15139SOL     OW48308   0.179   4.044   4.385  0.1482 -0.0905  0.8064
15139SOL    HW148309   0.238   4.119   4.374 -0.6393  0.7505  2.0466
15139SOL    HW248310   0.132   4.038   4.302  0.9925  0.0820  0.3019
15140SOL     OW48311   3.116   0.159   0.674 -0.2757 -0.3069 -0.1057
15140SOL    HW148312   3.080   0.081   0.633 -0.2499 -0.4635  0.1679
15140SOL    HW248313   3.173   0.197   0.607 -1.0014 -0.0142 -0.5695
15141SOL     OW48314   8.794   5.658   1.091  0.4499 -0.5181 -0.2196
15141SOL    HW148315   8.722   5.681   1.149 -0.2989 -1.3386 -0.8036
15141SOL    HW248316   8.767   5.577   1.049  0.8599  0.1646 -1.8861
15142SOL     OW48317   9.013   3.103   8.235 -0.1351  0.6950 -0.2062
15142SOL    HW148318   9.003   3.195   8.214 -1.4040  0.6280  0.0008
15142SOL    HW248319   8.974   3.094   8.323  0.5808  0.0830  0.0614
15143SOL     OW48320   8.515   2.370   9.463 -0.1790 -0.1003 -0.3578
15143SOL    HW148321   8.427   2.332   9.458 -0.5711  0.4691  1.4854
15143SOL    HW248322   8.504   2.461   9.436 -0.2200  0.0369  0.1067
15144SOL     OW48323   4.626   3.897   6.041  0.5549  0.2427 -0.0769
15144SOL    HW148324   4.693   3.830   6.053  1.4970  0.8311 -1.8037
15144SOL    HW248325   4.664   3.976   6.080  1.0867  0.6837 -1.4413
15145SOL     OW48326   7.667   8.699   1.983 -0.4361  0.5232 -0.2590
15145SOL    HW148327   7.629   8.698   2.071 -0.2768 -0.4372 -0.1936
15145SOL    HW248328   7.761   8.707   1.998 -0.2954 -0.8869 -0.2861
15146SOL     OW48329   6.695   7.267   7.254  0.4885 -0.0533 -0.1972
15146SOL    HW148330   6.709   7.278   7.160  1.9074  0.6835  0.0615
15146SOL    HW248331   6.753   7.332   7.294  0.0469 -0.4824  1.1937
15147SOL     OW48332   5.975   8.130   8.130  0.2337 -0.9603  0.4267
15147SOL    HW148333   5.944   8.205   8.080  0.7958 -1.3278 -0.5019
15147SOL    HW248334   5.896   8.090   8.165 -0.0067  0.7782  2.0241
15148SOL     OW48335   1.981   0.557   6.025 -0.0326 -0.0206 -0.3873
15148SOL    HW148336   2.010   0.617   5.957 -2.8474 -0.1530 -1.8505
15148SOL    HW248337   1.899   0.520   5.991 -0.5749 -1.5221  2.2755
15149SOL     OW48338   3.101   4.079   2.674 -0.0508  0.4834 -0.0424
15149SOL    HW148339   3.068   4.138   2.605  1.7434  0.2052 -1.2212
15149SOL    HW248340   3.086   4.127   2.755  0.1421  2.0126 -0.8591
15150SOL     OW48341   5.352   8.915   7.503 -0.6976  0.2122  0.4869
15150SOL    HW148342   5.261   8.928   7.530 -0.9633  0.6780 -0.5764
15150SOL    HW248343   5.385   8.847   7.562 -2.4118 -1.5980 -0.5191
15151SOL     OW48344   2.784   9.043   0.986  0.3303  0.1818  0.0556
15151SOL    HW148345   2.745   9.047   0.899  1.0897  1.1360 -0.2595
15151SOL    HW248346   2.827   9.128   0.997  2.2570 -0.7937  0.4119
15152SOL     OW48347   7.544   8.473   5.580 -0.3738 -0.7620  0.3008
15152SOL    HW148348   7.462   8.488   5.626 -0.3227 -0.2560  0.2302
15152SOL    HW248349   7.559   8.379   5.588 -2.1705 -1.2872 -1.7059
15153SOL     OW48350   7.907   7.159   4.995 -0.6011 -0.0057  0.3956
15153SOL    HW148351   7.975   7.092   4.984 -0.6170 -0.3421  2.0283
15153SOL    HW248352   7.951   7.229   5.042 -0.8600  0.7054 -0.4007
15154SOL     OW48353   0.005   2.722   1.844 -0.3978 -0.0435 -0.0534
15154SOL    HW148354   0.046   2.787   1.788  2.3226 -1.6942 -0.1512
15154SOL    HW248355  -0.046   2.667   1.785 -2.0221  1.4024 -0.0741
15155SOL     OW48356   5.818   2.322   5.581 -0.3368 -0.5975 -0.2395
15155SOL    HW148357   5.747   2.263   5.558 -1.5968  0.0710  1.6501
15155SOL    HW248358   5.879   2.317   5.508 -1.9027 -1.8666 -1.5222
15156SOL     OW48359   1.861   7.575   7.961 -0.1119 -0.4853  0.7546
15156SOL    HW148360   1.949   7.543   7.981  0.5894  1.2855  0.6599
15156SOL    HW248361   1.814   7.497   7.933  1.4794 -1.4501  0.6075
15157SOL     OW48362   4.020   2.098   0.084  0.1428 -0.5458  0.0737
15157SOL    HW148363   4.102   2.065   0.047 -0.2329 -2.4787  0.8112
15157SOL    HW248364   3.954   2.077   0.017 -0.2801 -2.5210  1.0273
15158SOL     OW48365   3.802   4.115   2.398 -0.0863  0.2378  0.6241
15158SOL    HW148366   3.858   4.156   2.332 -0.7288  1.2533  0.6750
15158SOL    HW248367   3.745   4.186   2.428 -1.2075 -0.6809  0.7696
15159SOL     OW48368   7.173   9.257   0.042 -0.7819 -0.4564 -0.6629
15159SOL    HW148369   7.111   9.201   0.090  1.0230 -1.6929  0.3378
15159SOL    HW248370   7.254   9.206   0.039  1.3861  2.5132  1.3467
15160SOL     OW48371   8.556   8.398   9.502 -0.7092  0.6051  0.5722
15160SOL    HW148372   8.519   8.318   9.465 -2.6641  1.4248  0.6258
15160SOL    HW248373   8.498   8.420   9.576  2.3420 -0.3122  3.4678
15161SOL     OW48374   8.820   0.914   7.895  0.2393  0.0455 -0.2847
15161SOL    HW148375   8.839   0.968   7.971  5.0087 -3.1455  1.2173
15161SOL    HW248376   8.768   0.842   7.929 -1.3496  0.7483 -1.1065
15162SOL     OW48377   7.159   7.653   0.416  0.3975  0.1768 -0.0880
15162SOL    HW148378   7.202   7.724   0.463 -0.1399  0.7998 -0.5215
15162SOL    HW248379   7.122   7.598   0.485  0.8010  0.3202  0.2509
15163SOL     OW48380   4.805   5.494   3.641 -0.3127  0.3027 -0.3551
15163SOL    HW148381   4.876   5.544   3.682  0.2914  0.3941 -1.4907
15163SOL    HW248382   4.740   5.560   3.618 -1.6597  0.0504  2.3087
15164SOL     OW48383   0.345   0.542   2.873  0.3594  0.7637 -0.0944
15164SOL    HW148384   0.352   0.637   2.883  2.5234  0.8131 -1.5418
15164SOL    HW248385   0.329   0.528   2.780 -0.9120 -0.3044  0.2457
15165SOL     OW48386   3.654   1.852   4.113 -0.6164  0.1687 -0.0433
15165SOL    HW148387   3.564   1.839   4.085 -0.8478  0.0418  0.7369
15165SOL    HW248388   3.670   1.946   4.098 -1.1480  0.3671  0.5505
15166SOL     OW48389   8.973   6.829   9.129 -0.1444 -0.1868 -0.1958
15166SOL    HW148390   9.014   6.743   9.117  1.4777  0.3479  1.0688
15166SOL    HW248391   8.975   6.843   9.224  1.1763  1.9132 -0.4585
15167SOL     OW48392   1.827   4.185   3.072 -0.1002  0.4641 -0.0105
15167SOL    HW148393   1.760   4.169   3.138 -0.3309  1.2028 -0.0516
15167SOL    HW248394   1.788   4.158   2.990 -0.0629  0.1703  0.0697
15168SOL     OW48395   7.190   3.862   5.302  0.3115  0.2718  0.5892
15168SOL    HW148396   7.099   3.851   5.327 -0.5073 -0.7682 -2.3766
15168SOL    HW248397   7.233   3.781   5.327 -0.3204 -0.4601 -0.6064
15169SOL     OW48398   9.066   8.915   1.543  0.3141  0.0235 -0.0465
15169SOL    HW148399   8.989   8.858   1.548  0.5535 -0.2249  0.8887
15169SOL    HW248400   9.115   8.898   1.623  0.4459  1.4925  0.2130
15170SOL     OW48401   1.717   4.999   7.018 -0.0446  0.3459 -0.1885
15170SOL    HW148402   1.765   5.028   7.096 -1.7049  2.0270  0.2772
15170SOL    HW248403   1.626   4.991   7.046 -0.6587  0.7899 -1.8780
15171SOL     OW48404   5.842   6.643   1.948 -0.2407  0.3055 -0.0169
15171SOL    HW148405   5.820   6.559   1.906 -0.7952  1.0189 -1.2094
15171SOL    HW248406   5.815   6.709   1.884 -0.8481  1.4416  1.3640
15172SOL     OW48407   7.365   7.946   0.126 -0.0354  0.1712  0.3376
15172SOL    HW148408   7.340   7.891   0.051 -2.5968  0.2551  1.0125
15172SOL    HW248409   7.380   8.032   0.089  0.0321 -0.0811 -0.2370
15173SOL     OW48410   3.844   8.694   6.465  0.1733 -0.0815  0.8881
15173SOL    HW148411   3.825   8.760   6.532  0.2599 -0.5963  1.4362
15173SOL    HW248412   3.940   8.685   6.468  0.4787  1.7861 -1.1591
15174SOL     OW48413   8.546   6.100   2.755 -0.3312  0.2877  0.4728
15174SOL    HW148414   8.602   6.088   2.832 -1.1622  0.9457  1.1956
15174SOL    HW248415   8.472   6.041   2.770 -0.0241 -0.3172 -0.3124
15175SOL     OW48416   7.066   4.060   3.596  0.2502  0.1668 -0.6080
15175SOL    HW148417   7.104   4.146   3.577  1.2211 -0.0072  0.4698
15175SOL    HW248418   7.141   4.001   3.605 -0.4255 -1.0318 -2.2916
15176SOL     OW48419   3.222   1.327   0.979 -0.5490 -0.2466  0.0236
15176SOL    HW148420   3.256   1.407   0.937 -0.8378  0.9297  1.9117
15176SOL    HW248421   3.131   1.348   0.999 -0.0392 -0.1017  2.5924
15177SOL     OW48422   0.308   2.969   9.524 -0.2143 -0.1842 -0.1846
15177SOL    HW148423   0.376   3.031   9.499 -1.2806  1.3857  0.6761
15177SOL    HW248424   0.271   2.939   9.441  0.8242 -0.2795 -0.6298
15178SOL     OW48425   4.819   8.793   5.353 -0.0707 -0.3029 -0.2218
15178SOL    HW148426   4.838   8.700   5.338  1.2615 -0.1120  0.1738
15178SOL    HW248427   4.761   8.817   5.281  0.0067 -1.3172 -0.6411
15179SOL     OW48428   9.557   9.592   8.199  0.7994  0.3064  0.2234
15179SOL    HW148429   9.595   9.601   8.111  0.0329  2.1988  0.0469
15179SOL    HW248430   9.596   9.511   8.233  2.0250  0.1528 -1.3983
15180SOL     OW48431   9.015   2.329   0.220  0.9846 -0.0088  0.1893
15180SOL    HW148432   9.061   2.285   0.148 -2.4269 -0.0243 -2.2380
15180SOL    HW248433   9.010   2.263   0.289  2.4232 -0.8009 -0.4215
15181SOL     OW48434   1.776   9.006   7.184 -0.1446  0.5732 -0.4282
15181SOL    HW148435   1.817   9.005   7.098 -1.5263 -0.8743 -1.1228
15181SOL    HW248436   1.705   9.070   7.177 -0.2414  0.4753 -0.3430
15182SOL     OW48437   5.784   0.314   2.264  0.1103  0.8273 -0.0517
15182SOL    HW148438   5.698   0.324   2.305 -0.2545 -2.1560  0.1221
15182SOL    HW248439   5.770   0.339   2.173 -1.5678 -1.5860 -0.5471
15183SOL     OW48440   7.702   1.695   1.413  0.0455 -0.0874  0.8875
15183SOL    HW148441   7.664   1.754   1.478  0.6891  0.7498  0.5284
15183SOL    HW248442   7.650   1.709   1.334 -0.5785 -0.9188  1.1414
15184SOL     OW48443   2.513   0.925   7.448 -0.0623 -0.5054  0.7175
15184SOL    HW148444   2.483   1.010   7.414  0.2967 -1.0312 -1.0350
15184SOL    HW248445   2.589   0.946   7.502  0.0958  0.2916  0.1993
15185SOL     OW48446   5.323   7.645   7.054 -0.2565 -0.5628  0.4710
15185SOL    HW148447   5.348   7.667   7.144  0.5984 -0.1873  0.1483
15185SOL    HW248448   5.403   7.657   7.003 -0.5874 -1.3338 -0.2498
15186SOL     OW48449   0.451   5.349   4.336  0.1486 -0.2755  0.4262
15186SOL    HW148450   0.489   5.401   4.264 -0.7593 -1.3470 -0.8713
15186SOL    HW248451   0.412   5.414   4.394 -1.6050  0.5420 -1.5344
15187SOL     OW48452   7.879   6.181   9.164  0.0315 -0.1007 -0.1368
15187SOL    HW148453   7.805   6.186   9.225 -0.2911 -1.5632 -0.3562
15187SOL    HW248454   7.845   6.133   9.089  0.8704  0.2906 -0.7803
15188SOL     OW48455   3.887   1.646   6.809  0.2077  0.0353 -0.3408
15188SOL    HW148456   3.890   1.649   6.904  0.4611 -1.3619 -0.2767
15188SOL    HW248457   3.853   1.559   6.789  0.3625  0.2261 -1.5312
15189SOL     OW48458   5.966   9.530   6.381 -0.3929 -0.0157  0.2585
15189SOL    HW148459   5.946   9.441   6.408 -0.1373  0.3852  1.8607
15189SOL    HW248460   5.946   9.532   6.287 -1.9272 -1.3178  0.5223
15190SOL     OW48461   0.392   9.097   7.644  0.1032 -0.9559  0.6084
15190SOL    HW148462   0.474   9.093   7.694  1.4091  3.0949 -0.8530
15190SOL    HW248463   0.323   9.089   7.710  1.7439  1.5385  2.8223
15191SOL     OW48464   5.142   1.635   9.206  0.5500 -0.1607  0.4392
15191SOL    HW148465   5.161   1.703   9.271  1.2152  0.9799 -0.8817
15191SOL    HW248466   5.207   1.650   9.137  0.3903 -1.8483 -0.1119
15192SOL     OW48467   4.020   9.127   8.792 -0.4371  0.2185  0.6523
15192SOL    HW148468   4.099   9.079   8.817  2.1298  3.3869 -0.6820
15192SOL    HW248469   3.991   9.170   8.873 -1.2681 -1.4374  1.2847
15193SOL     OW48470   0.350   4.952   6.636 -0.8582 -0.6455 -0.5854
15193SOL    HW148471   0.321   4.963   6.726 -1.5505  0.7554 -0.9511
15193SOL    HW248472   0.409   5.026   6.621 -1.3175 -0.4571 -1.4956
15194SOL     OW48473   4.711   2.768   4.564 -0.0068 -0.0626  0.6338
15194SOL    HW148474   4.770   2.693   4.573  0.9251  0.5839  0.1323
15194SOL    HW248475   4.716   2.792   4.471 -0.6094  0.3646  0.7018
15195SOL     OW48476   4.099   5.152   8.554  0.2826  0.0279  0.1543
15195SOL    HW148477   4.060   5.117   8.634 -1.2998  0.1205 -0.5369
15195SOL    HW248478   4.026   5.193   8.508  0.8540 -1.1977 -1.9773
15196SOL     OW48479   3.973   1.412   8.410 -0.1962  0.3863 -0.1849
15196SOL    HW148480   3.980   1.507   8.400 -0.6500  0.3201 -1.3326
15196SOL    HW248481   3.920   1.400   8.488  1.5551  1.0252  1.1841
15197SOL     OW48482   3.709   8.514   5.893 -0.0754 -0.2373  0.4735
15197SOL    HW148483   3.701   8.609   5.896  0.2939 -0.2429  2.3759
15197SOL    HW248484   3.684   8.484   5.980  1.1991 -1.7733  0.3581
15198SOL     OW48485   0.093   4.774   3.598  0.3026  0.2345  0.0003
15198SOL    HW148486   0.184   4.745   3.597 -0.4748 -2.4942  0.8459
15198SOL    HW248487   0.064   4.760   3.688 -0.4037  3.1608  0.3236
15199SOL     OW48488   8.860   5.238   3.287 -0.4913 -0.2496  0.4828
15199SOL    HW148489   8.878   5.256   3.379  0.2630  0.3921  0.2163
15199SOL    HW248490   8.910   5.158   3.268 -1.0344 -0.6607  0.7470
15200SOL     OW48491   4.457   1.108   3.069 -0.3780 -0.3919  0.2763
15200SOL    HW148492   4.447   1.048   3.142  0.0245 -0.3478  0.3689
15200SOL    HW248493   4.375   1.158   3.067 -1.0089 -1.4155 -0.2340
15201SOL     OW48494   9.546   5.528   4.378 -0.3544 -0.4739  0.6511
15201SOL    HW148495   9.561   5.436   4.403  2.8382 -0.0688  0.6345
15201SOL    HW248496   9.594   5.578   4.444 -1.0416  1.1488 -0.0463
15202SOL     OW48497   8.518   2.128   7.392  0.3479  0.1600  0.3433
15202SOL    HW148498   8.524   2.120   7.487  0.1606 -0.7178  0.2917
15202SOL    HW248499   8.587   2.191   7.369 -0.7302  1.7246  1.2121
15203SOL     OW48500   7.523   7.527   6.502  0.8985  0.5567 -0.1489
15203SOL    HW148501   7.477   7.584   6.564 -0.1247  1.7207 -1.8811
15203SOL    HW248502   7.539   7.446   6.551  0.4659  1.5469  1.7170
15204SOL     OW48503   8.711   0.634   8.521 -0.0989 -0.2135 -0.7964
15204SOL    HW148504   8.635   0.610   8.468 -2.1420  1.0295  1.3619
15204SOL    HW248505   8.722   0.728   8.505 -1.9632  0.6540  2.1625
15205SOL     OW48506   6.231   6.072   2.144  0.0028  0.3332 -0.1586
15205SOL    HW148507   6.254   6.138   2.079 -0.6357 -1.4743 -2.3517
15205SOL    HW248508   6.147   6.038   2.115  0.2735 -1.3954  0.9267
15206SOL     OW48509   2.491   7.807   7.528  0.0264  0.4365 -0.2560
15206SOL    HW148510   2.572   7.859   7.527  0.4008 -0.1337  0.0302
15206SOL    HW248511   2.472   7.793   7.620  1.4285 -2.1823 -0.2509
15207SOL     OW48512   8.515   3.071   5.252  0.3453  0.3055  0.1924
15207SOL    HW148513   8.559   3.119   5.323 -0.9455  1.5099  0.2344
15207SOL    HW248514   8.501   3.137   5.184 -3.6022  0.7730  1.1731
15208SOL     OW48515   5.140   6.432   5.694 -0.1334 -0.4559  0.0121
15208SOL    HW148516   5.206   6.403   5.758 -0.3777 -1.3149 -0.1082
15208SOL    HW248517   5.178   6.409   5.609 -1.6312 -3.4224  0.0063
15209SOL     OW48518   3.951   1.930   6.096 -0.6640  0.3298 -0.3741
15209SOL    HW148519   3.918   2.016   6.121 -0.3462  0.4857 -0.4888
15209SOL    HW248520   3.911   1.913   6.010 -0.8251  0.3067 -0.2950
15210SOL     OW48521   5.871   5.915   5.742 -0.4880  0.2550  0.4033
15210SOL    HW148522   5.921   5.836   5.724 -0.0932  0.2428  1.4792
15210SOL    HW248523   5.860   5.957   5.657  2.1658  0.7258  0.2361
15211SOL     OW48524   0.979   8.177   5.822 -0.5265  0.1606 -0.4118
15211SOL    HW148525   1.039   8.104   5.835 -1.7345 -1.0687 -1.4519
15211SOL    HW248526   1.015   8.225   5.748  1.4478  1.9770  1.5444
15212SOL     OW48527   8.623   5.523   2.779  0.3265 -0.5015  0.0645
15212SOL    HW148528   8.557   5.582   2.743  0.5080 -0.1259  0.3440
15212SOL    HW248529   8.693   5.522   2.714  0.9993  0.7763  0.7371
15213SOL     OW48530   0.372   8.246   4.179  0.4585 -0.1279  0.5409
15213SOL    HW148531   0.372   8.332   4.136  1.7594 -0.2781  0.1995
15213SOL    HW248532   0.413   8.262   4.264 -0.2089 -0.2317  0.8864
15214SOL     OW48533   7.676   0.552   0.249  0.5199 -0.3106 -0.2803
15214SOL    HW148534   7.620   0.520   0.320  0.9102 -1.1953 -0.3665
15214SOL    HW248535   7.650   0.644   0.239  1.2013  0.1623  1.7403
15215SOL     OW48536   5.695   3.222   1.218  0.0659 -0.7286  0.5773
15215SOL    HW148537   5.625   3.197   1.277 -1.4623  0.6367 -0.5402
15215SOL    HW248538   5.741   3.292   1.264 -1.4071  0.6575  0.0432
15216SOL     OW48539   6.167   1.505   1.408  0.0347  0.7339  0.1384
15216SOL    HW148540   6.127   1.505   1.321  1.2367 -0.0927 -0.4270
15216SOL    HW248541   6.228   1.579   1.407  2.2077 -0.9752 -0.7813
15217SOL     OW48542   3.380   6.490   5.289  0.0562 -0.5152 -0.4581
15217SOL    HW148543   3.354   6.415   5.236  0.6105 -0.8442 -0.2690
15217SOL    HW248544   3.297   6.528   5.318 -0.2575 -0.3390 -1.5335
15218SOL     OW48545   5.594   4.853   4.082 -0.4005  0.5913 -0.2720
15218SOL    HW148546   5.628   4.881   3.997 -0.5511  1.6062 -0.0151
15218SOL    HW248547   5.502   4.878   4.080 -0.3248  0.9359  0.3124
15219SOL     OW48548   5.868   9.170   1.765 -0.3999  0.1712  0.2828
15219SOL    HW148549   5.896   9.183   1.856 -0.4180  0.2360  0.2788
15219SOL    HW248550   5.871   9.257   1.726  1.5737 -0.1431 -0.3426
15220SOL     OW48551   3.947   9.615   2.306  0.0508  0.1340  0.1830
15220SOL    HW148552   3.935   9.646   2.396 -0.5848 -1.1803  0.5760
15220SOL    HW248553   3.861   9.627   2.265  0.3089  0.6211 -0.2246
15221SOL     OW48554   9.325   9.489   7.422  0.6317 -0.3850  0.3598
15221SOL    HW148555   9.341   9.578   7.391 -1.6868  0.0042  0.1294
15221SOL    HW248556   9.392   9.475   7.489  2.4417  0.6716 -1.1243
15222SOL     OW48557   8.180   8.182   7.089 -1.1353  0.4673  0.5344
15222SOL    HW148558   8.203   8.264   7.134 -0.3117  0.7535 -0.3901
15222SOL    HW248559   8.249   8.169   7.025 -2.0925 -0.1324 -0.4067
15223SOL     OW48560   9.267   1.328   3.326 -0.2861 -0.2135  0.1881
15223SOL    HW148561   9.295   1.241   3.353  0.2543  0.1816  0.9380
15223SOL    HW248562   9.330   1.354   3.259 -1.6275 -1.1939 -1.5580
15224SOL     OW48563   9.215   3.875   8.795  0.6875 -0.2112  0.8127
15224SOL    HW148564   9.230   3.781   8.796 -0.0601 -0.3794 -0.4846
15224SOL    HW248565   9.250   3.903   8.710  2.2541  0.9464  1.7904
15225SOL     OW48566   6.028   7.060   0.451  0.1763  0.1031 -0.4530
15225SOL    HW148567   6.027   6.995   0.382  0.5422 -1.8800  1.2946
15225SOL    HW248568   6.035   7.144   0.406  0.7012 -1.1200 -2.7712
15226SOL     OW48569   1.694   7.032   2.022  0.1273  0.4424  0.4968
15226SOL    HW148570   1.738   7.104   2.066  1.3886 -0.6422  1.0947
15226SOL    HW248571   1.681   6.966   2.091 -0.2535 -0.2208 -0.1929
15227SOL     OW48572   9.194   8.270   3.750  0.5141 -0.5497 -0.2761
15227SOL    HW148573   9.113   8.238   3.711  0.2700  1.5001 -1.5902
15227SOL    HW248574   9.170   8.290   3.841 -0.2687 -0.5965 -0.4675
15228SOL     OW48575   4.418   8.542   2.832 -0.0170  0.4124  0.5149
15228SOL    HW148576   4.493   8.488   2.805  0.7222  1.7697 -0.2429
15228SOL    HW248577   4.349   8.479   2.850  1.3375 -0.8998  1.3751
15229SOL     OW48578   6.810   1.774   6.012 -0.1616 -0.2796  0.0247
15229SOL    HW148579   6.812   1.682   6.036 -2.5988  0.1166  2.1256
15229SOL    HW248580   6.740   1.780   5.947 -1.5595  0.3336  1.5144
15230SOL     OW48581   7.472   0.040   7.745  0.3809 -0.0732 -0.4029
15230SOL    HW148582   7.428   0.103   7.802 -0.7326  0.2155 -1.5518
15230SOL    HW248583   7.474  -0.041   7.796 -0.8056  0.1177 -0.0392
15231SOL     OW48584   5.817   8.356   8.305  0.1084 -0.3927  0.5992
15231SOL    HW148585   5.884   8.422   8.290  0.1880  0.0957  2.7734
15231SOL    HW248586   5.764   8.357   8.225  1.7872  0.2444 -0.5590
15232SOL     OW48587   0.938   4.784   2.806  0.0871 -0.2971  0.4636
15232SOL    HW148588   1.029   4.757   2.795  0.1717  0.2819 -0.3438
15232SOL    HW248589   0.943   4.878   2.823 -0.3573 -0.2710  0.4591
15233SOL     OW48590   9.353   7.981   6.104  0.2496  0.2132  0.7589
15233SOL    HW148591   9.280   7.930   6.139  0.1781 -0.4511 -0.3476
15233SOL    HW248592   9.383   8.033   6.179 -0.7066 -0.2486  1.4838
15234SOL     OW48593   7.235   0.659   6.700  0.2143 -0.2375  0.4224
15234SOL    HW148594   7.209   0.705   6.780  1.3562  1.4716 -0.1656
15234SOL    HW248595   7.154   0.653   6.649 -0.2638 -0.2655  1.1694
15235SOL     OW48596   3.118   1.292   8.500  0.2281 -0.1431 -0.2985
15235SOL    HW148597   3.209   1.300   8.472 -0.3147  0.4630 -1.9683
15235SOL    HW248598   3.111   1.352   8.575  1.1127  0.0225 -0.3303
15236SOL     OW48599   4.684   8.868   7.056  0.1625  0.4680 -0.0155
15236SOL    HW148600   4.777   8.867   7.077  0.2485  1.9608 -0.2562
15236SOL    HW248601   4.679   8.905   6.969 -0.6512  0.1957 -0.0963
15237SOL     OW48602   0.434   1.712   8.076 -0.1176 -0.2990 -0.2373
15237SOL    HW148603   0.520   1.675   8.059  0.5909 -0.1937  2.5578
15237SOL    HW248604   0.373   1.644   8.047  0.8015 -0.1773 -2.7059
15238SOL     OW48605   3.693   4.380   0.086  0.4130  0.0287  0.1071
15238SOL    HW148606   3.690   4.356  -0.006 -1.5632  0.7787 -0.0889
15238SOL    HW248607   3.773   4.340   0.119  0.7031 -1.0119 -1.7127
15239SOL     OW48608   7.606   4.648   6.193  0.2038  0.1168  0.5843
15239SOL    HW148609   7.682   4.702   6.170 -0.6355  1.7344  1.4093
15239SOL    HW248610   7.644   4.570   6.233  1.5554 -1.1902 -2.8568
15240SOL     OW48611   5.608   0.335   8.569  0.0784  0.1565 -0.0509
15240SOL    HW148612   5.570   0.395   8.633 -0.4084  0.4687 -0.6202
15240SOL    HW248613   5.698   0.323   8.598 -0.2140  0.0588  0.8536
15241SOL     OW48614   7.310   4.212   5.802  0.0122 -0.1526 -0.4321
15241SOL    HW148615   7.335   4.270   5.874 -0.3076 -2.3495  1.5671
15241SOL    HW248616   7.231   4.252   5.765 -0.6785  0.2914  1.4326
15242SOL     OW48617   7.175   2.238   3.704 -0.3808 -0.3794  0.3158
15242SOL    HW148618   7.111   2.300   3.668  0.3864  0.6455  0.6679
15242SOL    HW248619   7.122   2.166   3.738 -1.5615  1.4709  2.6685
15243SOL     OW48620   5.565   0.731   6.848  0.0558 -0.0026  0.1637
15243SOL    HW148621   5.523   0.733   6.934 -0.3354 -0.4545 -0.0124
15243SOL    HW248622   5.612   0.814   6.842 -0.7037  0.4546  0.4219
15244SOL     OW48623   0.350   9.119   6.793 -0.4100  0.6146 -0.5115
15244SOL    HW148624   0.290   9.122   6.719  0.6755  1.6537 -1.3918
15244SOL    HW248625   0.363   9.026   6.811 -0.6053  0.3520 -1.6915
15245SOL     OW48626   0.150   7.086   3.402 -0.2820  0.3041  0.2005
15245SOL    HW148627   0.138   7.177   3.375  0.5748 -0.0479 -1.4919
15245SOL    HW248628   0.245   7.078   3.415 -0.6090  0.5048  3.7649
15246SOL     OW48629   8.810   0.343   8.995 -0.3054 -0.2818 -0.3436
15246SOL    HW148630   8.839   0.337   8.904 -1.6135  0.2984 -0.8174
15246SOL    HW248631   8.718   0.367   8.989  0.2368  2.6688  1.1328
15247SOL     OW48632   0.641   3.971   6.260  0.2798  0.0046  0.2764
15247SOL    HW148633   0.620   3.976   6.354 -0.9944 -2.0064  0.1709
15247SOL    HW248634   0.729   3.935   6.257  0.6921  0.9412  0.6859
15248SOL     OW48635   6.029   6.596   4.199 -0.4252 -0.1030 -0.2844
15248SOL    HW148636   6.097   6.542   4.158 -0.5118  0.8468 -1.7666
15248SOL    HW248637   5.998   6.544   4.273 -0.0039 -1.7751 -1.2341
15249SOL     OW48638   7.510   1.628   8.205 -0.2509 -0.0029  0.5930
15249SOL    HW148639   7.453   1.551   8.213 -1.3601  0.4385 -1.9805
15249SOL    HW248640   7.597   1.591   8.190 -0.9947 -0.9124 -2.0950
15250SOL     OW48641   6.718   2.185   7.104  0.0492 -0.6219 -0.3892
15250SOL    HW148642   6.703   2.206   7.012  0.8761 -1.1581 -0.6575
15250SOL    HW248643   6.751   2.095   7.103 -1.5093 -1.2431  0.5715
15251SOL     OW48644   4.240   0.849   3.908  0.1651  0.1459  0.1321
15251SOL    HW148645   4.329   0.884   3.897  0.6992 -0.5029  1.9130
15251SOL    HW248646   4.240   0.767   3.859  0.8267 -0.2309  0.7325
15252SOL     OW48647   3.228   6.861   4.589 -0.1028 -0.8604  0.2824
15252SOL    HW148648   3.294   6.918   4.549 -0.1592 -1.6007 -0.9080
15252SOL    HW248649   3.153   6.918   4.603  0.1768 -0.4156  0.0027
15253SOL     OW48650   3.747   9.334   7.464  0.5223 -0.0434  0.3363
15253SOL    HW148651   3.792   9.375   7.537  0.5884  0.3823  0.0617
15253SOL    HW248652   3.771   9.388   7.388  0.0794 -0.2014  0.0815
15254SOL     OW48653   4.377   3.309   7.638  0.3579 -0.0594 -0.3052
15254SOL    HW148654   4.309   3.250   7.671  0.5078  0.2339  0.5657
15254SOL    HW248655   4.348   3.396   7.666  1.6185 -0.0384  1.0492
15255SOL     OW48656   5.057   6.841   6.815 -0.0334 -0.2208  0.5786
15255SOL    HW148657   5.053   6.936   6.825 -1.5651 -0.4280  2.7922
15255SOL    HW248658   4.982   6.820   6.760  0.7218 -0.1206 -0.5135
15256SOL     OW48659   5.589   6.493   5.643 -0.2071  0.7294 -0.1376
15256SOL    HW148660   5.635   6.488   5.727  0.6498 -1.4625 -0.6783
15256SOL    HW248661   5.560   6.403   5.627 -0.5440  1.1592 -2.0974
15257SOL     OW48662   6.279   3.632   8.968  0.0663 -0.0730  0.6127
15257SOL    HW148663   6.320   3.608   8.885  2.4366  1.7214  1.1404
15257SOL    HW248664   6.224   3.708   8.946  0.4541  0.2110  0.6059
15258SOL     OW48665   1.970   2.294   9.107  0.3715  0.0577  0.2393
15258SOL    HW148666   1.920   2.354   9.051  0.9051  0.5839  0.3235
15258SOL    HW248667   1.922   2.211   9.101 -1.3011  0.8859  1.3905
15259SOL     OW48668   6.090   3.200   1.744 -0.8816  0.5850  0.3417
15259SOL    HW148669   6.075   3.271   1.682 -2.6494  0.7349  0.8922
15259SOL    HW248670   6.014   3.142   1.733  0.0528 -0.7270  0.5702
15260SOL     OW48671   5.735   2.575   4.400  0.1589  0.2843  0.0710
15260SOL    HW148672   5.683   2.650   4.370 -1.4721 -2.0209 -3.7001
15260SOL    HW248673   5.822   2.589   4.364 -0.2882  0.1746 -1.0865
15261SOL     OW48674   6.946   6.413   0.309  0.5832 -0.0849 -0.2251
15261SOL    HW148675   6.945   6.400   0.403  1.3628  0.2552 -0.1623
15261SOL    HW248676   7.039   6.410   0.285  0.6937  2.7275 -0.5463
15262SOL     OW48677   8.355   4.657   6.627  0.3292 -0.0007  0.3860
15262SOL    HW148678   8.349   4.700   6.712  1.4124  1.2528 -0.1326
15262SOL    HW248679   8.403   4.719   6.572  0.2243 -1.0595 -0.9581
15263SOL     OW48680   1.278   9.061   6.473  0.0259  0.2615 -0.8097
15263SOL    HW148681   1.233   8.978   6.484  1.2181 -0.4977 -1.4370
15263SOL    HW248682   1.209   9.127   6.473 -0.7672 -0.2768  3.5074
15264SOL     OW48683   0.555   0.896   0.395 -0.0774  0.0152 -0.3215
15264SOL    HW148684   0.604   0.825   0.435  0.4782  0.8797  0.5595
15264SOL    HW248685   0.469   0.893   0.437  0.2106  0.3602  0.3008
15265SOL     OW48686   6.293   8.945   5.114  0.1749 -0.1552  0.4318
15265SOL    HW148687   6.233   8.947   5.039 -0.4919 -0.5613  0.9378
15265SOL    HW248688   6.271   9.023   5.164 -0.3837 -0.6214  0.9422
15266SOL     OW48689   7.451   6.431   0.070  0.1428  0.8494  0.6428
15266SOL    HW148690   7.426   6.460  -0.018  2.4872  0.5421 -0.1731
15266SOL    HW248691   7.517   6.364   0.056 -0.7247 -0.5273  2.6442
15267SOL     OW48692   9.206   1.461   7.339  0.3687 -0.5481  0.0728
15267SOL    HW148693   9.192   1.550   7.306  2.1576 -0.9835 -2.1338
15267SOL    HW248694   9.297   1.461   7.370  1.1460 -2.0705 -1.9577
15268SOL     OW48695   0.908   5.494   5.353 -0.6592 -0.2960  0.3896
15268SOL    HW148696   0.854   5.470   5.279 -2.1969 -1.5822  1.8409
15268SOL    HW248697   0.852   5.551   5.407  0.3911  0.5613  0.6274
15269SOL     OW48698   1.663   8.439   0.460  0.1504  0.6339 -0.0001
15269SOL    HW148699   1.627   8.434   0.549 -1.0596 -0.3386 -0.5190
15269SOL    HW248700   1.604   8.385   0.407  2.2774 -0.9325 -0.9176
15270SOL     OW48701   1.932   2.738   1.440 -0.2546  0.4991  0.3886
15270SOL    HW148702   1.893   2.744   1.352  1.1323 -1.3727 -0.4210
15270SOL    HW248703   1.997   2.669   1.432  1.3834  1.7102  2.3794
15271SOL     OW48704   1.508   3.266   5.921  0.0886  0.2917  0.6551
15271SOL    HW148705   1.570   3.239   5.853  0.3909 -0.3832  1.1858
15271SOL    HW248706   1.434   3.302   5.872  0.5842  0.4436 -0.0101
15272SOL     OW48707   1.485   5.003   0.843  0.2721  0.7283  0.1176
15272SOL    HW148708   1.437   5.023   0.923 -2.2867 -2.7042 -0.3662
15272SOL    HW248709   1.534   4.923   0.863 -0.8301 -0.5111 -1.8036
15273SOL     OW48710   5.012   1.884   8.843  0.3765 -0.1842 -0.3602
15273SOL    HW148711   5.039   1.863   8.932  0.7388 -0.3350 -0.5032
15273SOL    HW248712   4.947   1.953   8.853  1.7971  1.1655 -0.0716
15274SOL     OW48713   2.225   7.046   4.461  0.0205  0.6666  0.2752
15274SOL    HW148714   2.231   6.950   4.470 -0.2135  0.4528 -1.4176
15274SOL    HW248715   2.211   7.060   4.367  1.9784  2.4740  0.1751
15275SOL     OW48716   8.218   1.051   7.972  0.2270 -0.2426 -0.4766
15275SOL    HW148717   8.167   1.130   7.954  0.5158  0.3732  1.1824
15275SOL    HW248718   8.300   1.064   7.923  1.1160  1.4985  1.3197
15276SOL     OW48719   0.507   3.175   5.749 -0.3066 -0.7007  0.0296
15276SOL    HW148720   0.488   3.269   5.760 -0.8362 -0.7968 -0.0230
15276SOL    HW248721   0.463   3.134   5.823  0.1536 -0.8839  0.2034
15277SOL     OW48722   5.497   1.459   4.003 -0.2056  0.3894 -0.2715
15277SOL    HW148723   5.549   1.537   4.019  0.8025 -0.3635  0.2496
15277SOL    HW248724   5.427   1.462   4.068  0.9925 -0.1328  1.0936
15278SOL     OW48725   3.476   3.566   3.973 -0.2930  0.4310 -0.6224
15278SOL    HW148726   3.513   3.523   3.896  0.7219 -0.1590  0.1598
15278SOL    HW248727   3.468   3.495   4.037 -0.1497  1.1073  0.1523
15279SOL     OW48728   2.078   0.854   9.073 -0.1488 -0.0945 -0.0242
15279SOL    HW148729   2.049   0.766   9.047 -0.4282 -0.5508  1.7103
15279SOL    HW248730   2.001   0.909   9.059  0.0276 -0.1071 -1.1273
15280SOL     OW48731   4.434   6.086   0.467 -0.4544  0.1605 -0.2390
15280SOL    HW148732   4.450   6.117   0.555 -2.8537  2.3443 -0.4390
15280SOL    HW248733   4.401   5.997   0.478 -0.1475  0.1905  0.9984
15281SOL     OW48734   3.324   8.764   6.348 -0.4194  0.2366 -0.5550
15281SOL    HW148735   3.245   8.711   6.352 -0.3710  0.2262  0.7363
15281SOL    HW248736   3.315   8.827   6.419  0.0618  1.2036 -1.3259
15282SOL     OW48737   7.814   4.385   2.131 -0.4581  0.5635 -0.5883
15282SOL    HW148738   7.896   4.433   2.117 -1.0392  1.3354 -1.5223
15282SOL    HW248739   7.835   4.294   2.106  0.3508  0.5587  0.0820
15283SOL     OW48740   4.828   2.473   2.286  0.7984  0.2046  0.2130
15283SOL    HW148741   4.824   2.548   2.345  1.4102 -0.0402  0.5747
15283SOL    HW248742   4.738   2.441   2.280  0.8077 -0.0938  1.4405
15284SOL     OW48743   2.041   2.530   5.342 -0.1580  0.1109 -0.5404
15284SOL    HW148744   2.000   2.548   5.257 -2.6148  3.0072  1.0306
15284SOL    HW248745   2.001   2.448   5.371  0.0249 -0.4277 -1.7367
15285SOL     OW48746   8.442   5.615   5.467 -0.5680 -0.0834  0.1255
15285SOL    HW148747   8.494   5.655   5.397  0.3043 -1.3148  0.0215
15285SOL    HW248748   8.358   5.659   5.463 -0.8858 -0.7442 -2.3358
15286SOL     OW48749   7.203   9.301   5.961  0.2100  0.0680  0.0202
15286SOL    HW148750   7.141   9.304   6.034  0.1835  0.6214 -0.0228
15286SOL    HW248751   7.205   9.390   5.927 -0.0107 -0.2518 -0.8658
15287SOL     OW48752   6.971   5.705   0.846 -0.2106  0.2055  0.1020
15287SOL    HW148753   6.993   5.728   0.936 -0.2735 -0.3578  0.2608
15287SOL    HW248754   6.877   5.723   0.839 -0.1215  0.6511  0.0227
15288SOL     OW48755   6.885   5.532   1.693 -0.5814 -0.2304  0.4394
15288SOL    HW148756   6.914   5.467   1.630  0.4014 -0.3736  1.0162
15288SOL    HW248757   6.939   5.609   1.674 -1.2630  0.1988  0.2013
15289SOL     OW48758   4.786   9.211   5.379 -0.1152  0.4753  0.5390
15289SOL    HW148759   4.880   9.217   5.364 -0.3060  0.2809 -0.8325
15289SOL    HW248760   4.778   9.171   5.466  1.0666 -0.7145  0.1250
15290SOL     OW48761   6.869   1.458   3.894 -0.4904 -0.3283 -0.0095
15290SOL    HW148762   6.789   1.481   3.941  0.5913  0.5766  1.4647
15290SOL    HW248763   6.886   1.368   3.918 -0.0909  0.0469  1.1578
15291SOL     OW48764   7.733   8.394   2.515 -0.3291 -0.2084  0.0770
15291SOL    HW148765   7.702   8.366   2.428 -1.3134  0.1681  0.2945
15291SOL    HW248766   7.697   8.329   2.575  0.3619 -0.4745  0.2074
15292SOL     OW48767   4.115   7.878   8.955 -0.3576 -0.3846  0.0992
15292SOL    HW148768   4.061   7.809   8.994 -2.3562  0.6028 -0.7750
15292SOL    HW248769   4.125   7.944   9.023 -0.7629 -0.3112  0.0886
15293SOL     OW48770   5.867   9.420   4.731 -0.1999 -0.2031  0.3635
15293SOL    HW148771   5.801   9.456   4.791 -0.7304 -0.5193 -0.0138
15293SOL    HW248772   5.850   9.465   4.648  0.6590  0.3784  0.4908
15294SOL     OW48773   7.945   8.398   2.111  0.0909  0.0126 -1.2292
15294SOL    HW148774   8.017   8.456   2.134 -0.4142  0.6262 -1.1681
15294SOL    HW248775   7.936   8.406   2.017 -1.1086  1.3989 -1.0227
15295SOL     OW48776   8.544   1.160   6.953 -0.0471  0.4349 -0.3948
15295SOL    HW148777   8.504   1.217   7.018 -1.6978  0.8187 -1.6693
15295SOL    HW248778   8.495   1.078   6.959  0.7196 -0.0216 -0.2194
15296SOL     OW48779   1.557   5.407   0.106 -0.4477  0.1673  0.2272
15296SOL    HW148780   1.609   5.482   0.078 -1.0893  0.0298 -1.4380
15296SOL    HW248781   1.546   5.354   0.027  1.1574 -2.4471  1.6275
15297SOL     OW48782   6.576   3.066   9.087 -0.6359  0.6234 -0.5418
15297SOL    HW148783   6.657   3.074   9.037  1.0124 -1.7324  1.5001
15297SOL    HW248784   6.598   3.006   9.158 -4.2505 -0.2620  0.0166
15298SOL     OW48785   4.105   0.102   9.430  0.2800  0.0459 -0.1781
15298SOL    HW148786   4.139   0.022   9.389  0.8398 -0.2473  0.8264
15298SOL    HW248787   4.123   0.171   9.366  1.0301 -0.4139 -0.4804
15299SOL     OW48788   1.385   3.989   5.527  0.0494 -0.0878 -0.1468
15299SOL    HW148789   1.328   3.929   5.478  0.4417 -0.8373  0.2859
15299SOL    HW248790   1.325   4.046   5.575 -0.4028 -1.5610  1.1540
15300SOL     OW48791   7.880   3.287   5.425 -0.9802  0.5974 -0.2336
15300SOL    HW148792   7.971   3.261   5.415 -0.8601  1.0646 -0.4171
15300SOL    HW248793   7.849   3.300   5.335 -0.3669  3.2735 -0.1557
15301SOL     OW48794   8.935   3.831   4.813 -0.4887  0.4497 -0.3513
15301SOL    HW148795   8.950   3.779   4.892 -0.1446 -0.8148 -1.2310
15301SOL    HW248796   8.912   3.918   4.847  3.6122  1.1712  1.1702
15302SOL     OW48797   5.334   7.683   4.359 -0.5773 -0.0153  0.5507
15302SOL    HW148798   5.374   7.726   4.284  1.4966 -1.7803  0.5522
15302SOL    HW248799   5.270   7.623   4.320 -2.4635  1.9291  0.4836
15303SOL     OW48800   9.003   0.127   4.858 -0.8336 -0.7448 -0.3647
15303SOL    HW148801   8.915   0.097   4.837 -0.9893  0.1817 -1.0839
15303SOL    HW248802   8.991   0.215   4.893 -0.1923 -0.6203 -0.4358
15304SOL     OW48803   7.820   8.306   6.136  0.2486  0.1334 -0.3922
15304SOL    HW148804   7.811   8.377   6.072  1.5381 -0.8464 -1.7498
15304SOL    HW248805   7.742   8.312   6.190  0.0349  2.2055 -0.8457
15305SOL     OW48806   9.607   8.451   6.944  0.6833 -0.3186 -0.4357
15305SOL    HW148807   9.554   8.410   6.876 -0.8167  0.9081 -0.0637
15305SOL    HW248808   9.556   8.528   6.971  0.5637 -1.4307  2.9690
15306SOL     OW48809   6.793   1.191   5.508 -0.0132 -0.3698  0.0440
15306SOL    HW148810   6.842   1.178   5.589 -0.9264 -1.2845  0.4714
15306SOL    HW248811   6.763   1.282   5.512  2.2547  0.4770 -0.5996
15307SOL     OW48812   1.301   1.201   7.622  0.1853 -1.0758  0.4666
15307SOL    HW148813   1.249   1.122   7.609  1.1850 -1.9224  1.3608
15307SOL    HW248814   1.391   1.169   7.626  0.8528  0.3752 -1.4244
15308SOL     OW48815   3.420   0.560   7.179  0.6482  0.2344  0.2427
15308SOL    HW148816   3.419   0.604   7.094 -1.3232 -0.0440  0.0791
15308SOL    HW248817   3.332   0.573   7.214  1.0704 -0.6662  1.7335
15309SOL     OW48818   4.266   4.255   0.140 -0.1082 -0.1331 -0.8079
15309SOL    HW148819   4.256   4.248   0.235  0.0626 -2.6830 -0.9087
15309SOL    HW248820   4.344   4.311   0.128  0.0167  0.0171  0.5344
15310SOL     OW48821   5.579   2.142   2.307 -0.7781  0.4819 -0.5848
15310SOL    HW148822   5.553   2.057   2.342 -0.3960  1.1382  1.3856
15310SOL    HW248823   5.502   2.197   2.319  0.0439  1.2891  1.3195
15311SOL     OW48824   3.264   4.039   3.010  0.3542 -0.1456 -0.1748
15311SOL    HW148825   3.251   4.022   3.103  2.7973 -0.3253  0.2132
15311SOL    HW248826   3.205   4.111   2.990 -2.4958 -2.0751  0.7055
15312SOL     OW48827   8.790   3.250   6.063  0.2988 -0.0174  0.8051
15312SOL    HW148828   8.775   3.175   6.005  1.0122 -0.4223  1.1325
15312SOL    HW248829   8.874   3.286   6.035  0.3083  0.2193  1.1268
15313SOL     OW48830   5.313   9.595   4.007 -0.0675  0.0652  0.0865
15313SOL    HW148831   5.221   9.623   4.003  0.2977  1.5844  1.4496
15313SOL    HW248832   5.342   9.594   3.916 -1.0374  0.9618 -0.2486
15314SOL     OW48833   1.279   0.643   0.751  0.2319  0.0649  1.1334
15314SOL    HW148834   1.252   0.731   0.725  1.9719  0.6519  1.2085
15314SOL    HW248835   1.204   0.608   0.800 -0.6643  1.3039  0.6953
15315SOL     OW48836   8.245   5.904   8.877  0.3702  0.4667  0.1257
15315SOL    HW148837   8.336   5.925   8.857  0.4384  0.8231  0.7738
15315SOL    HW248838   8.239   5.809   8.870  0.7174  0.4732 -0.2250
15316SOL     OW48839   3.826   3.889   2.530  0.0573  0.0499 -0.0521
15316SOL    HW148840   3.819   3.966   2.473  0.8615 -0.6625 -1.1680
15316SOL    HW248841   3.791   3.918   2.614 -0.4930  1.3613 -0.7002
15317SOL     OW48842   1.675   6.622   3.065  0.0335  0.2682  0.6143
15317SOL    HW148843   1.657   6.689   3.000  0.2802 -0.9092 -0.7238
15317SOL    HW248844   1.590   6.602   3.104 -0.3215  0.1472 -0.2051
15318SOL     OW48845   5.252   6.485   7.051 -0.9767  0.1011  0.3162
15318SOL    HW148846   5.276   6.495   7.143  0.9798 -0.1375 -0.1197
15318SOL    HW248847   5.298   6.406   7.023 -1.7888 -0.0029 -0.8004
15319SOL     OW48848   5.617   8.965   9.547  0.3343  0.2164 -0.2481
15319SOL    HW148849   5.614   9.052   9.587 -0.6639  0.2176 -0.2962
15319SOL    HW248850   5.658   8.979   9.461  1.5845  0.3753  0.3630
15320SOL     OW48851   8.097   7.730   7.106  0.0769 -0.1375  0.4144
15320SOL    HW148852   8.032   7.670   7.068 -0.0572 -1.1050  2.1054
15320SOL    HW248853   8.178   7.679   7.107  0.1880  0.0484  0.9598
15321SOL     OW48854   4.016   1.858   4.168 -0.1438 -0.4310 -0.4621
15321SOL    HW148855   4.035   1.785   4.108 -1.8893 -1.5385  0.2534
15321SOL    HW248856   4.101   1.882   4.204  0.8897 -0.0752 -2.9513
15322SOL     OW48857   6.399   0.490   4.179 -0.5607  0.2582  0.5317
15322SOL    HW148858   6.385   0.585   4.180 -1.4751  0.1273  1.2247
15322SOL    HW248859   6.342   0.456   4.247  0.5634 -0.7047  1.0370
15323SOL     OW48860   2.114   6.297   5.267 -0.0350  0.5605  0.4294
15323SOL    HW148861   2.028   6.256   5.275 -0.3090  0.3255 -2.6151
15323SOL    HW248862   2.101   6.369   5.205  2.0624  0.1113 -0.6196
15324SOL     OW48863   3.890   5.859   6.687  0.2548  0.4274  0.7872
15324SOL    HW148864   3.983   5.847   6.672 -0.0611  0.4952 -1.8303
15324SOL    HW248865   3.866   5.792   6.750  1.4715 -2.0112 -1.1742
15325SOL     OW48866   5.920   1.436   8.754  0.6697 -0.0559 -0.2144
15325SOL    HW148867   5.839   1.388   8.734  0.5260  0.6971 -1.5266
15325SOL    HW248868   5.968   1.377   8.813 -0.7233 -0.6126  0.4330
15326SOL     OW48869   3.945   6.123   6.630 -0.1140  0.2835 -0.2863
15326SOL    HW148870   3.917   6.185   6.698  0.5736 -1.2492  1.4678
15326SOL    HW248871   3.933   6.037   6.669  1.0343 -0.6399 -1.8469
15327SOL     OW48872   2.691   6.093   6.352  0.0594 -0.0313 -0.1600
15327SOL    HW148873   2.772   6.051   6.323  0.6635  0.7721  0.3600
15327SOL    HW248874   2.661   6.142   6.276  1.9628  2.5662  0.6586
15328SOL     OW48875   8.898   1.171   1.658  0.1095  0.5949 -0.4657
15328SOL    HW148876   8.976   1.141   1.611  0.8042  0.2986  0.8230
15328SOL    HW248877   8.825   1.131   1.611  0.8402 -0.5279 -0.6894
15329SOL     OW48878   7.557   7.497   7.625  0.5459 -0.3945  0.3765
15329SOL    HW148879   7.626   7.529   7.684  0.7166 -1.2711  0.6581
15329SOL    HW248880   7.543   7.406   7.651 -0.8153 -0.2004  0.4169
15330SOL     OW48881   8.275   3.238   8.457 -0.8215 -0.0530  0.0567
15330SOL    HW148882   8.300   3.234   8.549 -0.4906 -2.2936 -0.0798
15330SOL    HW248883   8.179   3.232   8.458 -0.7840 -0.6121  0.2250
15331SOL     OW48884   5.648   3.256   6.206  0.6309 -0.1276  0.1885
15331SOL    HW148885   5.601   3.173   6.199 -0.2724  0.4676 -1.0051
15331SOL    HW248886   5.698   3.248   6.287 -1.9851 -0.5686  1.8885
15332SOL     OW48887   6.397   1.173   6.686  0.4547 -0.2442  0.0289
15332SOL    HW148888   6.320   1.223   6.713  0.1356  1.3801 -3.4008
15332SOL    HW248889   6.471   1.219   6.727 -0.1624  0.0664  0.8166
15333SOL     OW48890   2.454   6.210   4.046 -0.1608  0.4584  0.1028
15333SOL    HW148891   2.489   6.258   3.971  0.3830  0.3096  0.2538
15333SOL    HW248892   2.470   6.267   4.121  0.1938  0.1945  0.2364
15334SOL     OW48893   3.130   8.222   5.305 -0.5324 -0.0098  0.0334
15334SOL    HW148894   3.118   8.151   5.368 -1.5097  0.5032  0.4350
15334SOL    HW248895   3.042   8.254   5.287 -0.1727  0.5739 -0.7730
15335SOL     OW48896   2.550   0.277   8.638 -0.0044 -0.3610 -0.6932
15335SOL    HW148897   2.634   0.236   8.614  0.0405 -1.3452  0.9920
15335SOL    HW248898   2.571   0.370   8.645 -0.0072  0.0395 -4.1658
15336SOL     OW48899   6.797   5.574   5.129 -0.5434 -0.3646  0.8491
15336SOL    HW148900   6.809   5.543   5.219 -0.9308 -0.1528  0.9761
15336SOL    HW248901   6.884   5.602   5.102 -0.1195 -1.8070  0.6350
15337SOL     OW48902   3.304   7.933   4.217  0.1937  0.3936 -0.0435
15337SOL    HW148903   3.222   7.930   4.266 -0.4138 -0.4890 -1.0504
15337SOL    HW248904   3.287   7.994   4.145 -0.3487 -1.3282 -1.4631
15338SOL     OW48905   5.270   9.219   2.957 -0.1726  0.1592  0.2732
15338SOL    HW148906   5.310   9.185   3.037  0.6973  2.2669  0.7771
15338SOL    HW248907   5.320   9.297   2.936 -1.7279  0.8278 -1.1745
15339SOL     OW48908   9.019   4.480   7.040 -0.3680  0.8704  0.6609
15339SOL    HW148909   8.996   4.388   7.056 -0.3005  0.2118 -2.4077
15339SOL    HW248910   8.965   4.506   6.965  0.5573  2.9444  0.6429
15340SOL     OW48911   0.934   1.049   9.000 -0.0021 -0.0981  0.2264
15340SOL    HW148912   0.964   1.061   9.090 -0.1385 -0.7184  0.3633
15340SOL    HW248913   0.913   1.137   8.969  1.5587  0.3118  0.2615
15341SOL     OW48914   3.111   9.261   1.609  0.1503 -0.3392  0.5765
15341SOL    HW148915   3.048   9.243   1.679 -2.2070  0.9125 -1.0571
15341SOL    HW248916   3.111   9.181   1.556  1.4919 -1.0666  1.6125
15342SOL     OW48917   0.575   0.465   7.269  0.5129  0.0557  0.6238
15342SOL    HW148918   0.565   0.474   7.364  1.0004  0.2100  0.6650
15342SOL    HW248919   0.521   0.535   7.233  1.0452  0.5795  0.8217
15343SOL     OW48920   7.013   3.223   1.555  0.1258  0.1219  0.2350
15343SOL    HW148921   6.947   3.157   1.534 -0.9751  0.9328  1.0350
15343SOL    HW248922   6.984   3.262   1.638  0.8327  1.4970 -0.1181
15344SOL     OW48923   1.169   3.148   4.322  0.0061  0.2459 -1.1338
15344SOL    HW148924   1.234   3.081   4.302 -1.0293 -0.8334 -1.0619
15344SOL    HW248925   1.085   3.103   4.311 -0.7055  0.7602  1.4917
15345SOL     OW48926   0.802   8.804   1.171 -0.1429 -0.2689 -0.6919
15345SOL    HW148927   0.892   8.773   1.167  0.8624  2.2499  0.4939
15345SOL    HW248928   0.778   8.796   1.263 -0.5750  0.4947 -0.7298
15346SOL     OW48929   5.029   5.024   9.438  0.5572  0.7778  0.3675
15346SOL    HW148930   5.041   4.930   9.428 -1.3275  0.3399  1.6592
15346SOL    HW248931   5.067   5.062   9.359 -3.0277 -1.4176 -2.7488
15347SOL     OW48932   7.427   2.341   3.601 -0.0434  1.0536  1.0915
15347SOL    HW148933   7.345   2.330   3.649 -0.4137  1.3008  0.5167
15347SOL    HW248934   7.407   2.402   3.530  0.4611  0.5783  0.5201
15348SOL     OW48935   5.993   4.937   0.405 -0.5044  0.2528  0.2160
15348SOL    HW148936   5.976   5.006   0.342  0.9481  2.5411  2.1769
15348SOL    HW248937   5.922   4.945   0.469  0.1801  0.5881  0.9532
15349SOL     OW48938   9.455   6.051   1.015 -0.3778 -0.5531 -0.0789
15349SOL    HW148939   9.420   6.103   1.088 -0.3992 -2.8027  1.6286
15349SOL    HW248940   9.384   5.992   0.991  0.1054 -0.7901 -0.9829
15350SOL     OW48941   7.427   4.484   8.050 -0.4186 -0.5215  0.5795
15350SOL    HW148942   7.486   4.558   8.067 -0.4045 -0.9039  2.3844
15350SOL    HW248943   7.484   4.418   8.009 -0.4139  0.3770 -0.9796
15351SOL     OW48944   5.517   8.015   0.108  0.3506 -0.8355  0.0003
15351SOL    HW148945   5.488   7.929   0.080  1.1763 -1.8075  1.9794
15351SOL    HW248946   5.592   7.999   0.164  1.5238  1.2877 -0.8305
15352SOL     OW48947   6.560   4.317   0.331 -0.1554 -0.5597 -0.4068
15352SOL    HW148948   6.592   4.393   0.282 -1.2313 -0.1685 -0.5252
15352SOL    HW248949   6.516   4.263   0.266 -2.1465  0.2682  0.1858
15353SOL     OW48950   4.647   5.935   9.159  0.0218 -0.0929  0.1445
15353SOL    HW148951   4.607   5.901   9.239  1.3466  1.4384  1.5224
15353SOL    HW248952   4.739   5.947   9.181  0.4767  0.1068 -1.7181
15354SOL     OW48953   8.362   7.286   2.090  0.9629  0.4359  0.6937
15354SOL    HW148954   8.347   7.318   2.001  1.0805  0.9429  0.8521
15354SOL    HW248955   8.455   7.262   2.091  1.0864  0.8954  0.8160
15355SOL     OW48956   9.616   7.239   2.392 -0.0520 -0.3260 -0.7816
15355SOL    HW148957   9.547   7.235   2.326  0.1380 -1.0708 -0.9410
15355SOL    HW248958   9.651   7.328   2.384 -3.8924  1.7605  2.3171
15356SOL     OW48959   6.385   2.658   0.330  0.3636  0.6794 -0.3608
15356SOL    HW148960   6.419   2.743   0.359  1.9647 -0.0657  0.0660
15356SOL    HW248961   6.364   2.613   0.412 -1.6742  1.0839 -0.6128
15357SOL     OW48962   6.710   3.034   0.395  0.1375 -0.1523  0.1129
15357SOL    HW148963   6.783   2.994   0.347  1.0700  2.4815 -0.8149
15357SOL    HW248964   6.724   3.008   0.486  1.5300 -0.6765 -0.2271
15358SOL     OW48965   6.931   1.363   2.176  0.5730  0.3471  0.4388
15358SOL    HW148966   6.843   1.383   2.142  0.9068  0.3349 -0.4525
15358SOL    HW248967   6.950   1.276   2.143  2.0084  1.3880 -1.7062
15359SOL     OW48968   3.044   7.806   3.007 -0.4865  0.0981 -0.1455
15359SOL    HW148969   3.048   7.886   3.059  1.2490 -0.9224  1.4340
15359SOL    HW248970   3.014   7.835   2.921  0.1455  2.4523  0.3380
15360SOL     OW48971   2.630   0.495   2.156  0.2423  0.8518  0.1276
15360SOL    HW148972   2.722   0.516   2.139  0.4173  0.4408  0.5411
15360SOL    HW248973   2.595   0.574   2.197 -0.2788  1.9964 -2.3267
15361SOL     OW48974   2.962   9.134   2.244 -0.1543  0.1964 -0.5110
15361SOL    HW148975   3.044   9.118   2.196  0.3628  1.6627 -0.1780
15361SOL    HW248976   2.903   9.171   2.179 -0.4267 -0.4972 -0.6622
15362SOL     OW48977   5.574   8.271   3.560  0.8403  0.1667  0.1615
15362SOL    HW148978   5.625   8.294   3.482  1.2157 -1.0172  0.0417
15362SOL    HW248979   5.548   8.180   3.547 -1.3226  0.7230  0.2388
15363SOL     OW48980   0.743   4.971   7.479 -0.3962  0.1740 -0.4967
15363SOL    HW148981   0.654   4.981   7.443 -1.4745  0.2902  1.9905
15363SOL    HW248982   0.731   4.977   7.574  1.9579 -2.3790  0.0743
15364SOL     OW48983   5.865   3.792   8.077 -0.0118 -0.2723 -0.4726
15364SOL    HW148984   5.821   3.838   8.006 -1.7982  2.6198  2.2027
15364SOL    HW248985   5.795   3.751   8.127  0.6082  1.1658  1.7461
15365SOL     OW48986   6.871   5.533   0.066 -0.3307  0.4761  0.0325
15365SOL    HW148987   6.927   5.502   0.138  0.5838  1.2415 -0.3249
15365SOL    HW248988   6.913   5.613   0.036  0.0737 -0.4771 -2.2039
15366SOL     OW48989   8.212   3.062   9.306 -0.2531  0.1743  0.1108
15366SOL    HW148990   8.169   3.107   9.233 -0.6462  1.9103  1.3533
15366SOL    HW248991   8.167   3.094   9.384  1.7471  0.2340  1.3017
15367SOL     OW48992   2.578   9.539   8.523 -0.0807  0.3279  0.1550
15367SOL    HW148993   2.547   9.538   8.432 -2.7927 -2.4951  0.9536
15367SOL    HW248994   2.660   9.491   8.521 -0.8810 -1.0701 -0.6459
15368SOL     OW48995   2.565   4.191   4.864  0.5539  0.3022 -0.2208
15368SOL    HW148996   2.548   4.245   4.941 -1.3926 -1.6178  0.7926
15368SOL    HW248997   2.575   4.102   4.899  1.1606 -0.3954 -2.0627
15369SOL     OW48998   3.638   1.459   8.451 -0.3415  0.2448 -0.7205
15369SOL    HW148999   3.694   1.408   8.509 -2.0561 -0.0164  0.7961
15369SOL    HW249000   3.550   1.424   8.465 -0.9186  0.5117 -3.1474
15370SOL     OW49001   8.358   9.186   2.467 -0.1405  0.0836  0.0271
15370SOL    HW149002   8.407   9.223   2.540 -0.1880  0.4856 -0.1413
15370SOL    HW249003   8.417   9.121   2.428  0.0306  0.1449  0.1826
15371SOL     OW49004   8.951   3.930   2.230 -0.0103 -0.0781 -0.0091
15371SOL    HW149005   8.889   3.930   2.303  0.7463 -0.7845  0.6605
15371SOL    HW249006   8.901   3.895   2.156 -0.1921 -1.5012  0.7426
15372SOL     OW49007   9.399   5.525   1.131  0.1903 -0.0092 -0.1057
15372SOL    HW149008   9.485   5.540   1.092  0.1443  1.3104  0.2556
15372SOL    HW249009   9.367   5.445   1.089  1.5582 -0.4817 -0.2892
15373SOL     OW49010   6.124   1.822   8.367  0.0741 -0.5422 -0.1577
15373SOL    HW149011   6.142   1.889   8.433  1.2115  1.2140 -2.1080
15373SOL    HW249012   6.159   1.741   8.405  2.8091  0.8285  0.4938
15374SOL     OW49013   3.953   2.013   1.259 -0.1961  0.5373 -0.3745
15374SOL    HW149014   3.915   1.968   1.335 -0.3080  0.4653 -0.4737
15374SOL    HW249015   3.883   2.014   1.194  0.0857  0.0716 -0.6972
15375SOL     OW49016   4.275   3.033   4.799  0.3810  0.0078 -0.4581
15375SOL    HW149017   4.245   2.957   4.850 -1.9787  1.2932  0.2441
15375SOL    HW249018   4.333   2.996   4.733 -0.3983 -2.3651  0.0802
15376SOL     OW49019   1.204   4.050   8.480  0.2732 -0.5289 -0.1512
15376SOL    HW149020   1.139   4.117   8.458 -0.8551 -1.6849 -0.4589
15376SOL    HW249021   1.271   4.097   8.530 -0.2779  0.8999 -0.6996
15377SOL     OW49022   1.986   7.851   3.659 -0.4496 -0.7928  0.0865
15377SOL    HW149023   2.040   7.927   3.678  0.2326 -0.5503 -2.4002
15377SOL    HW249024   1.925   7.845   3.732 -0.1451  1.7987  0.6373
15378SOL     OW49025   4.853   2.805   3.518 -0.0207 -0.1399  0.0069
15378SOL    HW149026   4.816   2.854   3.591 -2.4056 -1.9727  0.1635
15378SOL    HW249027   4.905   2.736   3.560 -0.8780 -0.8088  0.0081
15379SOL     OW49028   6.736   5.547   6.001  0.7161 -0.1960  0.2258
15379SOL    HW149029   6.757   5.610   6.070  1.5576 -0.9205  0.6595
15379SOL    HW249030   6.768   5.463   6.035  2.2955 -0.3846 -1.5568
15380SOL     OW49031   3.395   6.638   3.505 -0.2972 -0.6235 -0.2876
15380SOL    HW149032   3.381   6.665   3.596 -0.3206  0.0185 -0.4763
15380SOL    HW249033   3.378   6.717   3.454  1.3015 -0.5291 -0.7295
15381SOL     OW49034   6.681   4.438   1.605 -0.7297 -0.2482 -0.3321
15381SOL    HW149035   6.609   4.499   1.622 -0.3919 -0.1270  0.7931
15381SOL    HW249036   6.669   4.369   1.671  1.4763  0.9653  1.4825
15382SOL     OW49037   7.512   6.688   4.241  0.2237  0.2498  0.4632
15382SOL    HW149038   7.602   6.672   4.268  0.2708  0.4610  0.4352
15382SOL    HW249039   7.494   6.778   4.269 -0.1269  0.0577  0.8693
15383SOL     OW49040   3.773   5.008   6.977  0.1330  0.5045  0.1744
15383SOL    HW149041   3.759   4.915   6.965 -0.6419  0.8030 -1.5379
15383SOL    HW249042   3.756   5.024   7.069  2.9249 -1.4580  1.1489
15384SOL     OW49043   6.077   4.155   8.545 -0.1835  0.0928  0.2639
15384SOL    HW149044   6.050   4.137   8.635  0.7825  1.9447  0.9731
15384SOL    HW249045   5.995   4.172   8.499 -0.6370 -0.0411  0.9986
15385SOL     OW49046   4.625   0.914   5.016 -0.1442 -0.0642  0.0072
15385SOL    HW149047   4.622   0.842   5.079 -1.0947  0.3711  0.4699
15385SOL    HW249048   4.695   0.889   4.955  1.1155 -0.2739  1.4813
15386SOL     OW49049   4.921   0.708   6.725  0.1816 -0.5104 -0.8563
15386SOL    HW149050   4.959   0.767   6.791 -0.7705 -1.4649  0.6204
15386SOL    HW249051   4.834   0.744   6.707 -0.0242 -0.9098 -0.6797
15387SOL     OW49052   2.238   4.115   0.822 -0.2185 -0.6168  0.0019
15387SOL    HW149053   2.333   4.119   0.824 -0.2280  0.1350 -0.3989
15387SOL    HW249054   2.210   4.199   0.859 -0.7317 -0.9713  0.4418
15388SOL     OW49055   3.464   1.416   7.762 -0.2121  0.3286  0.1276
15388SOL    HW149056   3.404   1.400   7.834  0.8925 -1.3443  0.7350
15388SOL    HW249057   3.413   1.395   7.683 -1.1129  1.2008  0.4579
15389SOL     OW49058   6.779   6.787   3.404  0.3451  0.1538  0.6912
15389SOL    HW149059   6.831   6.707   3.409  0.8594  0.0661 -3.0035
15389SOL    HW249060   6.688   6.757   3.402  0.4893 -0.2729  0.4085
15390SOL     OW49061   2.567   9.181   1.105 -0.4091  0.3812 -0.3163
15390SOL    HW149062   2.626   9.116   1.067 -2.3743 -0.3418 -2.3612
15390SOL    HW249063   2.624   9.239   1.155  1.6348 -1.9134  0.2191
15391SOL     OW49064   8.363   7.586   7.097  0.7665  0.4557 -0.2379
15391SOL    HW149065   8.407   7.513   7.054  1.3920 -0.1583  1.3805
15391SOL    HW249066   8.423   7.659   7.087  1.6904 -0.1014  0.9906
15392SOL     OW49067   8.631   1.715   4.320  0.1357  0.6404  0.0406
15392SOL    HW149068   8.648   1.679   4.233 -2.1875  1.8211 -0.9814
15392SOL    HW249069   8.656   1.645   4.381  5.2815  0.9761 -1.2005
15393SOL     OW49070   3.301   8.727   5.499 -0.1339 -0.8008 -0.2514
15393SOL    HW149071   3.271   8.798   5.555  2.0423 -1.2902  1.6743
15393SOL    HW249072   3.347   8.770   5.427  1.0831 -0.1757  0.8499
15394SOL     OW49073   5.111   4.312   6.695  0.5880 -0.7174 -0.2859
15394SOL    HW149074   5.116   4.229   6.647  2.0827 -0.8978  0.1131
15394SOL    HW249075   5.196   4.354   6.678 -0.4845  1.2137 -1.2744
15395SOL     OW49076   1.418   5.605   3.421  0.0422  0.5700  0.4700
15395SOL    HW149077   1.509   5.625   3.399 -0.4510  0.4107 -2.0544
15395SOL    HW249078   1.421   5.516   3.456  0.8313  0.4648  0.1504
15396SOL     OW49079   0.571   9.050   0.053  0.0506  0.0180  0.6811
15396SOL    HW149080   0.632   8.977   0.062  0.4218 -0.0256 -1.5509
15396SOL    HW249081   0.546   9.048  -0.039 -1.7997  1.2638  1.1103
15397SOL     OW49082   3.782   7.929   4.978  0.1545 -0.1050  0.6681
15397SOL    HW149083   3.722   7.995   4.943 -0.3203 -0.0881  1.4960
15397SOL    HW249084   3.734   7.847   4.971  1.1322 -0.5742 -1.3345
15398SOL     OW49085   7.208   8.646   2.193 -0.0785  0.2707 -0.0742
15398SOL    HW149086   7.120   8.610   2.206  0.4839 -1.8431 -1.6333
15398SOL    HW249087   7.204   8.687   2.107  0.7811 -1.0995 -0.8099
15399SOL     OW49088   8.323   8.909   8.823 -0.3007 -0.0597  0.3058
15399SOL    HW149089   8.322   8.851   8.748 -1.3981 -1.4250  1.3223
15399SOL    HW249090   8.404   8.888   8.869  0.7705  1.3277 -0.8458
15400SOL     OW49091   8.972   5.374   1.592  0.4810  0.6328  0.2363
15400SOL    HW149092   9.040   5.328   1.641  1.7061  0.7358 -1.3275
15400SOL    HW249093   8.982   5.466   1.617  0.0657  0.4888  0.9690
15401SOL     OW49094   7.226   5.880   0.443 -0.0227 -0.9785 -0.1032
15401SOL    HW149095   7.162   5.874   0.514  1.5132 -3.1468  1.2407
15401SOL    HW249096   7.291   5.943   0.474 -0.0754 -0.8766 -0.2019
15402SOL     OW49097   2.619   4.865   6.239  0.0151 -0.3789  0.7261
15402SOL    HW149098   2.535   4.876   6.194  0.3644  0.5601  0.2808
15402SOL    HW249099   2.600   4.886   6.331 -0.1947  0.0479  0.5879
15403SOL     OW49100   6.418   7.733   1.808  0.1919 -0.0625  0.6818
15403SOL    HW149101   6.390   7.694   1.892  0.4934 -1.2384  0.2524
15403SOL    HW249102   6.412   7.661   1.745 -0.1958  0.8507 -0.3607
15404SOL     OW49103   5.257   4.982   2.429 -0.1499 -0.1624 -0.1058
15404SOL    HW149104   5.347   4.950   2.440 -0.3362 -0.5938  0.1946
15404SOL    HW249105   5.263   5.076   2.444  0.6874  0.2514 -2.5160
15405SOL     OW49106   4.522   7.203   9.265  0.5039  0.0107  0.4989
15405SOL    HW149107   4.476   7.125   9.295  3.1953 -2.7502 -1.9714
15405SOL    HW249108   4.581   7.225   9.337  1.6568 -1.9903  0.2363
15406SOL     OW49109   5.530   6.079   5.006  0.3883 -0.5015 -0.4148
15406SOL    HW149110   5.442   6.056   5.034  0.2765 -0.4941 -0.7525
15406SOL    HW249111   5.582   6.000   5.022 -0.0765 -1.1458 -1.9235
15407SOL     OW49112   0.174   3.028   3.430 -0.2811  0.1462 -0.1704
15407SOL    HW149113   0.095   3.062   3.473 -1.0070 -0.1743 -1.1987
15407SOL    HW249114   0.213   2.968   3.493 -0.7134  0.5162  0.4563
15408SOL     OW49115   3.135   7.265   0.044 -0.2128 -0.0553 -0.1486
15408SOL    HW149116   3.213   7.319   0.051 -1.1291  1.3559 -0.5024
15408SOL    HW249117   3.125   7.249  -0.050 -0.0242 -0.7676 -0.0596
15409SOL     OW49118   7.645   1.958   5.915  0.1252 -0.1515 -0.0753
15409SOL    HW149119   7.554   1.953   5.884  0.3012  0.6576 -0.7299
15409SOL    HW249120   7.647   2.035   5.971  0.5871  0.2711 -0.6680
15410SOL     OW49121   2.509   6.433   5.068  0.3100 -0.0402 -0.7384
15410SOL    HW149122   2.598   6.442   5.034 -0.0385 -0.1106 -1.7104
15410SOL    HW249123   2.493   6.338   5.068 -0.1097  0.0212 -1.5240
15411SOL     OW49124   0.688   7.485   6.424  0.4825  0.0942 -0.4252
15411SOL    HW149125   0.625   7.520   6.487  0.4233  0.7345 -0.8424
15411SOL    HW249126   0.774   7.502   6.464  0.3907 -1.6944  0.6312
15412SOL     OW49127   0.834   8.450   9.611  0.6498  0.0342  0.3543
15412SOL    HW149128   0.874   8.363   9.607  0.1817 -0.1461 -0.7237
15412SOL    HW249129   0.907   8.511   9.604  0.9660 -0.2683  0.9638
15413SOL     OW49130   6.678   3.762   4.926  0.5887  0.1734 -0.3181
15413SOL    HW149131   6.737   3.701   4.880  1.2461  1.3452 -1.0764
15413SOL    HW249132   6.719   3.773   5.012  0.9215  0.1899 -0.4756
15414SOL     OW49133   5.437   8.514   3.663  0.1306 -0.0093  0.1070
15414SOL    HW149134   5.462   8.539   3.752 -0.2510  2.6435 -0.4323
15414SOL    HW249135   5.445   8.419   3.662  0.8516 -0.0758  2.7445
15415SOL     OW49136   2.577   7.218   2.170 -0.5099 -0.0520  0.7052
15415SOL    HW149137   2.614   7.132   2.192  0.8878  0.5159  0.6266
15415SOL    HW249138   2.499   7.197   2.118 -2.3447 -1.3795  3.7091
15416SOL     OW49139   7.459   6.718   6.056 -0.3828  0.1754 -0.3331
15416SOL    HW149140   7.539   6.691   6.013 -0.2685  1.0851 -0.7139
15416SOL    HW249141   7.470   6.691   6.147  0.5968  0.7831 -0.2572
15417SOL     OW49142   7.691   7.009   7.370  0.3734 -0.0313 -0.6039
15417SOL    HW149143   7.651   6.923   7.358  0.7847 -0.0266 -2.2543
15417SOL    HW249144   7.770   6.991   7.421  0.1935 -0.5693 -0.5044
15418SOL     OW49145   7.098   7.136   3.572 -0.8022  0.4571  0.3525
15418SOL    HW149146   7.145   7.134   3.655  0.3138  0.8793 -0.2623
15418SOL    HW249147   7.006   7.126   3.597 -0.4850  0.5874  1.6352
15419SOL     OW49148   4.758   0.887   0.744 -0.1915  0.0623  0.8751
15419SOL    HW149149   4.688   0.936   0.702  1.2690  0.0860 -1.7348
15419SOL    HW249150   4.726   0.797   0.746 -0.4502  0.1244  0.0132
15420SOL     OW49151   4.832   1.522   0.208  0.1773 -0.2675 -0.5134
15420SOL    HW149152   4.762   1.492   0.266 -0.0079  2.0910  0.6197
15420SOL    HW249153   4.796   1.601   0.167  1.3803 -0.2811 -1.6537
15421SOL     OW49154   5.889   8.841   8.151  0.8123 -0.3584  0.0084
15421SOL    HW149155   5.983   8.822   8.150  0.8546 -0.4294  1.5322
15421SOL    HW249156   5.882   8.925   8.196  0.0985 -1.0185  1.2059
15422SOL     OW49157   5.054   8.308   8.331 -0.3730 -0.4382 -0.1314
15422SOL    HW149158   5.045   8.214   8.316 -0.4419 -0.5842  0.7933
15422SOL    HW249159   4.990   8.348   8.271 -1.3235 -1.0542  0.4491
15423SOL     OW49160   7.012   4.174   1.710 -0.2495  0.7178  0.5575
15423SOL    HW149161   7.086   4.113   1.716 -0.8242 -0.1281 -0.4000
15423SOL    HW249162   6.984   4.187   1.800 -0.3588 -0.8096  0.7853
15424SOL     OW49163   6.596   1.115   2.963 -0.1849 -0.1298  0.5246
15424SOL    HW149164   6.624   1.125   3.054  1.4877 -0.4180  0.0719
15424SOL    HW249165   6.653   1.046   2.928  0.8117  1.5608 -1.3714
15425SOL     OW49166   3.010   4.731   5.119  0.1477  0.0700 -0.4155
15425SOL    HW149167   3.098   4.709   5.089 -0.2671 -0.7211 -1.0715
15425SOL    HW249168   2.961   4.650   5.111 -0.6111  0.4767  0.0705
15426SOL     OW49169   4.731   1.579   0.861  0.3513  0.1314  0.0700
15426SOL    HW149170   4.753   1.595   0.953  2.2454 -0.3963 -0.2395
15426SOL    HW249171   4.790   1.509   0.835 -1.7671 -1.3677 -0.9396
15427SOL     OW49172   1.744   4.532   8.878 -0.0687  0.0988 -0.2353
15427SOL    HW149173   1.805   4.603   8.860  0.5681 -0.5044 -0.5177
15427SOL    HW249174   1.800   4.456   8.894 -0.7315 -0.8519 -2.1383
15428SOL     OW49175   3.824   3.960   9.524  0.4737 -0.1664  0.3652
15428SOL    HW149176   3.915   3.983   9.506  0.1927  0.8336  0.1572
15428SOL    HW249177   3.791   3.925   9.442  0.6531 -0.4724  0.4235
15429SOL     OW49178   2.041   5.609   2.329 -0.3230 -0.0455 -0.2734
15429SOL    HW149179   2.003   5.594   2.415  1.1865  0.6113  0.5448
15429SOL    HW249180   2.015   5.533   2.277 -0.3371 -1.0109  1.0953
15430SOL     OW49181   8.803   7.901   7.101 -0.4760 -0.3477 -0.1874
15430SOL    HW149182   8.863   7.918   7.028 -1.2214 -0.5242 -0.8458
15430SOL    HW249183   8.823   7.811   7.127 -1.2047 -0.7976 -1.1317
15431SOL     OW49184   1.720   3.674   1.308 -0.5514  0.3479  0.5624
15431SOL    HW149185   1.764   3.741   1.256 -1.4034  1.0479  0.7099
15431SOL    HW249186   1.630   3.675   1.277 -0.8749  0.1798  1.4590
15432SOL     OW49187   5.102   1.822   4.373  0.1070  0.1128  0.2205
15432SOL    HW149188   5.007   1.813   4.375  0.0408  0.8080  1.0238
15432SOL    HW249189   5.134   1.753   4.432  0.1774 -0.7738 -0.8252
15433SOL     OW49190   2.957   8.384   4.034 -0.2492 -0.6563  0.4585
15433SOL    HW149191   2.941   8.434   4.114  0.2396  2.5146 -1.2640
15433SOL    HW249192   3.052   8.380   4.027 -0.2047  1.2566 -1.0627
15434SOL     OW49193   4.937   3.713   8.123  0.6700  0.6768 -0.4532
15434SOL    HW149194   4.925   3.762   8.204  1.6085  1.9957 -1.0658
15434SOL    HW249195   4.949   3.622   8.150 -0.5196  0.8610  0.7674
15435SOL     OW49196   9.312   3.662   6.973  0.2260 -0.0474 -0.4682
15435SOL    HW149197   9.256   3.726   7.016  0.4640  0.3728 -0.7840
15435SOL    HW249198   9.397   3.705   6.965  0.6181 -0.7080  0.0736
15436SOL     OW49199   2.559   2.791   2.001 -0.6327 -0.4540 -0.4948
15436SOL    HW149200   2.479   2.842   1.991 -0.0476  0.4775 -0.5499
15436SOL    HW249201   2.576   2.755   1.914  0.9266  2.3088 -1.4587
15437SOL     OW49202   3.795   1.729   9.590  0.7899  0.1954 -0.1982
15437SOL    HW149203   3.829   1.818   9.584  2.4126 -0.4658 -2.0629
15437SOL    HW249204   3.728   1.724   9.522 -1.7976  0.8853  2.1216
15438SOL     OW49205   2.469   4.790   9.144 -0.5882 -0.1147 -0.5771
15438SOL    HW149206   2.427   4.705   9.134 -0.7723 -0.0702 -0.2058
15438SOL    HW249207   2.549   4.772   9.194 -0.5574 -0.0913 -0.6180
15439SOL     OW49208   0.613   2.764   5.291  0.1870 -0.0258  0.1440
15439SOL    HW149209   0.683   2.807   5.339  0.4238  1.4961 -1.4682
15439SOL    HW249210   0.533   2.793   5.336  0.2675  2.9399 -1.3455
15440SOL     OW49211   4.388   6.152   6.331 -0.0769 -0.8636 -0.1334
15440SOL    HW149212   4.421   6.224   6.277  0.0366  0.6700  1.8299
15440SOL    HW249213   4.297   6.143   6.306  0.5421 -1.8801 -2.2435
15441SOL     OW49214   1.108   0.550   9.030 -0.3527  0.6195 -0.2095
15441SOL    HW149215   1.097   0.497   8.952 -1.0617  0.4469  0.0001
15441SOL    HW249216   1.116   0.640   8.998 -0.6381  0.5474 -0.4773
15442SOL     OW49217   4.173   9.137   7.294  0.3676  0.3524  0.3990
15442SOL    HW149218   4.220   9.095   7.222  0.2846  2.1585 -0.7853
15442SOL    HW249219   4.098   9.179   7.252 -1.2179 -0.7765  1.9660
15443SOL     OW49220   5.787   2.275   4.212 -0.1451 -0.2741  0.0169
15443SOL    HW149221   5.860   2.336   4.208 -0.8706  0.5606 -0.9252
15443SOL    HW249222   5.790   2.228   4.128  1.3148 -2.6726  1.2895
15444SOL     OW49223   2.806   6.499   4.959  0.0434 -0.0379  0.8676
15444SOL    HW149224   2.776   6.569   4.903  0.5139  1.4268  2.3642
15444SOL    HW249225   2.871   6.452   4.906 -1.4103 -0.3763 -0.7039
15445SOL     OW49226   5.341   5.335   6.638  0.5944  0.2479  0.2594
15445SOL    HW149227   5.435   5.331   6.622  0.2728  0.7211 -2.1472
15445SOL    HW249228   5.313   5.414   6.592 -0.9603  0.2034  1.0773
15446SOL     OW49229   5.482   1.494   6.713  0.0127 -0.5747  0.4128
15446SOL    HW149230   5.553   1.462   6.769 -1.1853 -2.0685  1.1527
15446SOL    HW249231   5.449   1.572   6.757  0.9608 -0.0436  0.2174
15447SOL     OW49232   6.617   1.453   7.552 -0.0804 -0.5036  0.0868
15447SOL    HW149233   6.691   1.488   7.601 -1.4522  1.1565  1.1098
15447SOL    HW249234   6.591   1.524   7.493 -1.1410 -0.8699  0.0857
15448SOL     OW49235   2.099   5.354   5.814  0.7318  0.7808 -0.3542
15448SOL    HW149236   2.008   5.340   5.787 -0.0102  3.2399  0.6490
15448SOL    HW249237   2.093   5.378   5.906  2.6876 -1.5062  0.4749
15449SOL     OW49238   6.105   9.151   4.418  0.0562  0.3426  0.3402
15449SOL    HW149239   6.188   9.126   4.376 -0.0352 -0.1392  0.4384
15449SOL    HW249240   6.096   9.089   4.490 -1.9340 -1.6605 -1.5173
15450SOL     OW49241   7.195   7.963   3.654  0.6445 -0.0859  0.0444
15450SOL    HW149242   7.113   7.917   3.673  1.4941 -2.0894 -0.8760
15450SOL    HW249243   7.202   8.028   3.724 -1.4423 -0.2187  0.4643
15451SOL     OW49244   9.181   6.954   8.434 -0.0230 -0.5864 -0.2975
15451SOL    HW149245   9.257   6.947   8.376 -0.0670  1.5450 -0.6728
15451SOL    HW249246   9.214   6.928   8.520  1.0339 -0.1122 -0.5420
15452SOL     OW49247   0.290   0.946   6.450  0.0876 -0.2282  0.0815
15452SOL    HW149248   0.311   1.010   6.517 -1.5253  0.9979 -0.5224
15452SOL    HW249249   0.375   0.913   6.421  0.9265  1.1758  0.8364
15453SOL     OW49250   3.783   1.966   4.494  0.0773 -0.8508 -1.1843
15453SOL    HW149251   3.784   1.899   4.426 -1.1950 -0.4908 -1.5826
15453SOL    HW249252   3.714   2.027   4.467  1.7282  1.0908 -1.2587
15454SOL     OW49253   0.913   3.826   3.310 -0.0549  0.4548  0.2277
15454SOL    HW149254   1.007   3.809   3.314  0.1032  0.7744 -1.5689
15454SOL    HW249255   0.872   3.742   3.333  0.6587  0.0642  0.0910
15455SOL     OW49256   6.653   0.881   0.242 -0.1174 -0.0526  0.1942
15455SOL    HW149257   6.565   0.860   0.274  0.1180 -1.1636  0.1239
15455SOL    HW249258   6.650   0.860   0.149 -0.2586  1.4823 -0.1727
15456SOL     OW49259   3.948   7.626   7.204 -0.7698 -0.1344 -0.2328
15456SOL    HW149260   3.869   7.572   7.212 -0.0305 -1.1213  0.9140
15456SOL    HW249261   4.020   7.565   7.221  0.1311  1.1369  0.7156
15457SOL     OW49262   8.245   2.980   3.204 -0.6249 -0.2047  0.0418
15457SOL    HW149263   8.292   2.896   3.207  1.2488  0.7777 -0.6494
15457SOL    HW249264   8.237   3.005   3.296  0.3076 -0.3487  0.1749
15458SOL     OW49265   4.201   5.447   7.959  0.1722  0.1812 -0.1304
15458SOL    HW149266   4.264   5.378   7.935 -0.2411  0.5181 -2.3785
15458SOL    HW249267   4.116   5.403   7.960  0.0853  0.3489 -0.1083
15459SOL     OW49268   7.109   6.787   1.585  0.2420 -0.4572 -0.2126
15459SOL    HW149269   7.146   6.775   1.672  0.0142  1.0561  0.1199
15459SOL    HW249270   7.016   6.766   1.595 -0.5633  2.9774  0.8124
15460SOL     OW49271   0.880   8.261   4.363  0.1064 -0.2114  0.6508
15460SOL    HW149272   0.858   8.352   4.342 -1.6628 -0.8156 -0.4246
15460SOL    HW249273   0.868   8.254   4.457 -0.6176  0.4728  0.6201
15461SOL     OW49274   2.243   5.187   4.084  0.1118  0.5490 -0.1362
15461SOL    HW149275   2.154   5.197   4.116  0.1689  1.4315 -0.2360
15461SOL    HW249276   2.293   5.256   4.129  0.5834  0.5597 -0.6639
15462SOL     OW49277   9.028   6.310   5.358  0.4312  0.3961  0.1931
15462SOL    HW149278   9.009   6.402   5.344 -0.8380  0.0753 -0.2834
15462SOL    HW249279   8.986   6.265   5.285 -1.7730 -0.8378  2.0857
15463SOL     OW49280   2.675   5.147   2.543  0.1928 -0.0266  0.2575
15463SOL    HW149281   2.697   5.169   2.633 -1.8798  0.8107  0.6277
15463SOL    HW249282   2.739   5.194   2.490  1.4370 -0.5346  1.2528
15464SOL     OW49283   8.302   1.837   6.100 -0.5749 -0.0042 -0.7900
15464SOL    HW149284   8.385   1.823   6.054 -0.9142 -2.8738 -0.6878
15464SOL    HW249285   8.327   1.855   6.191  0.0842 -4.7705  0.2143
15465SOL     OW49286   3.183   4.846   5.796  0.1522  0.0369  0.4694
15465SOL    HW149287   3.230   4.887   5.868  2.4031 -2.2481  0.4749
15465SOL    HW249288   3.121   4.787   5.838  1.1201 -0.9288  0.5878
15466SOL     OW49289   4.066   7.090   6.265 -0.0975  0.4327  0.2710
15466SOL    HW149290   3.994   7.060   6.210  0.1719 -1.3212  0.7938
15466SOL    HW249291   4.055   7.040   6.346 -0.0725  2.4089  1.5730
15467SOL     OW49292   3.314   9.603   3.105  0.0797  0.0499 -0.0424
15467SOL    HW149293   3.403   9.639   3.106  1.2411 -2.4274  2.6797
15467SOL    HW249294   3.312   9.544   3.030  1.1496 -0.6436  0.4489
15468SOL     OW49295   2.788   3.275   4.947 -0.4078 -0.3372 -0.4777
15468SOL    HW149296   2.759   3.218   4.875 -2.2053  0.4025 -0.4046
15468SOL    HW249297   2.833   3.217   5.008  1.5013 -0.9379 -2.3201
15469SOL     OW49298   2.548   3.990   5.115  0.4427  0.2105  0.4644
15469SOL    HW149299   2.559   3.903   5.154  1.6392 -0.4779 -1.2455
15469SOL    HW249300   2.454   3.997   5.098  0.5058 -1.5299 -0.9388
15470SOL     OW49301   6.167   7.758   9.169  0.3730  0.5475 -0.6376
15470SOL    HW149302   6.106   7.832   9.162 -0.2270  0.2108  0.5834
15470SOL    HW249303   6.253   7.796   9.156  0.0161  1.3459 -0.7124
15471SOL     OW49304   0.705   2.212   1.280  0.2493  0.0543 -0.3296
15471SOL    HW149305   0.685   2.284   1.340  3.0402  0.2121  0.5312
15471SOL    HW249306   0.728   2.139   1.336  2.4962  0.0761 -1.1420
15472SOL     OW49307   2.538   4.892   5.057  0.3018  0.0914  0.0516
15472SOL    HW149308   2.473   4.948   5.100  1.4470  0.8328  0.8771
15472SOL    HW249309   2.601   4.953   5.020  1.7883 -0.6047  1.2904
15473SOL     OW49310   1.457   8.350   5.971 -0.4999 -0.1571  0.1559
15473SOL    HW149311   1.376   8.400   5.967  0.3360  1.1750 -1.1386
15473SOL    HW249312   1.495   8.359   5.884 -0.3359 -3.1930 -0.1969
15474SOL     OW49313   3.202   0.695   9.268 -1.0033  0.1888 -0.7799
15474SOL    HW149314   3.291   0.712   9.237 -0.5996  1.6284  1.0022
15474SOL    HW249315   3.211   0.619   9.325 -0.8693  0.4634 -0.4331
15475SOL     OW49316   7.690   3.976   9.356 -0.2056 -0.3801 -0.1804
15475SOL    HW149317   7.729   4.059   9.383 -2.2311 -0.0390  2.1066
15475SOL    HW249318   7.694   3.921   9.435 -1.7331 -1.2831 -0.6859
15476SOL     OW49319   1.266   9.465   8.860 -0.1871 -0.1655 -0.5226
15476SOL    HW149320   1.186   9.518   8.856  0.4850  0.8750 -0.5062
15476SOL    HW249321   1.254   9.399   8.792 -1.1389 -0.1418 -0.3968
15477SOL     OW49322   1.089   0.040   8.829  0.4459 -0.1155  0.6552
15477SOL    HW149323   1.110   0.130   8.856 -0.2133  0.1822  0.1904
15477SOL    HW249324   0.998   0.027   8.856  1.3303 -1.6516  3.3215
15478SOL     OW49325   2.380   5.692   5.187  0.2622 -0.1041  0.1022
15478SOL    HW149326   2.344   5.604   5.203 -3.1838  0.7937 -1.8494
15478SOL    HW249327   2.404   5.692   5.094 -0.3828  1.1898 -0.0851
15479SOL     OW49328   4.944   5.741   1.525 -0.0293 -0.0177 -0.3248
15479SOL    HW149329   4.949   5.755   1.430  2.8702  2.1815 -0.0067
15479SOL    HW249330   4.868   5.792   1.553  0.8965  1.9612 -1.1996
15480SOL     OW49331   6.841   4.336   4.453 -0.3015  0.0178 -0.0217
15480SOL    HW149332   6.788   4.280   4.510 -1.0902  0.1969 -0.5569
15480SOL    HW249333   6.862   4.413   4.506 -1.1098  0.2268 -0.0000
15481SOL     OW49334   2.140   5.721   4.060  0.1462 -0.1164  0.4340
15481SOL    HW149335   2.120   5.658   3.991  1.1159  0.1247 -0.0892
15481SOL    HW249336   2.055   5.748   4.093 -0.3030 -2.2188  1.1645
15482SOL     OW49337   4.262   4.891   8.680  0.5651 -0.6068  0.3134
15482SOL    HW149338   4.215   4.808   8.688  0.2542 -0.8226 -2.6507
15482SOL    HW249339   4.212   4.952   8.734  0.0448 -2.0145  1.5059
15483SOL     OW49340   2.535   7.526   5.107  0.1638 -0.3411  0.2496
15483SOL    HW149341   2.590   7.487   5.039 -1.1195  0.4884 -1.3375
15483SOL    HW249342   2.446   7.497   5.086 -0.5590  1.7458  0.1902
15484SOL     OW49343   2.147   1.168   2.218  0.0360  0.3343 -0.7194
15484SOL    HW149344   2.169   1.148   2.128 -0.5015 -0.1596 -0.7492
15484SOL    HW249345   2.056   1.199   2.214 -1.2645 -2.9705  0.0124
15485SOL     OW49346   6.466   2.884   8.022 -0.9104  0.2577  0.2544
15485SOL    HW149347   6.426   2.971   8.019  0.8862  1.1095 -1.6909
15485SOL    HW249348   6.449   2.847   7.935 -1.8551 -1.4652  1.1393
15486SOL     OW49349   0.919   9.355   9.399 -0.0686 -0.2587 -0.1329
15486SOL    HW149350   0.920   9.263   9.424 -1.9302  0.0676  1.3709
15486SOL    HW249351   0.913   9.354   9.303  0.0520 -1.7009 -0.1438
15487SOL     OW49352   2.378   5.046   9.070  0.4888 -0.4247  0.7938
15487SOL    HW149353   2.452   5.072   9.015 -0.2271  1.2552  0.5706
15487SOL    HW249354   2.400   4.957   9.100  2.2903 -0.2005  0.2363
15488SOL     OW49355   4.339   0.343   1.957  0.6575  0.3213  0.1588
15488SOL    HW149356   4.352   0.321   2.049 -0.1716  0.0466  0.2151
15488SOL    HW249357   4.344   0.258   1.911  0.3577  0.3712  0.0347
15489SOL     OW49358   5.792   2.154   8.904  0.4413 -0.5085  0.0519
15489SOL    HW149359   5.807   2.201   8.986  0.5578 -1.6725  0.7103
15489SOL    HW249360   5.744   2.217   8.849  0.5032  0.3403  0.9349
15490SOL     OW49361   4.022   1.690   5.771 -0.4051 -0.2008 -0.4660
15490SOL    HW149362   3.941   1.730   5.801 -1.0397 -0.4605 -1.7467
15490SOL    HW249363   3.994   1.607   5.731  0.6645 -0.9942  0.3738
15491SOL     OW49364   6.117   5.707   6.075 -0.1089  0.1203 -0.2025
15491SOL    HW149365   6.174   5.784   6.078 -2.0278  1.7556 -1.9793
15491SOL    HW249366   6.175   5.635   6.048  1.2112  1.6251 -1.5926
15492SOL     OW49367   2.638   3.846   1.254  0.0856 -0.5555  0.5086
15492SOL    HW149368   2.640   3.769   1.197  1.8254 -2.0557  2.4308
15492SOL    HW249369   2.725   3.885   1.244 -1.5611  2.9451 -2.4994
15493SOL     OW49370   1.037   4.496   7.817 -0.3476  0.2061  0.7307
15493SOL    HW149371   1.014   4.588   7.833  0.3246  0.9436 -1.9455
15493SOL    HW249372   1.075   4.466   7.899  0.9233  2.8276  1.2242
15494SOL     OW49373   4.239   2.520   3.429 -0.7304 -0.0737  0.0225
15494SOL    HW149374   4.198   2.446   3.385 -3.2374  0.1672  1.7461
15494SOL    HW249375   4.198   2.597   3.388 -1.3400  0.2057  1.1254
15495SOL     OW49376   3.994   3.981   3.558  0.4104 -0.8279  0.6142
15495SOL    HW149377   4.034   3.899   3.530  0.5881  0.0041 -1.7716
15495SOL    HW249378   3.909   3.956   3.593 -0.0550 -1.9697 -1.1953
15496SOL     OW49379   0.222   1.933   6.794 -0.0620  0.5890  0.2924
15496SOL    HW149380   0.163   1.858   6.785 -0.6544  1.0235  0.5036
15496SOL    HW249381   0.168   2.009   6.773  0.8593  0.8717 -1.1893
15497SOL     OW49382   3.113   1.223   5.188  0.3125 -0.4176  0.4154
15497SOL    HW149383   3.070   1.301   5.154  1.5900 -1.0527 -3.0596
15497SOL    HW249384   3.042   1.172   5.228 -0.6171  2.1672  2.3512
15498SOL     OW49385   8.236   9.161   8.780  0.0617 -0.0868 -0.7756
15498SOL    HW149386   8.247   9.066   8.785 -0.6209 -0.1229  2.9470
15498SOL    HW249387   8.325   9.196   8.790  0.1622 -0.3494 -0.7476
15499SOL     OW49388   2.852   7.428   6.008 -0.0043 -0.1129  0.3490
15499SOL    HW149389   2.878   7.336   6.013 -2.2997 -0.7878  0.6856
15499SOL    HW249390   2.921   7.475   6.056  1.3251 -1.5829 -0.0180
15500SOL     OW49391   7.520   0.695   1.936 -0.1969 -0.0115 -0.0690
15500SOL    HW149392   7.459   0.682   2.009 -0.0504 -0.7772 -0.0751
15500SOL    HW249393   7.604   0.713   1.978 -0.2623  0.2876 -0.0594
15501SOL     OW49394   1.828   2.074   1.325  0.2725  0.0205  0.5602
15501SOL    HW149395   1.768   2.147   1.337 -0.4370 -0.8013  2.3729
15501SOL    HW249396   1.915   2.113   1.336  0.0422  0.9977 -0.8853
15502SOL     OW49397   6.407   3.622   0.374 -0.3861  0.7525 -0.2660
15502SOL    HW149398   6.356   3.586   0.447 -1.2901  2.5172  0.0227
15502SOL    HW249399   6.384   3.567   0.299 -1.0663  0.1991  0.3287
15503SOL     OW49400   1.628   8.754   1.487 -0.2774  0.1787  0.6169
15503SOL    HW149401   1.620   8.765   1.393  1.8433 -2.2555  0.0359
15503SOL    HW249402   1.656   8.839   1.519  0.7981  0.5725 -1.2378
15504SOL     OW49403   2.161   2.735   4.858  0.1301  0.1026  0.2921
15504SOL    HW149404   2.141   2.684   4.779  1.0067  0.6104 -0.2678
15504SOL    HW249405   2.080   2.783   4.876  0.0774  0.3806 -0.6133
15505SOL     OW49406   8.920   6.691   0.800  0.1501 -0.2527  0.3530
15505SOL    HW149407   8.858   6.625   0.769  0.9603 -1.6812  1.6418
15505SOL    HW249408   8.924   6.678   0.894  1.6927  0.4462  0.4083
15506SOL     OW49409   6.119   7.732   4.401  0.4655 -0.2273  0.3234
15506SOL    HW149410   6.160   7.815   4.377  0.5670 -0.6900 -1.2023
15506SOL    HW249411   6.067   7.752   4.479 -1.3485  1.8130 -1.3083
15507SOL     OW49412   1.251   8.888   8.142  0.1407 -0.2659 -0.3745
15507SOL    HW149413   1.296   8.831   8.079 -0.4778 -1.6035  0.3524
15507SOL    HW249414   1.273   8.977   8.113  2.2432 -0.8391 -0.7548
15508SOL     OW49415   0.284   5.132   3.703 -0.4763  0.0263 -0.0993
15508SOL    HW149416   0.354   5.176   3.655  0.0882  0.6817  1.2802
15508SOL    HW249417   0.318   5.044   3.719 -0.6484 -0.1794 -0.8427
15509SOL     OW49418   7.719   2.174   8.717 -0.7102  0.2001 -0.4351
15509SOL    HW149419   7.684   2.126   8.793 -2.4832  1.6565 -0.2562
15509SOL    HW249420   7.641   2.202   8.669  0.2537  2.3217 -0.8642
15510SOL     OW49421   4.867   4.961   7.489  0.3527  0.1398  0.2016
15510SOL    HW149422   4.858   5.006   7.405  1.6899  0.8194  0.3831
15510SOL    HW249423   4.878   4.869   7.467  0.3811  0.2756 -0.3595
15511SOL     OW49424   5.561   7.938   2.466  0.8604  0.1048 -0.1253
15511SOL    HW149425   5.571   7.955   2.372  1.0492  0.5329 -0.0275
15511SOL    HW249426   5.548   7.843   2.471  2.3581 -0.1350 -0.4632
15512SOL     OW49427   4.949   6.270   5.832 -0.5697 -0.6960  0.0196
15512SOL    HW149428   4.992   6.329   5.769 -1.0647 -0.3230  0.0270
15512SOL    HW249429   5.011   6.198   5.842  1.0057  0.7775  1.5683
15513SOL     OW49430   5.527   8.105   6.945 -0.2329  0.4764 -0.1662
15513SOL    HW149431   5.586   8.152   6.885  1.4532 -1.9581 -0.5801
15513SOL    HW249432   5.584   8.077   7.017 -1.0469 -1.1255 -0.0991
15514SOL     OW49433   2.687   3.748   9.600  0.0284 -0.0057  0.0959
15514SOL    HW149434   2.679   3.802   9.679  1.1592  1.7017 -0.9225
15514SOL    HW249435   2.766   3.696   9.615  1.3361  1.6810 -0.6503
15515SOL     OW49436   6.376   3.938   3.583  0.0763  0.4401  0.2693
15515SOL    HW149437   6.384   3.954   3.489  0.8409 -0.8235  0.1036
15515SOL    HW249438   6.368   3.843   3.591  1.0611  0.4384  1.5442
15516SOL     OW49439   0.810   3.668   7.343 -0.0374  0.5088 -0.3060
15516SOL    HW149440   0.830   3.676   7.437 -0.8441  1.4357 -0.1963
15516SOL    HW249441   0.717   3.690   7.336 -0.3506 -0.9755 -1.1594
15517SOL     OW49442   8.745   0.852   8.318  0.1608 -0.4062  0.7063
15517SOL    HW149443   8.659   0.867   8.357 -1.2206 -1.8295 -1.4965
15517SOL    HW249444   8.756   0.925   8.256  0.4836 -0.2929  0.8967
15518SOL     OW49445   0.166   2.363   1.662  0.1501  0.5649 -0.4633
15518SOL    HW149446   0.119   2.419   1.600  0.3215  2.8078  1.2903
15518SOL    HW249447   0.258   2.378   1.643  0.2100 -0.4832 -1.0775
15519SOL     OW49448   0.786   7.353   2.987  0.0448 -0.1146 -0.5450
15519SOL    HW149449   0.830   7.423   3.036 -0.1667  0.9577 -1.8367
15519SOL    HW249450   0.707   7.334   3.039  0.8992 -0.5470  0.6520
15520SOL     OW49451   2.003   0.658   8.107 -0.3066 -0.0096  0.1119
15520SOL    HW149452   2.080   0.713   8.121  0.3824 -0.4154 -1.7490
15520SOL    HW249453   1.938   0.717   8.070  0.7558 -0.4842 -2.8261
15521SOL     OW49454   6.192   1.594   4.850 -0.2753  0.0133 -0.8436
15521SOL    HW149455   6.201   1.561   4.939 -1.4208  1.7884 -0.0096
15521SOL    HW249456   6.129   1.535   4.808 -0.4247 -0.3034 -0.1807
15522SOL     OW49457   9.342   5.236   9.071 -0.1033 -0.1569  0.4892
15522SOL    HW149458   9.272   5.241   9.005  1.0412  1.6580 -0.6858
15522SOL    HW249459   9.314   5.298   9.139 -0.6479 -1.0613  1.1200
15523SOL     OW49460   5.125   5.909   0.932  0.8548  0.7653  0.2752
15523SOL    HW149461   5.032   5.926   0.951  0.4226  1.8022 -2.4539
15523SOL    HW249462   5.130   5.814   0.922 -0.1906  0.8102 -0.7975
15524SOL     OW49463   2.850   6.958   2.435 -0.2715 -0.5262  0.3707
15524SOL    HW149464   2.774   6.998   2.477 -1.2718 -0.5873 -1.2961
15524SOL    HW249465   2.847   6.866   2.464 -0.0285 -0.2326  1.3768
15525SOL     OW49466   0.656   9.249   2.059  0.2070 -0.0125  0.0418
15525SOL    HW149467   0.731   9.283   2.011  1.1641 -0.8279  0.9176
15525SOL    HW249468   0.629   9.322   2.115  0.8963  0.0098  0.3539
15526SOL     OW49469   3.867   4.652   2.739 -0.1103 -0.0015  0.2219
15526SOL    HW149470   3.793   4.691   2.785 -0.5314  1.1871 -1.4046
15526SOL    HW249471   3.838   4.563   2.718 -2.3011  1.2942 -2.8866
15527SOL     OW49472   6.050   6.769   2.526 -0.2922  0.2091 -0.1000
15527SOL    HW149473   6.097   6.708   2.469 -0.6755 -0.2888  0.1148
15527SOL    HW249474   5.958   6.752   2.508 -0.4018  0.7889 -0.0993
15528SOL     OW49475   8.592   5.132   4.401 -0.0452  0.2658 -0.1078
15528SOL    HW149476   8.642   5.165   4.476  0.7309 -0.5009 -0.2647
15528SOL    HW249477   8.633   5.048   4.381  0.3179  0.8362 -1.9334
15529SOL     OW49478   0.353   2.175   1.474 -0.1206 -0.1424 -0.0548
15529SOL    HW149479   0.416   2.137   1.536 -1.4925 -1.4513  0.6109
15529SOL    HW249480   0.370   2.269   1.476 -0.0237 -0.1548  2.2418
15530SOL     OW49481   8.990   8.131   1.936 -0.3478 -0.3910  0.1148
15530SOL    HW149482   9.075   8.173   1.950  0.3662 -1.5209 -0.6199
15530SOL    HW249483   8.965   8.157   1.847 -0.1706 -1.0198 -0.1287
15531SOL     OW49484   5.977   8.855   0.159 -0.1230  0.2125 -0.0875
15531SOL    HW149485   5.922   8.908   0.217 -0.8715 -0.4381 -0.1841
15531SOL    HW249486   5.984   8.906   0.079 -0.5985  0.2986 -0.0770
15532SOL     OW49487   0.933   6.953   6.325  0.2338  0.1064 -0.3756
15532SOL    HW149488   0.964   6.863   6.335  0.7071  0.3641  0.5823
15532SOL    HW249489   0.841   6.944   6.302  0.0784 -0.6213  0.4613
15533SOL     OW49490   6.905   4.799   0.603  0.0141  0.6945  0.2579
15533SOL    HW149491   6.956   4.850   0.666 -1.7050  1.7377  0.8668
15533SOL    HW249492   6.851   4.741   0.658 -0.4261  0.5581 -0.3127
15534SOL     OW49493   1.640   5.413   2.230  0.1088  0.4308 -0.2626
15534SOL    HW149494   1.637   5.467   2.151 -2.1903 -0.5520 -0.9278
15534SOL    HW249495   1.601   5.330   2.204 -3.1451  0.8970  2.4757
15535SOL     OW49496   9.055   4.203   0.475 -0.5496  0.2487  0.3552
15535SOL    HW149497   9.146   4.225   0.491 -0.2563  0.8875 -1.7830
15535SOL    HW249498   9.022   4.275   0.421 -1.5175 -1.2488 -1.1760
15536SOL     OW49499   5.301   7.268   1.419 -0.4545  0.1052  0.1061
15536SOL    HW149500   5.211   7.244   1.400 -0.1713  0.1144 -1.3434
15536SOL    HW249501   5.337   7.297   1.335  1.4279 -1.5969  0.2389
15537SOL     OW49502   2.712   2.892   6.420 -0.5214  0.6760 -0.1376
15537SOL    HW149503   2.712   2.814   6.476 -0.7798 -0.0475 -1.1126
15537SOL    HW249504   2.798   2.932   6.434 -0.6068  0.5587  0.8218
15538SOL     OW49505   2.789   0.265   4.767  0.2766  0.0353 -0.3505
15538SOL    HW149506   2.862   0.207   4.791 -1.1156 -1.5704  0.2637
15538SOL    HW249507   2.790   0.268   4.672  1.2387  0.1675 -0.3405
15539SOL     OW49508   2.943   6.895   2.854 -0.0542  0.5835 -0.1681
15539SOL    HW149509   2.915   6.825   2.913  1.0223  0.0831 -0.2327
15539SOL    HW249510   2.936   6.975   2.906 -0.2343  0.2887  0.2628
15540SOL     OW49511   2.315   9.634   4.358  0.6310 -0.4246  0.2304
15540SOL    HW149512   2.256   9.618   4.432 -1.1439 -1.2282 -1.2892
15540SOL    HW249513   2.305   9.727   4.340 -0.4833 -0.6234 -0.2408
15541SOL     OW49514   5.385   6.083   6.469  0.4074  0.2880 -0.1949
15541SOL    HW149515   5.478   6.103   6.459  0.6437  0.2420  1.6021
15541SOL    HW249516   5.346   6.110   6.386  1.9117  0.9308 -0.7369
15542SOL     OW49517   4.404   8.097   7.990  0.0131 -0.1167  0.0817
15542SOL    HW149518   4.373   8.188   7.986 -1.6750 -0.6410  0.2523
15542SOL    HW249519   4.397   8.066   7.900 -0.6648 -0.4427  0.2379
15543SOL     OW49520   4.048   2.055   2.035 -0.6118  0.0565  0.1459
15543SOL    HW149521   3.984   2.012   1.978 -0.5860  1.2036 -0.7955
15543SOL    HW249522   3.994   2.111   2.092 -0.5133  0.3422 -0.0400
15544SOL     OW49523   6.497   3.285   0.888  0.3026  0.5161 -0.0692
15544SOL    HW149524   6.495   3.330   0.973  0.4425 -0.9141  0.7179
15544SOL    HW249525   6.583   3.243   0.885  0.3177  0.6069 -0.9475
15545SOL     OW49526   7.649   2.650   5.167 -0.2113 -0.8492 -0.1902
15545SOL    HW149527   7.576   2.659   5.228  0.2178  1.8652  0.0249
15545SOL    HW249528   7.690   2.567   5.192 -0.9476 -0.5624  2.2502
15546SOL     OW49529   6.573   5.280   7.661 -0.0834  0.3137  0.4651
15546SOL    HW149530   6.490   5.258   7.618 -0.2019  2.1680 -0.3299
15546SOL    HW249531   6.547   5.318   7.745 -0.1587  2.0906 -0.3134
15547SOL     OW49532   8.513   6.064   7.250  0.4084 -0.2632  0.6397
15547SOL    HW149533   8.507   5.983   7.198  1.9631  1.2674 -2.1252
15547SOL    HW249534   8.433   6.064   7.302 -0.9378 -2.2926 -1.2292
15548SOL     OW49535   9.413   6.363   1.696  0.4312 -0.2859 -0.4245
15548SOL    HW149536   9.425   6.379   1.602  1.5841  0.2338 -0.2055
15548SOL    HW249537   9.418   6.268   1.704 -0.1326 -0.3672 -0.9401
15549SOL     OW49538   4.435   0.891   6.201 -0.3991 -0.5720 -0.3840
15549SOL    HW149539   4.514   0.917   6.155 -1.3491  0.9329 -1.2716
15549SOL    HW249540   4.424   0.798   6.181 -0.6337 -0.0362 -3.0419
15550SOL     OW49541   6.743   3.870   8.530 -0.2652 -0.1245  0.0782
15550SOL    HW149542   6.788   3.825   8.602 -0.8994  0.3950  0.8068
15550SOL    HW249543   6.720   3.800   8.469  0.6147 -0.5229  0.1807
15551SOL     OW49544   3.401   7.557   7.733  0.3033 -0.1085 -0.0668
15551SOL    HW149545   3.401   7.477   7.787 -0.2254 -0.2155 -0.2196
15551SOL    HW249546   3.308   7.576   7.720  0.4251  0.6735  0.1750
15552SOL     OW49547   7.921   3.353   2.467  0.2320  0.0601  0.0558
15552SOL    HW149548   7.939   3.332   2.559 -0.2139 -1.4350 -0.1694
15552SOL    HW249549   7.869   3.433   2.470  0.4837  0.2009  1.0823
15553SOL     OW49550   8.042   6.172   7.584  0.4918 -0.2529 -0.3573
15553SOL    HW149551   8.009   6.253   7.544 -0.1413 -0.3047  0.0433
15553SOL    HW249552   7.964   6.119   7.599  0.6939 -0.1930  1.0483
15554SOL     OW49553   3.150   0.998   3.673 -0.2449 -0.1078  0.6330
15554SOL    HW149554   3.181   0.909   3.657  2.8033  0.9381 -0.0608
15554SOL    HW249555   3.125   1.031   3.586  0.1590  0.1998  0.6299
15555SOL     OW49556   2.006   3.078   4.165 -0.0598 -0.3926  0.0743
15555SOL    HW149557   2.018   3.167   4.198 -1.2418 -0.7673  1.6073
15555SOL    HW249558   2.093   3.053   4.134  0.4668  1.0022  0.3227
15556SOL     OW49559   2.507   3.586   5.331  0.3545  0.0803  0.1224
15556SOL    HW149560   2.474   3.533   5.259  1.4331 -0.7011  0.1752
15556SOL    HW249561   2.471   3.545   5.410  0.1478  0.2130  0.0986
15557SOL     OW49562   9.579   5.236   6.301 -0.0806  0.6928  1.0620
15557SOL    HW149563   9.582   5.168   6.234  0.1923  1.2876  0.4644
15557SOL    HW249564   9.661   5.225   6.350 -0.3304  0.1905  1.3746
15558SOL     OW49565   0.743   2.117   9.332  0.2527  0.2756  0.1579
15558SOL    HW149566   0.719   2.181   9.399 -0.1009  1.3405 -0.9544
15558SOL    HW249567   0.758   2.169   9.254  2.3761 -0.7645 -0.1898
15559SOL     OW49568   3.898   9.357   1.216  0.4252  0.5893  0.1034
15559SOL    HW149569   3.802   9.357   1.215  0.3275  0.7513  2.8921
15559SOL    HW249570   3.922   9.288   1.155 -1.4784  0.0875 -0.1532
15560SOL     OW49571   5.278   6.899   4.547  0.3530  0.1268  0.0224
15560SOL    HW149572   5.315   6.886   4.634 -2.0631 -0.5545  1.0488
15560SOL    HW249573   5.214   6.828   4.538  0.4224  0.2842 -2.2575
15561SOL     OW49574   3.373   3.401   7.284 -0.3462 -0.0118 -0.0975
15561SOL    HW149575   3.406   3.317   7.315  3.0858  1.5772  1.1131
15561SOL    HW249576   3.385   3.460   7.359  2.2568  2.5803 -2.2901
15562SOL     OW49577   8.606   4.221   2.719  0.4394 -0.1072 -0.5409
15562SOL    HW149578   8.667   4.294   2.729 -0.4088  0.4267  1.3499
15562SOL    HW249579   8.572   4.229   2.630  0.8033  1.4598 -0.5675
15563SOL     OW49580   0.662   0.874   5.128 -0.2240  0.2164 -0.2187
15563SOL    HW149581   0.714   0.914   5.197  0.1343 -0.2142 -0.2378
15563SOL    HW249582   0.716   0.879   5.050 -1.6034  3.0522 -1.1386
15564SOL     OW49583   8.037   3.570   5.176 -0.5345 -0.2030 -0.4062
15564SOL    HW149584   8.097   3.495   5.174  0.4582  0.5852 -0.8480
15564SOL    HW249585   8.028   3.595   5.084  1.1847  1.7932 -0.0902
15565SOL     OW49586   8.853   4.749   7.181 -0.0710 -0.1502  0.0210
15565SOL    HW149587   8.760   4.738   7.159 -0.2514  1.5535 -0.1746
15565SOL    HW249588   8.871   4.678   7.244 -1.6194 -0.2256  0.4257
15566SOL     OW49589   5.083   6.146   7.072 -0.1216 -0.4495 -0.1756
15566SOL    HW149590   5.172   6.141   7.107  0.5631 -0.0223 -1.7726
15566SOL    HW249591   5.049   6.230   7.102 -0.6371 -1.3227  1.8278
15567SOL     OW49592   7.677   5.535   9.380  0.0247 -0.3939 -0.0718
15567SOL    HW149593   7.643   5.538   9.290  0.6118 -2.8334 -0.4546
15567SOL    HW249594   7.768   5.508   9.369  0.3464  0.0973  1.2480
15568SOL     OW49595   1.186   6.833   4.572 -0.1239 -0.0244 -0.1178
15568SOL    HW149596   1.096   6.867   4.579 -0.0956  0.2563 -1.0027
15568SOL    HW249597   1.178   6.740   4.593 -0.7150 -0.1092 -0.6869
15569SOL     OW49598   3.421   4.153   1.088  0.1047 -0.2371 -0.5853
15569SOL    HW149599   3.438   4.065   1.054  0.4774  0.2274 -1.6780
15569SOL    HW249600   3.507   4.189   1.106 -0.1008 -0.5146  1.0209
15570SOL     OW49601   0.103   3.086   3.683  0.2555 -0.0286 -0.3889
15570SOL    HW149602   0.187   3.085   3.728 -0.0567 -2.9242  0.2963
15570SOL    HW249603   0.042   3.124   3.747 -0.0048 -3.2763  1.4732
15571SOL     OW49604   4.841   4.099   1.398  0.3898 -0.0155  0.4575
15571SOL    HW149605   4.843   4.098   1.493  1.4923  1.0628  0.4679
15571SOL    HW249606   4.858   4.008   1.372 -0.4737 -0.4263  1.2706
15572SOL     OW49607   7.292   5.750   4.817  0.1456 -0.3470 -0.6436
15572SOL    HW149608   7.295   5.769   4.910 -2.3364 -0.2438 -0.5079
15572SOL    HW249609   7.312   5.657   4.810  0.3755 -0.3457 -0.0029
15573SOL     OW49610   9.501   7.029   2.811  0.2719  0.1606  0.0337
15573SOL    HW149611   9.455   7.032   2.727  0.4879 -0.5264 -0.1166
15573SOL    HW249612   9.432   7.039   2.877  0.2011  1.6548 -0.2289
15574SOL     OW49613   5.043   9.545   0.615  0.1749 -0.2454 -0.3378
15574SOL    HW149614   5.002   9.491   0.548  0.8685  0.3444 -1.2477
15574SOL    HW249615   4.975   9.610   0.638 -0.4526 -1.1121  0.3526
15575SOL     OW49616   0.568   0.849   7.735 -0.4035  0.0427 -0.5556
15575SOL    HW149617   0.603   0.824   7.821 -0.4457 -2.6252 -1.2085
15575SOL    HW249618   0.475   0.864   7.750 -0.1414  1.1246  0.1038
15576SOL     OW49619   8.345   8.187   7.550 -0.1340  0.2284  0.3807
15576SOL    HW149620   8.379   8.214   7.465 -1.6598  0.0313 -0.3282
15576SOL    HW249621   8.287   8.259   7.576 -0.9676 -0.4499  0.4507
15577SOL     OW49622   5.216   6.786   6.159  0.0747 -0.6426  0.5147
15577SOL    HW149623   5.141   6.802   6.217 -0.1348  1.0701 -0.1633
15577SOL    HW249624   5.272   6.726   6.208 -0.8266 -0.4515  1.8458
15578SOL     OW49625   5.914   8.568   7.288 -0.5703  0.1851  0.0714
15578SOL    HW149626   5.889   8.660   7.290 -0.8204  0.1065  1.5945
15578SOL    HW249627   5.919   8.546   7.194 -0.3550  1.7679 -0.3081
15579SOL     OW49628   3.842   5.014   4.402 -0.0343  0.2301  0.0875
15579SOL    HW149629   3.752   5.020   4.369  0.4447  0.8137 -1.1347
15579SOL    HW249630   3.894   4.987   4.327  0.6156 -1.7581  1.1641
15580SOL     OW49631   7.753   2.956   1.023 -0.1807 -0.2648 -0.0174
15580SOL    HW149632   7.774   3.032   1.076  0.2594  0.4996 -1.2409
15580SOL    HW249633   7.833   2.902   1.025 -0.8026 -1.1987  1.6085
15581SOL     OW49634   5.748   4.029   0.614 -0.4208 -0.3019  0.4170
15581SOL    HW149635   5.717   4.119   0.621 -0.2354 -0.1246 -0.7994
15581SOL    HW249636   5.840   4.033   0.640 -0.1302  0.0672 -0.5984
15582SOL     OW49637   4.163   3.759   0.983  0.2354  0.4173 -0.9656
15582SOL    HW149638   4.210   3.784   1.063 -0.1480 -0.0698 -0.5831
15582SOL    HW249639   4.077   3.730   1.014  0.8041 -1.8297 -1.3231
15583SOL     OW49640   3.260   0.596   6.063 -0.2360 -0.6694  0.1949
15583SOL    HW149641   3.327   0.607   6.131 -0.4961 -0.1185  0.3674
15583SOL    HW249642   3.291   0.522   6.011  0.8822  0.0026 -0.1516
15584SOL     OW49643   6.339   7.751   8.762  0.2259 -0.0203  0.3990
15584SOL    HW149644   6.419   7.701   8.749  1.9093  1.8231  2.8833
15584SOL    HW249645   6.364   7.841   8.745 -1.6533  0.4842  0.0945
15585SOL     OW49646   1.354   4.482   2.032  0.2828  0.3088  0.1039
15585SOL    HW149647   1.285   4.439   2.082  1.1452 -0.3819  0.7292
15585SOL    HW249648   1.373   4.421   1.961  1.0827 -0.0881  0.6397
15586SOL     OW49649   4.547   8.216   8.333 -0.2315 -0.5469  0.2735
15586SOL    HW149650   4.626   8.186   8.377 -0.3906  1.0574  1.7803
15586SOL    HW249651   4.559   8.192   8.242  2.2397  0.1266  0.3736
15587SOL     OW49652   6.324   9.117   4.250 -0.2372 -0.7773  0.2277
15587SOL    HW149653   6.388   9.118   4.178  0.8459  1.6923  1.0963
15587SOL    HW249654   6.378   9.127   4.328 -1.5438 -1.3586  1.2200
15588SOL     OW49655   3.702   1.245   7.526  0.1256 -0.4478 -0.1716
15588SOL    HW149656   3.753   1.164   7.531 -1.7970 -1.7048  0.3663
15588SOL    HW249657   3.715   1.286   7.612  0.2602 -0.7225 -0.0583
15589SOL     OW49658   4.414   3.510   5.603  0.5274  0.1993 -0.1168
15589SOL    HW149659   4.376   3.503   5.690  1.1231  0.8914  0.2026
15589SOL    HW249660   4.509   3.502   5.616  0.6025 -0.0310 -0.7367
15590SOL     OW49661   4.861   5.592   9.217  0.1311 -0.0366 -0.0193
15590SOL    HW149662   4.791   5.590   9.152  0.1285  0.7690 -0.0544
15590SOL    HW249663   4.940   5.567   9.168  0.2415  1.1595 -0.5016
15591SOL     OW49664   8.922   3.625   8.163  0.9108 -0.0654  0.0395
15591SOL    HW149665   8.931   3.652   8.072 -0.6570  1.1082  0.1997
15591SOL    HW249666   8.910   3.707   8.211  0.0357 -0.7823  1.0804
15592SOL     OW49667   8.496   9.208   2.739  0.0347 -0.2279  0.0699
15592SOL    HW149668   8.488   9.120   2.775 -3.0912 -0.3929 -0.7241
15592SOL    HW249669   8.444   9.263   2.797 -0.4874  0.5233 -1.0592
15593SOL     OW49670   0.606   2.705   6.738  0.2556 -0.1217  0.5153
15593SOL    HW149671   0.620   2.799   6.724 -0.1537 -0.3211 -1.5871
15593SOL    HW249672   0.693   2.670   6.752  0.7325  0.2501 -1.2444
15594SOL     OW49673   5.908   7.289   0.673 -0.1572 -0.1290 -0.6169
15594SOL    HW149674   5.842   7.323   0.611 -1.2041  1.5434  1.2845
15594SOL    HW249675   5.989   7.288   0.622 -1.3176 -0.7287 -2.5840
15595SOL     OW49676   8.265   4.954   8.666 -0.5473  0.5315  0.3942
15595SOL    HW149677   8.248   4.861   8.654  0.6930  0.5868 -2.3150
15595SOL    HW249678   8.181   4.996   8.647 -0.8605  0.0457  0.6692
15596SOL     OW49679   9.208   0.095   3.388  0.1404 -0.2409  0.5578
15596SOL    HW149680   9.163   0.176   3.412 -0.9685 -1.1345  1.6078
15596SOL    HW249681   9.261   0.119   3.312 -2.3829  0.7715 -0.9766
15597SOL     OW49682   0.098   1.925   9.352  0.0803 -0.2464  0.3889
15597SOL    HW149683   0.132   1.905   9.265  1.1191 -0.5612  0.8503
15597SOL    HW249684   0.173   1.912   9.411  0.3731  3.1132  0.9811
15598SOL     OW49685   8.755   8.682   6.447  0.2690  0.0672 -0.1015
15598SOL    HW149686   8.697   8.712   6.518 -0.1739  0.4841 -0.6261
15598SOL    HW249687   8.776   8.591   6.470  0.3924  0.2915  0.7253
15599SOL     OW49688   9.385   9.615   0.484 -0.5451 -0.7636 -0.3361
15599SOL    HW149689   9.343   9.654   0.560 -0.5391 -1.0053 -0.2105
15599SOL    HW249690   9.403   9.525   0.509  1.6870 -0.2224  0.3041
15600SOL     OW49691   1.418   7.826   3.033  0.2734 -0.0797 -0.0576
15600SOL    HW149692   1.395   7.843   3.125  0.6896 -0.3124  0.0941
15600SOL    HW249693   1.375   7.896   2.984 -2.1662 -1.4453  0.0152
15601SOL     OW49694   5.789   7.859   5.864  0.2691  0.2216 -0.0350
15601SOL    HW149695   5.778   7.954   5.852 -2.3829  0.0483  0.3608
15601SOL    HW249696   5.778   7.823   5.776  1.1729  0.2541 -0.1687
15602SOL     OW49697   4.888   7.270   0.296  0.2582  0.1156  0.0206
15602SOL    HW149698   4.849   7.334   0.356 -1.4517 -1.7389  0.9887
15602SOL    HW249699   4.916   7.198   0.352 -2.1359 -2.0476 -1.3355
15603SOL     OW49700   7.978   7.119   3.064 -0.0594 -0.2279  0.1991
15603SOL    HW149701   8.026   7.072   2.997  0.2585 -0.1943  0.4046
15603SOL    HW249702   7.912   7.170   3.016 -0.0372 -0.4473 -0.0606
15604SOL     OW49703   7.346   3.115   2.678  0.3021  0.2842  0.0436
15604SOL    HW149704   7.256   3.140   2.660 -0.2412 -1.4706  0.1185
15604SOL    HW249705   7.369   3.163   2.757 -0.7444  0.3443  0.3252
15605SOL     OW49706   8.544   2.907   6.684 -0.1365  0.5093  0.4682
15605SOL    HW149707   8.563   3.000   6.673  0.2687  0.2815 -1.0678
15605SOL    HW249708   8.582   2.885   6.769 -1.4069  2.0146  1.4719
15606SOL     OW49709   6.172   0.711   0.356 -0.8818  0.2907  0.0438
15606SOL    HW149710   6.076   0.706   0.350 -1.1563 -0.6953  3.2944
15606SOL    HW249711   6.198   0.624   0.389  1.1048  0.6554 -0.4539
15607SOL     OW49712   4.524   8.448   1.335 -0.2821 -0.0374  0.6290
15607SOL    HW149713   4.502   8.375   1.277  0.6073 -0.7785  1.2041
15607SOL    HW249714   4.451   8.453   1.397 -1.2853  0.8167 -0.5581
15608SOL     OW49715   2.735   0.509   5.189  0.3586 -0.0141  0.3281
15608SOL    HW149716   2.691   0.424   5.193 -0.2465  0.2792 -0.0019
15608SOL    HW249717   2.819   0.490   5.146  0.4484 -0.5295  0.7176
15609SOL     OW49718   7.243   8.867   3.904  0.2726  0.0470  0.7302
15609SOL    HW149719   7.273   8.897   3.990 -0.8342 -0.4048  1.2972
15609SOL    HW249720   7.154   8.837   3.920  0.4699 -1.1634 -0.3436
15610SOL     OW49721   8.516   0.238   4.239 -0.0261  0.3310 -0.0081
15610SOL    HW149722   8.498   0.288   4.159 -1.7413 -2.4420 -1.5266
15610SOL    HW249723   8.589   0.181   4.216 -1.9856 -2.1540 -0.5880
15611SOL     OW49724   2.193   7.398   3.416  0.6587  0.3217 -0.0661
15611SOL    HW149725   2.269   7.376   3.471  0.6921 -2.0852 -0.9743
15611SOL    HW249726   2.136   7.449   3.474  1.4950 -0.6084  1.6686
15612SOL     OW49727   1.684   3.625   7.538  0.3665  0.2100 -0.0151
15612SOL    HW149728   1.724   3.640   7.452  1.1256  0.0861  0.3120
15612SOL    HW249729   1.714   3.538   7.563 -0.3639 -0.0164  0.1033
15613SOL     OW49730   9.277   1.022   6.525 -0.0264 -0.2661  0.5997
15613SOL    HW149731   9.368   1.048   6.509 -0.2502  1.6741  2.0415
15613SOL    HW249732   9.225   1.099   6.503 -1.1010 -0.5691  1.8769
15614SOL     OW49733   8.481   7.783   3.596  0.2370  0.1872  0.0981
15614SOL    HW149734   8.445   7.785   3.508 -0.6141  0.2233  0.4361
15614SOL    HW249735   8.438   7.707   3.638  0.5429  0.2394  0.5113
15615SOL     OW49736   9.441   4.333   3.012 -0.5395 -0.6967  0.1604
15615SOL    HW149737   9.511   4.386   2.974 -1.3403  0.0169 -0.3516
15615SOL    HW249738   9.373   4.396   3.036 -1.1789 -1.4152  0.2695
15616SOL     OW49739   1.700   7.172   5.384 -0.3467 -0.1256  0.6108
15616SOL    HW149740   1.727   7.159   5.475 -1.5333 -2.6927  0.7058
15616SOL    HW249741   1.654   7.091   5.361  0.3455  0.2054 -2.4454
15617SOL     OW49742   7.838   4.729   5.623 -0.2347 -0.1164 -0.5419
15617SOL    HW149743   7.902   4.796   5.647 -0.4280  0.3606 -1.3515
15617SOL    HW249744   7.883   4.677   5.556 -0.6865  0.2202 -1.1138
15618SOL     OW49745   2.821   6.286   2.504 -0.2068  0.0340 -0.6088
15618SOL    HW149746   2.741   6.248   2.540 -0.0926  0.3166 -0.0538
15618SOL    HW249747   2.862   6.214   2.455 -1.0738  0.0394 -1.3634
15619SOL     OW49748   8.330   9.605   0.719  0.0971  0.1031 -0.2874
15619SOL    HW149749   8.388   9.681   0.715 -1.0384  0.9726 -1.0064
15619SOL    HW249750   8.371   9.539   0.663  0.7896  0.4132 -0.1406
15620SOL     OW49751   9.536   2.719   4.896  0.1149  0.0103  0.1450
15620SOL    HW149752   9.560   2.778   4.825  1.9054 -0.6637  0.1355
15620SOL    HW249753   9.591   2.746   4.969  1.5579 -2.0500 -0.0863
15621SOL     OW49754   7.854   7.485   1.515 -0.2993  0.4662  0.3557
15621SOL    HW149755   7.860   7.580   1.506  1.5813  0.3751  0.2724
15621SOL    HW249756   7.925   7.451   1.461  1.1156 -0.8201  2.8367
15622SOL     OW49757   7.401   7.903   2.896  0.6384  0.0313  0.2745
15622SOL    HW149758   7.451   7.828   2.926 -1.9509 -0.5098  3.8793
15622SOL    HW249759   7.435   7.977   2.946  0.0024  0.2864  0.3479
15623SOL     OW49760   2.005   7.498   5.822 -0.3481 -0.1274  0.1304
15623SOL    HW149761   1.948   7.463   5.891 -2.6462  1.5184 -0.7964
15623SOL    HW249762   2.006   7.593   5.838 -0.0780  0.1707 -1.4626
15624SOL     OW49763   4.520   2.333   5.091 -0.2804  0.1245 -0.5236
15624SOL    HW149764   4.588   2.359   5.029  0.1215  0.1943 -0.0543
15624SOL    HW249765   4.475   2.261   5.048 -1.4717  1.5945 -1.8970
15625SOL     OW49766   4.785   3.773   1.408 -0.0907 -0.0051  0.2284
15625SOL    HW149767   4.712   3.834   1.416  0.4775  1.1757 -2.5402
15625SOL    HW249768   4.806   3.750   1.498 -1.0086  3.1053  1.3844
15626SOL     OW49769   8.251   9.096   2.184 -0.8642 -1.0334  0.0863
15626SOL    HW149770   8.226   9.178   2.142 -0.6928  0.9935  3.5374
15626SOL    HW249771   8.171   9.044   2.186 -1.5024 -0.0830 -0.3775
15627SOL     OW49772   8.718   6.110   6.971  0.5586 -0.2063  0.1139
15627SOL    HW149773   8.719   6.094   7.065 -0.7113 -1.5077 -0.0565
15627SOL    HW249774   8.738   6.025   6.931 -2.8247 -0.7312 -0.7975
15628SOL     OW49775   2.895   6.077   5.990  0.0528  0.6792  0.1611
15628SOL    HW149776   2.871   6.075   6.083  3.0806  1.7488  1.0951
15628SOL    HW249777   2.991   6.080   5.990  0.1413  2.1773 -2.9557
15629SOL     OW49778   2.080   6.900   3.579 -0.0389 -0.1535  0.8565
15629SOL    HW149779   2.115   6.835   3.519 -3.5728  0.5182 -2.2802
15629SOL    HW249780   2.095   6.984   3.536 -0.3656  0.6496  2.2281
15630SOL     OW49781   3.390   0.339   7.646 -0.3895  0.1524 -0.2595
15630SOL    HW149782   3.415   0.274   7.712 -1.5235 -1.0877 -1.0168
15630SOL    HW249783   3.388   0.422   7.694 -0.6293 -0.6288  1.1292
15631SOL     OW49784   6.887   9.266   4.833 -0.1686  0.2183  0.3601
15631SOL    HW149785   6.976   9.278   4.866  0.2696 -0.7404 -0.4160
15631SOL    HW249786   6.898   9.243   4.740 -1.0244 -2.6175  0.8423
15632SOL     OW49787   8.351   8.533   5.185 -0.1774 -0.0852  0.8737
15632SOL    HW149788   8.364   8.585   5.264 -4.2630  0.5778  1.2754
15632SOL    HW249789   8.349   8.442   5.217 -0.6214  0.0915  1.3617
15633SOL     OW49790   4.118   8.749   2.295 -0.1204  0.1987  0.4956
15633SOL    HW149791   4.108   8.681   2.229 -1.1675  1.7582 -1.0251
15633SOL    HW249792   4.210   8.745   2.320  0.5392  0.1496 -1.7391
15634SOL     OW49793   3.848   3.356   8.757 -0.2992 -0.7207 -0.0378
15634SOL    HW149794   3.877   3.400   8.677 -1.0057  0.0580  0.1163
15634SOL    HW249795   3.797   3.281   8.725 -0.8776 -0.2109 -0.3320
15635SOL     OW49796   2.274   3.622   1.102 -0.3262  0.4260  0.5860
15635SOL    HW149797   2.294   3.715   1.099 -0.9273  0.5555  0.4539
15635SOL    HW249798   2.333   3.583   1.037  0.0270  0.6894  0.7440
15636SOL     OW49799   4.723   7.698   8.090  0.4829 -0.0290  0.4649
15636SOL    HW149800   4.665   7.675   8.018  0.6357 -1.4405  0.7665
15636SOL    HW249801   4.676   7.766   8.138 -0.6167 -0.6769  0.3270
15637SOL     OW49802   3.861   2.160   6.822  0.1617 -0.2697  0.0305
15637SOL    HW149803   3.777   2.148   6.777 -0.3710 -0.0052  0.9178
15637SOL    HW249804   3.839   2.156   6.915  1.0060  0.6524  0.2881
15638SOL     OW49805   3.969   3.422   6.159 -0.6195 -0.2455  0.4634
15638SOL    HW149806   3.988   3.335   6.125  1.0530  0.1915  0.1565
15638SOL    HW249807   3.896   3.409   6.220 -0.4804 -1.8252  0.3347
15639SOL     OW49808   9.277   3.922   2.166 -0.2131  0.8161  0.2573
15639SOL    HW149809   9.199   3.882   2.128  0.1858 -0.7722  1.0467
15639SOL    HW249810   9.243   3.990   2.223 -1.1115 -0.5188  1.3666
15640SOL     OW49811   8.977   0.114   9.114  0.3062 -0.0190  0.1701
15640SOL    HW149812   8.913   0.175   9.076 -1.7481 -1.4090  1.1991
15640SOL    HW249813   8.937   0.085   9.196  1.1775 -2.7431 -0.2735
15641SOL     OW49814   2.719   2.375   3.083  0.2041 -0.1077 -0.2250
15641SOL    HW149815   2.711   2.471   3.088  0.9006 -0.1096  1.4251
15641SOL    HW249816   2.770   2.359   3.004  0.4457  0.9041 -0.2859
15642SOL     OW49817   4.991   7.540   1.240 -0.2223 -0.3505  0.0103
15642SOL    HW149818   5.000   7.543   1.335 -0.1572 -0.1790 -0.0002
15642SOL    HW249819   4.905   7.579   1.223  0.1326  0.4140 -0.0550
15643SOL     OW49820   0.366   8.833   6.876  0.3994 -0.2797 -0.4026
15643SOL    HW149821   0.393   8.762   6.934  0.1282 -0.5842 -0.6467
15643SOL    HW249822   0.276   8.812   6.853  0.0690  0.5350  0.1097
15644SOL     OW49823   1.356   9.036   2.906  0.1461  0.3776 -0.1022
15644SOL    HW149824   1.366   9.019   2.813  0.2767  0.3059 -0.0752
15644SOL    HW249825   1.383   9.127   2.917  2.2762 -0.2534  0.2099
15645SOL     OW49826   6.331   0.133   7.958 -0.1149 -0.6266 -0.0562
15645SOL    HW149827   6.401   0.128   7.892  0.8588  2.4147  0.5650
15645SOL    HW249828   6.373   0.104   8.039  0.1351  0.1497  0.1017
15646SOL     OW49829   7.946   2.630   8.021 -0.5601  0.0058 -0.0202
15646SOL    HW149830   7.987   2.548   8.050  1.9634  0.8411 -0.9722
15646SOL    HW249831   7.905   2.666   8.100  0.9383 -0.6886  1.1100
15647SOL     OW49832   7.510   2.086   9.433 -0.1735 -0.1765 -0.7706
15647SOL    HW149833   7.513   1.994   9.458 -1.5051 -0.2125 -0.6954
15647SOL    HW249834   7.456   2.128   9.499  0.0248  0.5800 -1.0721
15648SOL     OW49835   4.277   1.325   7.535  0.5421 -0.3411  0.0612
15648SOL    HW149836   4.205   1.322   7.472  2.4309 -1.3951 -2.2114
15648SOL    HW249837   4.275   1.414   7.570 -0.8239  0.1703 -1.2175
15649SOL     OW49838   0.660   7.676   6.190 -1.0826 -0.2916 -0.2890
15649SOL    HW149839   0.642   7.602   6.248 -0.2483  0.9214  1.6376
15649SOL    HW249840   0.726   7.643   6.129  1.2061 -0.5664  2.1272
15650SOL     OW49841   7.855   7.329   8.412 -0.5786 -0.4675  0.5502
15650SOL    HW149842   7.871   7.237   8.392 -1.6027 -0.8349  1.3204
15650SOL    HW249843   7.759   7.338   8.408 -0.4552  0.7145 -0.1236
15651SOL     OW49844   0.812   6.551   1.566 -0.4523 -0.2137  0.2248
15651SOL    HW149845   0.824   6.460   1.594 -0.4140 -0.5126 -0.7301
15651SOL    HW249846   0.887   6.598   1.603  0.1180 -0.7882 -0.1885
15652SOL     OW49847   4.523   6.499   2.931 -0.1293  0.2450  0.8347
15652SOL    HW149848   4.435   6.485   2.966 -0.3939 -0.1116  0.0431
15652SOL    HW249849   4.543   6.590   2.952 -1.0666  0.6078  0.2091
15653SOL     OW49850   4.369   8.932   4.962 -0.1203  0.3002  0.3393
15653SOL    HW149851   4.338   9.006   5.014 -0.1156  0.2564  0.4036
15653SOL    HW249852   4.391   8.970   4.877 -0.5673  0.2918  0.2160
15654SOL     OW49853   8.928   4.472   2.032 -0.2435 -0.2177 -0.2344
15654SOL    HW149854   8.974   4.529   2.093 -2.2812  1.4177 -0.1088
15654SOL    HW249855   8.984   4.469   1.955  0.4159  1.0882  0.1736
15655SOL     OW49856   5.850   8.775   4.777 -0.3245  0.4272  0.2115
15655SOL    HW149857   5.801   8.851   4.809 -0.9230  0.7015 -1.2798
15655SOL    HW249858   5.942   8.804   4.779 -0.5995  1.4319 -0.9259
15656SOL     OW49859   5.461   3.216   2.208 -0.5767 -0.2061  0.2854
15656SOL    HW149860   5.422   3.303   2.209 -1.7888 -0.7161 -0.6685
15656SOL    HW249861   5.508   3.211   2.125 -0.5274 -0.4727  0.3285
15657SOL     OW49862   1.121   2.693   6.159 -0.1501  0.6135 -0.6217
15657SOL    HW149863   1.211   2.695   6.126 -0.0770  1.1735 -0.3951
15657SOL    HW249864   1.130   2.673   6.253 -0.3308 -0.4623 -0.8129
15658SOL     OW49865   7.006   7.301   0.839 -0.3766 -0.6607  0.4242
15658SOL    HW149866   6.943   7.289   0.767 -0.8748  0.0653  0.7269
15658SOL    HW249867   7.009   7.396   0.852  2.2479 -0.4938 -0.8694
15659SOL     OW49868   4.300   7.932   1.788  0.2161 -0.4770  0.4424
15659SOL    HW149869   4.288   7.859   1.848  1.4672 -0.6815  0.4739
15659SOL    HW249870   4.388   7.965   1.808  0.3144 -0.0057 -0.6862
15660SOL     OW49871   0.926   2.449   0.737 -0.4648  0.0442 -0.0151
15660SOL    HW149872   0.997   2.491   0.689 -0.2079  0.4095  0.6618
15660SOL    HW249873   0.969   2.380   0.788 -0.7558 -0.4466 -0.4280
15661SOL     OW49874   1.641   3.539   2.545  0.1025 -0.0751 -0.4703
15661SOL    HW149875   1.554   3.528   2.505  0.6189 -1.7080 -1.2167
15661SOL    HW249876   1.680   3.612   2.497 -0.7600  0.5178 -0.2938
15662SOL     OW49877   8.215   6.210   3.840  0.5079  0.0115  0.9527
15662SOL    HW149878   8.294   6.163   3.814  0.3329 -0.6832  1.6278
15662SOL    HW249879   8.224   6.296   3.799  1.0175 -0.4715  0.0062
15663SOL     OW49880   3.499   4.547   2.352 -0.4818  0.0192  0.0790
15663SOL    HW149881   3.578   4.588   2.318 -0.2882  0.1398  0.6628
15663SOL    HW249882   3.471   4.605   2.423 -0.7341 -0.3599  0.2892
15664SOL     OW49883   9.558   0.151   6.247 -0.3398  0.3607  0.1624
15664SOL    HW149884   9.471   0.184   6.224 -0.2059  0.5167 -0.1264
15664SOL    HW249885   9.572   0.180   6.337 -1.1690 -0.8801  0.7186
15665SOL     OW49886   9.235   7.018   3.691 -0.4442  0.3387 -0.2235
15665SOL    HW149887   9.325   6.994   3.669 -1.1466 -0.9858 -1.9167
15665SOL    HW249888   9.223   7.104   3.650 -0.1512  0.2147 -0.5808
15666SOL     OW49889   0.380   7.270   4.210  0.6346  0.1836  0.2753
15666SOL    HW149890   0.310   7.205   4.203  1.6059 -0.8938  0.3038
15666SOL    HW249891   0.461   7.219   4.208  1.4632  1.4785 -0.6615
15667SOL     OW49892   7.067   3.316   1.287  0.7283 -0.2593 -0.2080
15667SOL    HW149893   7.131   3.250   1.259  1.5254 -0.0247  1.0018
15667SOL    HW249894   7.050   3.296   1.379 -0.3222  0.1991 -0.2846
15668SOL     OW49895   9.013   1.952   7.258 -0.9908  0.4328 -0.1171
15668SOL    HW149896   8.964   2.005   7.196 -0.5281  1.4633  0.3750
15668SOL    HW249897   8.957   1.947   7.336 -1.2997 -0.3341 -0.3794
15669SOL     OW49898   0.902   1.237   0.331 -0.6915 -0.1329 -0.4648
15669SOL    HW149899   0.833   1.262   0.270 -1.5359  0.2280  0.6122
15669SOL    HW249900   0.857   1.184   0.397  0.3774 -1.3240 -0.6473
15670SOL     OW49901   0.965   7.657   0.836  0.2695 -0.3043  0.3188
15670SOL    HW149902   1.043   7.632   0.787 -0.3435 -1.8636  0.0699
15670SOL    HW249903   0.969   7.752   0.842  2.3847 -0.3684  0.6529
15671SOL     OW49904   5.267   4.877   5.285 -0.3640  0.8690  0.1454
15671SOL    HW149905   5.254   4.937   5.359  0.3554  1.3682 -0.1177
15671SOL    HW249906   5.360   4.856   5.288 -0.7538 -0.9118  0.7214
15672SOL     OW49907   5.180   6.230   7.821 -0.5680 -0.0601 -0.2482
15672SOL    HW149908   5.113   6.293   7.794  0.5180  0.9656 -0.5986
15672SOL    HW249909   5.201   6.255   7.911  0.7445  0.8983 -0.7884
15673SOL     OW49910   7.961   1.391   0.001  0.3606  0.0857 -0.1281
15673SOL    HW149911   7.887   1.333   0.022  1.1440 -0.4220  1.3142
15673SOL    HW249912   8.017   1.388   0.078  1.5603  1.0105 -0.9273
15674SOL     OW49913   5.252   0.961   7.013  0.2048  0.1572 -0.1988
15674SOL    HW149914   5.195   1.029   6.977  0.2354  0.2506 -0.0701
15674SOL    HW249915   5.335   0.973   6.965 -0.2178 -0.6908 -1.1913
15675SOL     OW49916   7.640   1.488   4.977  0.1756  0.2145 -0.5016
15675SOL    HW149917   7.708   1.423   4.963 -0.2580 -0.0351 -1.4908
15675SOL    HW249918   7.604   1.466   5.063 -1.3322 -2.1505 -1.6382
15676SOL     OW49919   3.591   3.648   3.527  0.2770  0.7387 -0.2187
15676SOL    HW149920   3.545   3.709   3.584  1.2116  2.1362 -0.9020
15676SOL    HW249921   3.543   3.651   3.444 -0.6927 -0.7914  0.2522
15677SOL     OW49922   5.194   0.547   5.516  0.4839 -0.0250  0.0295
15677SOL    HW149923   5.146   0.569   5.436  0.0476  1.6352  0.7055
15677SOL    HW249924   5.277   0.593   5.507  0.8148 -0.6009  0.1234
15678SOL     OW49925   4.960   7.412   6.148  0.1514  0.4143 -0.1723
15678SOL    HW149926   5.011   7.349   6.096 -0.7161 -0.6135  0.1740
15678SOL    HW249927   5.026   7.471   6.186  1.3042 -1.7540  1.4739
15679SOL     OW49928   3.404   6.476   2.863  0.1323 -0.1131  0.0604
15679SOL    HW149929   3.335   6.515   2.809  0.8766 -0.2660 -1.0185
15679SOL    HW249930   3.483   6.525   2.840  0.5843 -0.6001  0.5581
15680SOL     OW49931   2.068   9.396   0.166  0.6598  0.2179 -0.0048
15680SOL    HW149932   2.133   9.327   0.183 -1.1810 -1.3376  1.1200
15680SOL    HW249933   2.057   9.395   0.071  1.4983 -0.2159 -0.1124
15681SOL     OW49934   9.388   1.643   4.619  0.0209 -0.1567  0.7775
15681SOL    HW149935   9.362   1.694   4.542 -0.1439 -2.6787 -0.9539
15681SOL    HW249936   9.484   1.642   4.616 -0.0006 -1.6039 -0.4117
15682SOL     OW49937   0.755   5.214   9.165 -0.1020 -0.6670  0.5363
15682SOL    HW149938   0.736   5.216   9.259  0.3190 -0.8347  0.6289
15682SOL    HW249939   0.836   5.266   9.157 -0.5366 -0.0323  0.1684
15683SOL     OW49940   3.227   8.678   2.943 -0.2062 -0.4601 -0.0096
15683SOL    HW149941   3.212   8.609   2.878 -1.0143 -0.4752  0.1753
15683SOL    HW249942   3.233   8.630   3.026 -1.9942 -0.2418  0.2856
15684SOL     OW49943   3.759   6.638   5.053  0.3574  0.0205 -0.3739
15684SOL    HW149944   3.757   6.732   5.032 -1.2742 -0.1800 -1.2968
15684SOL    HW249945   3.832   6.604   5.002  0.0852  0.5606 -1.1531
15685SOL     OW49946   9.580   1.639   7.071  0.4387  0.1085 -0.3336
15685SOL    HW149947   9.529   1.649   6.990  1.0584  1.9121 -0.5439
15685SOL    HW249948   9.548   1.557   7.109 -3.3127  1.5218  0.0098
15686SOL     OW49949   1.729   5.179   5.457 -0.2375  0.3799  0.0934
15686SOL    HW149950   1.654   5.220   5.414 -0.9600 -0.1203  0.8376
15686SOL    HW249951   1.756   5.109   5.397  0.4446  1.3619 -0.7674
15687SOL     OW49952   8.512   2.625   9.343  0.1311 -0.2608 -0.0730
15687SOL    HW149953   8.536   2.717   9.356  3.9097 -1.0692 -0.0096
15687SOL    HW249954   8.542   2.604   9.255 -1.1397 -1.3596 -0.2817
15688SOL     OW49955   8.570   9.381   6.610 -0.1864 -0.5672 -0.8882
15688SOL    HW149956   8.504   9.417   6.550  1.2851 -1.5308 -3.2347
15688SOL    HW249957   8.642   9.444   6.607 -0.4305 -0.1794  0.6281
15689SOL     OW49958   0.474   4.285   9.130  0.0537 -0.3745 -0.1993
15689SOL    HW149959   0.442   4.338   9.057 -1.1576  1.0005  1.2483
15689SOL    HW249960   0.443   4.197   9.113 -0.3054 -0.0431 -1.2795
15690SOL     OW49961   2.372   0.823   1.601 -0.1013 -0.1605 -0.1468
15690SOL    HW149962   2.414   0.846   1.518  0.2075 -0.8273 -0.1741
15690SOL    HW249963   2.293   0.776   1.576 -0.6421  0.6994 -0.0846
15691SOL     OW49964   7.136   2.042   5.339  0.0600 -0.5199  0.1402
15691SOL    HW149965   7.079   2.076   5.270 -0.0203 -0.1230  0.3986
15691SOL    HW249966   7.195   1.981   5.294 -1.3881 -1.9337  0.0631
15692SOL     OW49967   2.261   2.867   0.273  0.8123 -0.1001  0.3946
15692SOL    HW149968   2.323   2.938   0.291  1.0031  0.0311 -0.7187
15692SOL    HW249969   2.296   2.824   0.195  0.2613 -0.9244  0.5903
15693SOL     OW49970   5.870   9.071   6.239  0.1355 -0.2133  0.5922
15693SOL    HW149971   5.901   9.128   6.310 -0.7524 -0.1023  0.9018
15693SOL    HW249972   5.824   9.131   6.179  1.3708 -0.2084 -0.3903
15694SOL     OW49973   6.266   0.629   5.756  0.0206  0.1018  0.0290
15694SOL    HW149974   6.189   0.675   5.722  1.0207  1.4287 -0.5357
15694SOL    HW249975   6.290   0.568   5.686 -0.8854 -0.8197  0.4873
15695SOL     OW49976   9.143   3.766   5.983 -0.2112 -0.6469 -0.2044
15695SOL    HW149977   9.123   3.806   5.898 -1.4149  0.0737  0.3811
15695SOL    HW249978   9.153   3.841   6.042  0.0797 -1.1558  0.4039
15696SOL     OW49979   8.115   5.041   9.166  0.4738 -0.0663 -0.0539
15696SOL    HW149980   8.102   4.959   9.118  1.3729  0.0127 -0.4508
15696SOL    HW249981   8.210   5.046   9.179  0.4030  0.8013  0.1702
15697SOL     OW49982   2.213   6.917   6.274  0.3822 -0.1397  0.3405
15697SOL    HW149983   2.196   7.007   6.246  0.8906  0.2975  1.4015
15697SOL    HW249984   2.263   6.879   6.201 -1.9711 -0.3779 -1.2652
15698SOL     OW49985   0.400   5.555   9.236  0.1813 -0.3786  0.6927
15698SOL    HW149986   0.456   5.584   9.308 -1.7865 -0.7903  2.4735
15698SOL    HW249987   0.366   5.636   9.199  2.0978 -0.1041 -0.6189
15699SOL     OW49988   4.880   1.837   9.524 -0.1617 -0.0507 -0.1610
15699SOL    HW149989   4.875   1.745   9.496 -0.9470  0.1391 -0.6735
15699SOL    HW249990   4.945   1.876   9.466 -1.4973  0.2485 -1.4917
15700SOL     OW49991   5.236   4.248   4.148 -0.0382 -0.1107 -0.1103
15700SOL    HW149992   5.245   4.163   4.104  0.9719 -0.1985  0.2170
15700SOL    HW249993   5.315   4.296   4.124  0.3854 -0.0364  1.3005
15701SOL     OW49994   2.038   0.609   7.656  0.0541  0.2510 -0.9043
15701SOL    HW149995   2.081   0.585   7.573  2.3673 -2.6761  0.9334
15701SOL    HW249996   1.987   0.532   7.680 -0.2129  0.8582  0.6006
15702SOL     OW49997   4.299   4.965   6.758 -0.5045  0.0801 -0.1513
15702SOL    HW149998   4.226   4.974   6.820 -0.4457 -0.4811  0.0089
15702SOL    HW249999   4.372   5.009   6.800 -0.7820  0.7597 -0.3697
15703SOL     OW50000   4.877   3.325   9.365 -0.0955  0.5254  0.0677
15703SOL    HW150001   4.876   3.418   9.385 -0.4682  0.3522  0.9025
15703SOL    HW250002   4.967   3.307   9.339 -0.2393  1.2891 -0.9692
15704SOL     OW50003   2.450   8.163   5.957  0.7894 -0.2897  0.1258
15704SOL    HW150004   2.522   8.112   5.919  0.9472 -0.5371  0.7523
15704SOL    HW250005   2.420   8.219   5.885  1.7428 -0.0343 -0.0870
15705SOL     OW50006   4.138   6.820   7.651  0.5528  0.1919  0.1092
15705SOL    HW150007   4.154   6.741   7.703  0.1303 -0.8025 -1.2306
15705SOL    HW250008   4.163   6.892   7.710  3.0047 -0.9665  0.6468
15706SOL     OW50009   0.441   1.747   6.582 -0.0341  0.0646 -0.0256
15706SOL    HW150010   0.501   1.775   6.513  0.7064 -0.2113  0.4946
15706SOL    HW250011   0.437   1.822   6.642 -1.4924  0.7056 -0.8860
15707SOL     OW50012   9.178   9.146   4.113  0.2174 -0.2768  0.2010
15707SOL    HW150013   9.127   9.095   4.177  0.4656 -0.5897  0.1490
15707SOL    HW250014   9.127   9.139   4.032  0.8295 -1.4097 -0.1099
15708SOL     OW50015   3.083   8.791   1.365 -0.4280  0.2057  0.5132
15708SOL    HW150016   3.153   8.739   1.405 -1.9174 -1.1006  1.5684
15708SOL    HW250017   3.057   8.742   1.287 -0.0873  0.7628  0.0411
15709SOL     OW50018   4.859   3.629   4.865  0.0433 -0.7521  0.2796
15709SOL    HW150019   4.772   3.646   4.903  0.1548 -1.0855  0.6964
15709SOL    HW250020   4.845   3.557   4.804 -0.1639 -0.1205 -0.4363
15710SOL     OW50021   5.150   8.945   4.985  0.1705 -0.9507 -0.0885
15710SOL    HW150022   5.214   8.887   4.946 -1.2360 -3.1637  0.6563
15710SOL    HW250023   5.139   8.912   5.075 -1.5810 -0.3132 -0.0177
15711SOL     OW50024   9.267   4.099   4.660  0.6701 -0.1198  0.9462
15711SOL    HW150025   9.214   4.106   4.581 -2.1171  1.3228  2.7844
15711SOL    HW250026   9.340   4.158   4.645  0.3216 -0.0385 -0.6139
15712SOL     OW50027   1.489   7.861   8.694  0.4791  0.2461 -0.4708
15712SOL    HW150028   1.447   7.791   8.743  1.3903  1.4460  2.2293
15712SOL    HW250029   1.430   7.879   8.621 -0.8566 -1.7866  0.0376
15713SOL     OW50030   2.628   6.366   0.065  0.5593 -0.3999 -0.2680
15713SOL    HW150031   2.715   6.339   0.092  0.6181 -0.1607 -0.2152
15713SOL    HW250032   2.628   6.461   0.074  0.3755 -0.3750 -0.5143
15714SOL     OW50033   8.851   4.387   2.641  0.3955 -0.5537  0.3236
15714SOL    HW150034   8.885   4.438   2.568 -0.2500  1.2939  1.2531
15714SOL    HW250035   8.762   4.421   2.655  1.2475  0.7737  3.3538
15715SOL     OW50036   2.403   3.179   0.223 -0.3425 -0.5939 -0.0254
15715SOL    HW150037   2.332   3.184   0.160 -1.2978 -0.7100  1.0102
15715SOL    HW250038   2.456   3.104   0.194  0.7026  0.8768 -2.1130
15716SOL     OW50039   6.686   7.945   4.033  0.4220 -0.0748 -0.3904
15716SOL    HW150040   6.718   7.907   4.115  1.7645  1.0022 -0.3801
15716SOL    HW250041   6.674   8.038   4.053  1.8691  0.4349 -1.7038
15717SOL     OW50042   4.604   2.633   5.041 -0.1542  0.0668 -0.0833
15717SOL    HW150043   4.652   2.619   5.123 -0.1548  1.6700  0.2218
15717SOL    HW250044   4.542   2.703   5.061 -0.5771  0.0605 -1.2953
15718SOL     OW50045   6.109   9.321   9.121 -0.0952  0.2323  0.1270
15718SOL    HW150046   6.083   9.407   9.089 -0.8152 -0.8286 -2.3866
15718SOL    HW250047   6.192   9.302   9.077  0.0637 -0.3669  0.6604
15719SOL     OW50048   1.075   1.097   8.286 -0.5039 -0.4072 -0.0549
15719SOL    HW150049   1.042   1.183   8.311 -0.4150 -0.2512 -0.4611
15719SOL    HW250050   1.169   1.102   8.304 -0.5286 -0.4861  0.0989
15720SOL     OW50051   2.358   5.330   5.099 -0.2087 -0.0305  0.3803
15720SOL    HW150052   2.295   5.391   5.060  0.1524  0.7149  0.9273
15720SOL    HW250053   2.340   5.334   5.193 -1.2946 -2.0670  0.3005
15721SOL     OW50054   1.293   3.943   9.120 -0.2331  0.2819 -0.5002
15721SOL    HW150055   1.257   3.960   9.033 -2.6040 -1.1722  0.0860
15721SOL    HW250056   1.343   4.021   9.142 -1.8322  1.8279 -2.0971
15722SOL     OW50057   7.969   1.767   8.010  0.5440  0.6721 -0.7631
15722SOL    HW150058   7.988   1.754   7.917  0.8563  3.2978 -1.1427
15722SOL    HW250059   7.884   1.810   8.012  0.9992  1.5902  0.0747
15723SOL     OW50060   1.133   6.667   5.145 -0.0026 -0.1065 -0.0577
15723SOL    HW150061   1.050   6.633   5.179 -0.3140  1.9072  1.3385
15723SOL    HW250062   1.117   6.675   5.051 -1.9625  1.5584  0.3357
15724SOL     OW50063   8.141   5.349   6.435 -0.1780  0.3666  0.3711
15724SOL    HW150064   8.112   5.306   6.516  0.8718  0.2326  0.6884
15724SOL    HW250065   8.106   5.438   6.442 -0.1122  0.3499  0.9651
15725SOL     OW50066   7.719   5.327   0.543  0.3361 -0.0420 -0.8759
15725SOL    HW150067   7.649   5.380   0.583 -0.6272 -0.5585 -1.8048
15725SOL    HW250068   7.791   5.332   0.605 -1.7631 -2.5776  2.1096
15726SOL     OW50069   1.777   6.269   1.976 -0.0473  0.0473 -0.2314
15726SOL    HW150070   1.763   6.197   1.915  1.1366 -1.0332  0.7470
15726SOL    HW250071   1.690   6.284   2.015 -0.2827 -0.8905 -0.3795
15727SOL     OW50072   5.804   5.344   8.797 -0.2579  0.4371 -0.0071
15727SOL    HW150073   5.770   5.379   8.879  1.3408  2.0598  0.0379
15727SOL    HW250074   5.881   5.293   8.823 -0.9300 -0.7928 -0.3457
15728SOL     OW50075   9.644   7.223   4.880  0.1644  0.3554 -0.2527
15728SOL    HW150076   9.561   7.201   4.838 -0.1604  0.5628  0.2577
15728SOL    HW250077   9.661   7.149   4.940 -0.7866  1.3003  1.2594
15729SOL     OW50078   7.302   6.965   5.958  0.4194 -0.2818 -0.3703
15729SOL    HW150079   7.382   6.978   6.009 -0.1739  0.9882  0.2826
15729SOL    HW250080   7.282   7.051   5.922 -0.6220 -0.5911 -0.5703
15730SOL     OW50081   3.962   8.203   1.882  0.2504  0.2768 -0.1121
15730SOL    HW150082   4.053   8.174   1.891 -0.4185 -2.8032 -1.7631
15730SOL    HW250083   3.954   8.226   1.789 -0.0129  3.4894  0.5787
15731SOL     OW50084   9.332   4.956   5.235 -0.1175  0.1734 -0.6471
15731SOL    HW150085   9.389   5.017   5.190  1.6850  0.2469  1.5635
15731SOL    HW250086   9.314   4.887   5.171  1.5684  0.7182 -1.7574
15732SOL     OW50087   0.525   1.895   9.015  0.4437 -0.1381 -0.0397
15732SOL    HW150088   0.525   1.963   9.083 -1.1041  0.0747 -0.1999
15732SOL    HW250089   0.433   1.871   9.006  0.9019 -1.8811 -0.3876
15733SOL     OW50090   3.212   2.258   9.242  0.3574 -0.0288  0.8494
15733SOL    HW150091   3.148   2.214   9.298 -0.6073 -0.7127 -0.7235
15733SOL    HW250092   3.295   2.247   9.288 -0.5930  0.6567  2.8133
15734SOL     OW50093   8.092   6.480   4.607 -0.2323 -0.9155 -0.1227
15734SOL    HW150094   8.098   6.392   4.568  1.2518 -1.9862  2.2554
15734SOL    HW250095   7.999   6.500   4.607 -0.4950 -1.9027 -1.8898
15735SOL     OW50096   2.276   7.599   7.482 -0.7428 -0.4626  0.5970
15735SOL    HW150097   2.286   7.659   7.409 -0.4068  0.4962  1.4016
15735SOL    HW250098   2.241   7.654   7.553  1.2072 -0.7682  1.8931
15736SOL     OW50099   3.090   1.440   5.560  0.0891  0.3598  0.3297
15736SOL    HW150100   3.042   1.493   5.624 -1.2085 -0.2048 -0.1552
15736SOL    HW250101   3.059   1.351   5.575  1.2062 -0.0734  0.1783
15737SOL     OW50102   1.598   6.195   5.373  0.0364 -0.5200 -0.0720
15737SOL    HW150103   1.628   6.110   5.341 -0.3210 -0.2871 -1.0576
15737SOL    HW250104   1.510   6.179   5.407  0.1205 -0.6181  0.1007
15738SOL     OW50105   9.264   4.561   5.731  0.2356 -0.5704 -0.1174
15738SOL    HW150106   9.354   4.550   5.759 -0.4438 -0.6825  2.2648
15738SOL    HW250107   9.249   4.655   5.731  0.8612 -0.4152 -2.4839
15739SOL     OW50108   0.191   6.109   8.922  0.0462 -0.2389 -0.2934
15739SOL    HW150109   0.133   6.060   8.864  0.7550 -0.4488 -0.8398
15739SOL    HW250110   0.233   6.174   8.866 -0.7406  0.9005  0.3853
15740SOL     OW50111   1.800   9.348   0.511 -0.1434 -0.5829 -0.2274
15740SOL    HW150112   1.726   9.395   0.474  0.3232 -0.4258 -0.9699
15740SOL    HW250113   1.791   9.361   0.606  0.5468  1.8941 -0.4402
15741SOL     OW50114   6.448   6.267   2.825 -0.7927 -0.1196  0.3771
15741SOL    HW150115   6.496   6.237   2.748 -1.8124 -0.7559 -0.0388
15741SOL    HW250116   6.516   6.285   2.890  0.3709  3.1220 -1.4667
15742SOL     OW50117   7.292   1.407   0.630 -0.0231 -0.1892  0.3619
15742SOL    HW150118   7.297   1.356   0.549 -0.5673  1.9931 -1.1390
15742SOL    HW250119   7.198   1.408   0.651  0.1313 -0.8552  1.1175
15743SOL     OW50120   5.286   6.505   3.913  0.4539  0.2075 -0.0594
15743SOL    HW150121   5.238   6.586   3.933  1.0551  0.1288  2.0122
15743SOL    HW250122   5.218   6.437   3.915  0.1233  0.5105 -0.6557
15744SOL     OW50123   1.777   9.508   6.201 -0.5557  0.2031  0.0030
15744SOL    HW150124   1.698   9.555   6.228 -1.4332 -0.7243 -0.8405
15744SOL    HW250125   1.753   9.469   6.117  0.4456 -0.9889  0.2547
15745SOL     OW50126   9.468   4.397   2.389 -0.2614 -0.1372 -0.2124
15745SOL    HW150127   9.430   4.483   2.406  0.0805  0.1387 -0.8132
15745SOL    HW250128   9.546   4.393   2.446  1.1749  0.9897 -1.9828
15746SOL     OW50129   4.036   2.632   8.955  0.1945  0.2748 -0.2141
15746SOL    HW150130   4.032   2.642   8.860  0.9534  1.8483 -0.1069
15746SOL    HW250131   4.052   2.720   8.988  1.3706 -0.4667  1.2938
15747SOL     OW50132   2.177   2.298   7.281 -0.5578 -0.4768 -0.4015
15747SOL    HW150133   2.264   2.260   7.294 -0.9425 -1.8269 -1.4899
15747SOL    HW250134   2.162   2.290   7.187 -0.6083  2.6362 -0.7535
15748SOL     OW50135   6.027   0.067   1.732  0.4284  0.1993  0.4759
15748SOL    HW150136   6.045  -0.024   1.711  0.6151  0.0151  1.3867
15748SOL    HW250137   5.995   0.065   1.822 -2.6470  0.6810 -0.4984
15749SOL     OW50138   8.299   0.286   2.036 -0.2477  0.4413 -0.0660
15749SOL    HW150139   8.266   0.264   1.949  1.1469  0.3971 -0.6089
15749SOL    HW250140   8.354   0.212   2.060 -1.3787  0.0014  1.3038
15750SOL     OW50141   2.418   9.615   3.136  0.5991  0.0167  0.4310
15750SOL    HW150142   2.487   9.581   3.194  0.5892 -1.3041 -0.2825
15750SOL    HW250143   2.465   9.638   3.055  0.2963 -0.3043  0.1622
15751SOL     OW50144   6.536   4.007   5.671 -0.3880  0.3545  0.0631
15751SOL    HW150145   6.512   4.033   5.759  1.1176 -0.0454  0.6178
15751SOL    HW250146   6.608   4.066   5.647  0.0439 -0.3450 -0.3959
15752SOL     OW50147   6.972   0.877   5.794  0.2233 -0.0589 -0.4760
15752SOL    HW150148   6.943   0.892   5.704 -2.6600 -1.6914  0.0492
15752SOL    HW250149   6.970   0.782   5.805  0.2800  0.1112  1.3515
15753SOL     OW50150   6.541   4.586   4.068  0.2928 -0.7331 -0.5460
15753SOL    HW150151   6.507   4.539   4.144 -1.1287  1.8061  0.5235
15753SOL    HW250152   6.506   4.539   3.992 -0.6528 -1.6749  0.4442
15754SOL     OW50153   0.587   4.921   2.951  0.0016  0.3871 -0.4180
15754SOL    HW150154   0.630   4.836   2.958 -0.3120  0.1213 -1.4448
15754SOL    HW250155   0.657   4.982   2.932 -0.0679 -0.0926 -2.4076
15755SOL     OW50156   6.817   8.439   4.942 -0.0066  0.3833 -0.7408
15755SOL    HW150157   6.722   8.429   4.942  0.0333 -2.0027  3.0518
15755SOL    HW250158   6.847   8.387   4.866 -1.6502 -1.8717  0.0413
15756SOL     OW50159   0.381   7.405   2.475  0.2298 -0.0358  0.5373
15756SOL    HW150160   0.463   7.404   2.426  0.8956  2.2310  1.4859
15756SOL    HW250161   0.400   7.355   2.555  0.3329 -0.4717  0.2406
15757SOL     OW50162   1.864   8.137   9.180 -0.1711 -0.1890  0.0945
15757SOL    HW150163   1.834   8.185   9.257 -0.4101 -0.4038  0.1357
15757SOL    HW250164   1.793   8.076   9.160 -0.4188  0.3279 -0.6952
15758SOL     OW50165   4.487   4.333   7.669 -0.4404 -0.1640  0.9071
15758SOL    HW150166   4.412   4.301   7.618  1.4980  0.9262 -2.9854
15758SOL    HW250167   4.461   4.420   7.698 -1.3674 -0.5649  1.3301
15759SOL     OW50168   9.076   2.802   7.827  0.2935 -0.3236  0.4090
15759SOL    HW150169   9.008   2.753   7.781  1.3013 -0.5822 -0.8879
15759SOL    HW250170   9.078   2.887   7.782  1.4074 -0.6372 -0.1711
15760SOL     OW50171   7.406   8.754   5.309 -0.3159 -0.4536 -0.1895
15760SOL    HW150172   7.387   8.807   5.231 -1.2786 -1.8452 -0.9439
15760SOL    HW250173   7.456   8.680   5.276 -2.9831 -2.4664 -0.0080
15761SOL     OW50174   7.268   0.308   3.043 -0.3967 -0.4612  0.2626
15761SOL    HW150175   7.338   0.242   3.048 -0.5786 -0.5463  2.8297
15761SOL    HW250176   7.311   0.390   3.069 -1.4078 -0.7473  3.2403
15762SOL     OW50177   1.410   6.318   4.993  0.1859 -0.7037  0.2438
15762SOL    HW150178   1.499   6.346   5.012  1.0325 -3.2369  0.5033
15762SOL    HW250179   1.358   6.353   5.065  0.8615  1.1937 -0.1524
15763SOL     OW50180   4.503   7.053   0.249  0.3122 -0.0517  0.1934
15763SOL    HW150181   4.449   6.991   0.201  1.1691 -1.7653  1.3443
15763SOL    HW250182   4.570   6.999   0.291  0.7752  1.5817  1.6774
15764SOL     OW50183   7.811   3.660   8.833  0.0468 -0.0720  0.2468
15764SOL    HW150184   7.904   3.666   8.858  0.2273  1.7252 -0.7274
15764SOL    HW250185   7.767   3.720   8.893 -0.2111  0.5234 -0.5354
15765SOL     OW50186   6.960   7.975   0.251 -0.3054  0.2070 -0.1265
15765SOL    HW150187   6.909   7.988   0.172 -1.7543 -1.9256  0.3774
15765SOL    HW250188   6.943   8.053   0.304 -2.0171  0.1410 -0.5242
15766SOL     OW50189   1.155   7.169   5.939 -0.2969  0.8113  0.3186
15766SOL    HW150190   1.149   7.190   5.846 -1.3958  2.1971  0.6558
15766SOL    HW250191   1.075   7.120   5.958  0.8383 -1.1917  0.1740
15767SOL     OW50192   5.561   9.562   4.126  0.0900 -0.0777 -0.0820
15767SOL    HW150193   5.475   9.570   4.083  0.1981 -0.5229 -0.3859
15767SOL    HW250194   5.619   9.529   4.058  0.8829  1.7138 -0.3332
15768SOL     OW50195   5.184   7.677   3.886  0.2991  0.1377  0.4679
15768SOL    HW150196   5.103   7.720   3.861 -0.4549 -1.3075  0.3552
15768SOL    HW250197   5.238   7.678   3.807  0.8357  1.9970  0.8121
15769SOL     OW50198   2.223   2.323   3.089 -0.7592  0.7411 -0.7240
15769SOL    HW150199   2.132   2.298   3.076 -0.6231  0.6812 -1.6435
15769SOL    HW250200   2.225   2.362   3.176 -1.0031 -2.3368  0.7972
15770SOL     OW50201   7.697   5.488   6.681 -0.2913 -0.2231 -0.4212
15770SOL    HW150202   7.629   5.435   6.721 -0.0103  0.2304  0.7149
15770SOL    HW250203   7.757   5.425   6.640 -0.8198 -0.6761 -0.5028
15771SOL     OW50204   5.531   8.949   7.281  0.1351  0.3287  0.2376
15771SOL    HW150205   5.472   8.956   7.356 -0.9970 -1.5927 -0.4068
15771SOL    HW250206   5.521   8.859   7.250 -0.3599  1.3393 -2.9532
15772SOL     OW50207   0.489   1.716   4.670  0.7355 -0.4963 -0.3568
15772SOL    HW150208   0.452   1.781   4.729  1.3206  0.3067 -0.8528
15772SOL    HW250209   0.564   1.680   4.717  0.1667 -1.1231  0.0857
15773SOL     OW50210   6.900   5.906   6.727 -0.3582 -0.3399 -0.0472
15773SOL    HW150211   6.869   5.962   6.798  0.7339  1.8616 -1.2254
15773SOL    HW250212   6.843   5.928   6.653  0.1177 -0.7653 -0.5417
15774SOL     OW50213   2.043   4.518   3.721  0.4427 -0.3542 -0.4327
15774SOL    HW150214   2.067   4.497   3.631  1.7672 -0.9724  0.0273
15774SOL    HW250215   2.070   4.609   3.733 -0.5857  0.0282 -0.9164
15775SOL     OW50216   1.356   4.306   7.537 -0.1434 -0.0960 -0.4888
15775SOL    HW150217   1.276   4.357   7.531 -0.7079 -0.9525 -0.3912
15775SOL    HW250218   1.421   4.368   7.570 -1.3657 -0.0114  1.9580
15776SOL     OW50219   4.100   9.449   5.333 -0.1510  0.2490  0.5021
15776SOL    HW150220   4.005   9.454   5.321 -0.0030  0.3745 -0.6662
15776SOL    HW250221   4.122   9.357   5.316  0.0992  0.4935 -0.5606
15777SOL     OW50222   7.560   0.980   1.948 -0.5270 -0.1815  0.5766
15777SOL    HW150223   7.599   1.013   1.867  1.1391  2.2309  2.2264
15777SOL    HW250224   7.507   0.905   1.921  1.1995 -0.4258 -2.4958
15778SOL     OW50225   8.778   0.778   9.428  0.1346  0.2355 -0.4006
15778SOL    HW150226   8.748   0.693   9.396  2.2302 -0.4394 -0.7203
15778SOL    HW250227   8.845   0.805   9.366  1.7922  0.5783  1.4277
15779SOL     OW50228   5.301   8.214   4.170  0.6681 -0.7755 -0.4307
15779SOL    HW150229   5.220   8.242   4.212  0.7799 -0.4915 -0.3978
15779SOL    HW250230   5.351   8.170   4.240  0.2990 -1.4649 -0.5963
15780SOL     OW50231   2.672   8.213   3.398 -0.3389 -0.1882  0.3749
15780SOL    HW150232   2.737   8.276   3.366  2.1449 -2.4330  0.5830
15780SOL    HW250233   2.622   8.189   3.320  2.3634 -1.9254 -0.9966
15781SOL     OW50234   3.551   7.242   5.858 -0.7329 -0.6329  0.2404
15781SOL    HW150235   3.482   7.266   5.797 -1.2714  1.4916  1.5956
15781SOL    HW250236   3.508   7.186   5.922 -0.4344 -1.8932 -0.6269
15782SOL     OW50237   1.980   2.228   4.225 -0.6437  0.1245 -0.3875
15782SOL    HW150238   2.024   2.226   4.140  2.3860 -1.0109  1.0227
15782SOL    HW250239   2.008   2.147   4.268 -1.3954  1.0285  1.9764
15783SOL     OW50240   7.866   6.968   1.350  0.1454 -0.3285  0.3608
15783SOL    HW150241   7.878   7.018   1.431 -2.2564  0.1591  0.4763
15783SOL    HW250242   7.915   6.886   1.365 -0.3431 -0.2978  2.3511
15784SOL     OW50243   5.297   6.910   0.208 -0.0068 -0.1939 -0.0531
15784SOL    HW150244   5.321   6.989   0.159 -1.4484  0.8615  0.8646
15784SOL    HW250245   5.355   6.911   0.284 -1.8365  1.5696  1.4185
15785SOL     OW50246   4.239   1.958   6.482  0.3200  0.5339  0.5226
15785SOL    HW150247   4.202   2.009   6.410 -1.1552  0.7180  1.3694
15785SOL    HW250248   4.215   1.867   6.462  0.7566  0.4686  0.2916
15786SOL     OW50249   5.944   1.723   8.785 -0.2399  0.2131  0.3126
15786SOL    HW150250   6.029   1.761   8.763 -0.4682  1.0492  0.8125
15786SOL    HW250251   5.966   1.643   8.833  0.2750  0.4662  0.5174
15787SOL     OW50252   5.962   4.954   9.389  0.0112 -0.1941  0.1153
15787SOL    HW150253   5.976   5.046   9.409 -1.5556  0.0687  0.1624
15787SOL    HW250254   5.953   4.912   9.475  0.6498 -0.3757  0.0924
15788SOL     OW50255   8.608   2.050   0.958  0.4031  0.1847 -0.1967
15788SOL    HW150256   8.593   2.139   0.990 -0.9117  0.3827 -1.2573
15788SOL    HW250257   8.691   2.055   0.910  1.5627  0.2482  1.7148
15789SOL     OW50258   8.317   2.878   7.942 -0.1401  0.3951 -0.0607
15789SOL    HW150259   8.336   2.840   7.856 -2.1787 -2.2225  0.4965
15789SOL    HW250260   8.400   2.874   7.989  0.4107 -0.6945 -1.0642
15790SOL     OW50261   1.302   2.525   4.178 -0.4265 -0.1759  0.1782
15790SOL    HW150262   1.230   2.577   4.145  0.5145  1.5111  0.6632
15790SOL    HW250263   1.263   2.470   4.245 -1.2973  0.5909  0.3183
15791SOL     OW50264   8.640   7.398   1.682 -0.0628 -0.2375 -0.0848
15791SOL    HW150265   8.704   7.330   1.705 -0.3782 -0.2765  0.6835
15791SOL    HW250266   8.580   7.402   1.756 -1.4223 -0.7333 -1.1276
15792SOL     OW50267   2.044   4.582   2.970  0.5733 -0.1421 -0.2429
15792SOL    HW150268   1.952   4.559   2.957  0.8663 -0.5881 -1.6699
15792SOL    HW250269   2.065   4.546   3.056 -0.0867 -1.7054 -0.6996
15793SOL     OW50270   4.308   7.077   1.370  0.5485 -0.1890 -0.0318
15793SOL    HW150271   4.340   7.167   1.381  0.2437 -0.0305 -0.4074
15793SOL    HW250272   4.374   7.023   1.413 -0.4119  0.3481  2.2128
15794SOL     OW50273   4.582   1.732   4.453 -0.0709  0.3781  0.4225
15794SOL    HW150274   4.631   1.731   4.535  1.6998 -0.2908 -0.5676
15794SOL    HW250275   4.490   1.730   4.479  0.4438 -0.8701  2.3747
15795SOL     OW50276   8.430   4.417   7.502 -0.0609 -0.2662  1.0599
15795SOL    HW150277   8.371   4.465   7.560  1.1058  0.7410  1.4577
15795SOL    HW250278   8.518   4.444   7.529  0.5434 -0.4101 -0.6284
15796SOL     OW50279   0.768   5.690   5.511  0.0748 -0.0623  0.0649
15796SOL    HW150280   0.680   5.659   5.532  0.0433 -0.2114 -0.2805
15796SOL    HW250281   0.757   5.740   5.430  0.5816 -1.6246 -1.0233
15797SOL     OW50282   6.676   6.521   2.594 -0.1675  0.0732  0.3712
15797SOL    HW150283   6.768   6.505   2.573 -0.2894  1.3208 -1.3320
15797SOL    HW250284   6.628   6.493   2.516 -0.8846  2.6717 -0.1982
15798SOL     OW50285   1.672   3.992   1.901  0.1223  0.1657  0.4651
15798SOL    HW150286   1.696   4.084   1.902  0.6308  0.0375 -0.0200
15798SOL    HW250287   1.577   3.992   1.917  0.2736  0.7131  1.4846
15799SOL     OW50288   3.028   3.798   8.797 -0.6887  0.1074  0.0910
15799SOL    HW150289   3.058   3.725   8.852 -0.8744 -0.6533 -0.7880
15799SOL    HW250290   2.934   3.803   8.814 -0.3388  1.6013  1.8132
15800SOL     OW50291   1.149   9.145   2.430  0.4342  0.2385  0.4748
15800SOL    HW150292   1.132   9.237   2.411 -1.9122 -0.2510 -0.0198
15800SOL    HW250293   1.078   9.118   2.487  1.1958 -1.2414  0.7815
15801SOL     OW50294   8.207   7.331   7.334  0.2391 -0.5024  0.3589
15801SOL    HW150295   8.234   7.313   7.243 -0.0882 -1.4407  0.4369
15801SOL    HW250296   8.181   7.423   7.333 -3.5183 -1.3739 -1.4853
15802SOL     OW50297   6.446   4.932   4.866 -0.7511  0.4409 -0.7191
15802SOL    HW150298   6.379   4.937   4.799  0.4650  2.2798 -1.8926
15802SOL    HW250299   6.466   5.024   4.888  2.9641  0.1724 -2.1597
15803SOL     OW50300   3.772   1.743   5.879  0.2836 -0.0767  0.1774
15803SOL    HW150301   3.678   1.727   5.871  0.4971 -1.6729  0.5069
15803SOL    HW250302   3.797   1.695   5.958  1.8786 -2.1955 -1.4923
15804SOL     OW50303   4.562   6.071   5.194  0.4458 -0.1256 -0.2303
15804SOL    HW150304   4.621   6.127   5.243 -0.4230  0.1306  0.5533
15804SOL    HW250305   4.565   6.104   5.105  1.3075  0.0209 -0.1511
15805SOL     OW50306   1.984   1.846   8.533 -0.0482 -0.1827  0.8654
15805SOL    HW150307   1.924   1.800   8.591 -1.4176 -0.4496 -0.6826
15805SOL    HW250308   1.947   1.933   8.523 -0.0111 -0.2365  0.1651
15806SOL     OW50309   3.710   6.908   2.272  0.0058  0.5843  0.9713
15806SOL    HW150310   3.704   6.989   2.322  0.4907  0.8055  0.6759
15806SOL    HW250311   3.680   6.931   2.184 -1.7909 -0.0235  1.3725
15807SOL     OW50312   3.096   4.185   5.667  0.0902  0.0381  0.3448
15807SOL    HW150313   3.189   4.170   5.647 -0.1177 -1.2393  0.2442
15807SOL    HW250314   3.079   4.273   5.636  0.8231 -0.3625 -1.3067
15808SOL     OW50315   8.414   5.595   8.929  1.0210 -0.5483  0.2506
15808SOL    HW150316   8.460   5.630   9.005 -0.4719 -2.1536  1.9974
15808SOL    HW250317   8.333   5.645   8.924  0.4490 -1.4078  0.6473
15809SOL     OW50318   4.379   9.090   5.899 -0.3786 -0.5993  0.7519
15809SOL    HW150319   4.413   9.126   5.981  0.9074  0.0918 -0.0522
15809SOL    HW250320   4.457   9.079   5.844 -1.2936 -0.4986 -0.5839
15810SOL     OW50321   9.173   3.262   8.918  0.3010  0.4300 -0.4020
15810SOL    HW150322   9.231   3.333   8.946 -0.2599  0.1781  1.5540
15810SOL    HW250323   9.092   3.306   8.895  0.5167  0.5740 -0.8953
15811SOL     OW50324   6.686   6.150   0.082 -0.2083 -0.4650  0.0478
15811SOL    HW150325   6.594   6.137   0.059 -0.6940  2.3576  0.0267
15811SOL    HW250326   6.729   6.172  -0.001 -0.7147  3.5316  0.6297
15812SOL     OW50327   9.449   4.038   5.326 -0.1833  0.1417  0.3001
15812SOL    HW150328   9.424   3.958   5.281  0.6441 -0.2122  0.4473
15812SOL    HW250329   9.371   4.065   5.374 -0.1403 -1.1881  1.1512
15813SOL     OW50330   0.932   9.206   5.435 -0.0187 -1.0918 -0.0913
15813SOL    HW150331   1.007   9.159   5.469  1.1022 -0.0776 -1.0673
15813SOL    HW250332   0.934   9.291   5.479 -0.8436 -1.1930  0.1710
15814SOL     OW50333   5.840   7.954   1.868 -0.3006 -0.5361 -0.4217
15814SOL    HW150334   5.927   7.981   1.841 -0.0229 -0.2977  0.6880
15814SOL    HW250335   5.790   7.951   1.786  0.5407  0.0593 -0.9749
15815SOL     OW50336   6.384   2.293   3.046 -0.0205 -0.6174 -0.0480
15815SOL    HW150337   6.334   2.301   2.965 -0.8590  2.0609  0.6369
15815SOL    HW250338   6.319   2.270   3.112 -0.1704  1.4115  0.5780
15816SOL     OW50339   6.451   7.742   4.542 -0.5776 -0.4012  0.0452
15816SOL    HW150340   6.420   7.827   4.575  1.1561  0.2593  0.0492
15816SOL    HW250341   6.546   7.748   4.545 -0.4159 -2.1490 -0.5130
15817SOL     OW50342   8.210   5.047   7.328 -0.2073  0.0760  0.3332
15817SOL    HW150343   8.157   5.024   7.251 -2.3879  0.1778  1.6975
15817SOL    HW250344   8.281   4.983   7.328  0.2877  0.5335 -2.1397
15818SOL     OW50345   6.332   6.102   5.315  0.3773 -0.0852 -0.4187
15818SOL    HW150346   6.313   6.098   5.221  0.8441 -3.8834 -0.5351
15818SOL    HW250347   6.248   6.121   5.356  0.3157  2.4676 -1.5500
15819SOL     OW50348   4.835   0.072   2.316 -0.3919  0.0982 -0.1856
15819SOL    HW150349   4.819   0.166   2.307  0.9268  0.1971 -2.0479
15819SOL    HW250350   4.920   0.066   2.358 -0.2116 -0.2437 -0.5924
15820SOL     OW50351   9.408   2.448   4.763 -0.3716  0.2453 -0.2028
15820SOL    HW150352   9.374   2.520   4.709  0.5470  1.5074  0.8411
15820SOL    HW250353   9.485   2.485   4.806 -0.0171 -1.3079  0.5509
15821SOL     OW50354   3.841   9.291   2.869 -0.3049 -0.3493 -0.1429
15821SOL    HW150355   3.801   9.358   2.924  1.1013  0.3893  0.0435
15821SOL    HW250356   3.929   9.324   2.852 -0.3658 -1.0427 -2.0222
15822SOL     OW50357   5.721   0.232   2.665  0.3159 -0.8665 -0.1712
15822SOL    HW150358   5.711   0.307   2.723  1.5623 -1.0484  0.3030
15822SOL    HW250359   5.671   0.256   2.587  0.8001  0.5226 -0.0907
15823SOL     OW50360   6.660   7.169   6.198  0.0497  0.4922  0.3325
15823SOL    HW150361   6.592   7.116   6.239 -0.3382  0.6488 -0.0924
15823SOL    HW250362   6.676   7.127   6.114 -1.1780  1.7182 -0.5809
15824SOL     OW50363   9.073   4.284   9.588  0.3130 -0.2197 -0.0603
15824SOL    HW150364   9.143   4.221   9.571  0.0738 -0.9315  1.4954
15824SOL    HW250365   9.116   4.355   9.637  0.2540  0.1017 -0.4640
15825SOL     OW50366   4.836   4.702   6.136  0.3821 -0.8454 -0.4256
15825SOL    HW150367   4.761   4.739   6.183  0.5863  0.1325 -0.8555
15825SOL    HW250368   4.908   4.763   6.155  0.7885 -1.1600 -0.9476
15826SOL     OW50369   8.336   8.801   2.045 -0.2169  0.5903 -0.0312
15826SOL    HW150370   8.373   8.852   1.973 -1.5941 -0.3571 -1.4765
15826SOL    HW250371   8.251   8.773   2.013 -0.4581 -0.6980  1.6039
15827SOL     OW50372   2.892   8.098   1.157  0.0229  0.4112  0.1482
15827SOL    HW150373   2.928   8.009   1.158  0.7782  0.7004  2.1888
15827SOL    HW250374   2.963   8.154   1.187 -1.2715  1.3497  1.6148
15828SOL     OW50375   6.943   1.737   3.338  0.5808 -0.0258  0.0883
15828SOL    HW150376   6.985   1.732   3.424 -1.8069  1.5685  1.4550
15828SOL    HW250377   6.850   1.746   3.358  0.1302  2.3744 -2.6223
15829SOL     OW50378   2.366   5.576   2.322  0.1798 -0.6638  0.3845
15829SOL    HW150379   2.316   5.649   2.358 -1.0663 -1.3065  0.0001
15829SOL    HW250380   2.456   5.593   2.349  0.4811  2.5158 -1.9684
15830SOL     OW50381   5.482   4.584   0.479 -1.0552 -0.9336 -0.0107
15830SOL    HW150382   5.504   4.652   0.543 -1.4001 -0.8692  0.0439
15830SOL    HW250383   5.503   4.623   0.394 -1.7425 -0.5477 -0.0199
15831SOL     OW50384   4.477   9.318   9.236 -0.0323  0.1539  0.4354
15831SOL    HW150385   4.489   9.358   9.322  1.1315  0.6688  0.0629
15831SOL    HW250386   4.445   9.230   9.255 -0.2137  0.4112  1.3791
15832SOL     OW50387   5.871   9.515   4.470 -0.2777 -0.6984 -0.6230
15832SOL    HW150388   5.884   9.582   4.403 -2.7218 -1.8617 -2.4448
15832SOL    HW250389   5.959   9.493   4.500  0.8217  0.8929 -2.4291
15833SOL     OW50390   9.424   4.317   6.022 -0.3395  0.3100  0.1266
15833SOL    HW150391   9.453   4.336   5.933  0.2995  0.8618  0.4442
15833SOL    HW250392   9.422   4.403   6.066 -1.7201  0.1921  0.3358
15834SOL     OW50393   8.117   2.377   0.167 -0.4102 -0.1158 -0.4874
15834SOL    HW150394   8.164   2.447   0.122 -1.4378  2.0672  1.6372
15834SOL    HW250395   8.180   2.341   0.229 -0.4049  0.1940 -0.3111
15835SOL     OW50396   2.402   4.492   0.481 -0.3138  0.2633  0.5406
15835SOL    HW150397   2.468   4.443   0.432 -1.9361 -0.0330 -1.5187
15835SOL    HW250398   2.408   4.581   0.446 -0.4689  0.4285  0.9337
15836SOL     OW50399   7.174   8.499   8.887 -0.1248  0.2709  0.2468
15836SOL    HW150400   7.211   8.444   8.818  0.3041  0.6437  0.1731
15836SOL    HW250401   7.123   8.439   8.941 -1.0880  0.0930 -0.8110
15837SOL     OW50402   6.999   6.477   6.104  0.1995 -0.7491  0.1286
15837SOL    HW150403   6.938   6.447   6.172 -1.0122  1.2980  0.0306
15837SOL    HW250404   7.037   6.557   6.139  2.1048 -1.4238 -0.2677
15838SOL     OW50405   9.476   7.871   3.735  0.6088  0.2226  0.1110
15838SOL    HW150406   9.523   7.870   3.818 -1.8929 -1.6620  1.6240
15838SOL    HW250407   9.407   7.936   3.746 -0.5603 -0.9552  0.0841
15839SOL     OW50408   8.128   0.166   4.204  0.0030  0.2202 -0.5120
15839SOL    HW150409   8.186   0.224   4.154  0.0769 -0.3996 -1.1637
15839SOL    HW250410   8.121   0.087   4.151  0.8422 -0.8551  0.8829
15840SOL     OW50411   6.139   8.772   2.705  0.0229 -0.4132 -0.4861
15840SOL    HW150412   6.208   8.785   2.641  0.0944 -2.6372 -0.9468
15840SOL    HW250413   6.165   8.826   2.780  1.6872 -0.3811 -1.0559
15841SOL     OW50414   3.527   3.653   1.724 -0.3081 -0.0988  0.5830
15841SOL    HW150415   3.574   3.571   1.733  0.9169  0.5429  0.3265
15841SOL    HW250416   3.565   3.693   1.645 -3.7990 -1.1551 -1.9010
15842SOL     OW50417   4.341   2.993   3.759  0.0299 -0.2923 -0.6542
15842SOL    HW150418   4.330   2.998   3.853  0.0855  1.1891 -0.7079
15842SOL    HW250419   4.400   2.919   3.746  1.9991  0.9373  0.6762
15843SOL     OW50420   9.603   3.684   0.013  0.1356 -0.0027 -0.2513
15843SOL    HW150421   9.633   3.623   0.081  1.1458  1.1057  0.3370
15843SOL    HW250422   9.525   3.726   0.051 -1.2404 -1.6545 -1.0972
15844SOL     OW50423   9.189   4.196   5.857  0.0452  0.0417  0.3493
15844SOL    HW150424   9.162   4.104   5.860 -0.3283  0.1444  0.1881
15844SOL    HW250425   9.261   4.202   5.920 -0.5585 -0.1574  1.0734
15845SOL     OW50426   8.857   4.446   5.649 -0.0602  0.3159  0.3265
15845SOL    HW150427   8.768   4.479   5.634 -0.1886  0.3335  1.0791
15845SOL    HW250428   8.880   4.479   5.736  0.9020  0.7887 -0.0894
15846SOL     OW50429   4.009   6.531   8.585 -0.4386 -0.3066 -0.0462
15846SOL    HW150430   4.049   6.601   8.534  0.5424  0.9945  2.3222
15846SOL    HW250431   3.919   6.527   8.554  0.0025  0.6605 -1.5723
15847SOL     OW50432   2.726   2.040   9.499  0.8024 -0.0552  0.1522
15847SOL    HW150433   2.772   2.049   9.416  1.7342 -0.6092  0.5843
15847SOL    HW250434   2.641   2.005   9.477  1.4945 -1.4024 -0.4751
15848SOL     OW50435   9.211   9.100   0.170  0.2205 -0.2152  0.0320
15848SOL    HW150436   9.216   9.099   0.266 -0.4883 -1.6151  0.0794
15848SOL    HW250437   9.117   9.107   0.152  0.3345 -0.1914 -0.5706
15849SOL     OW50438   5.798   8.422   3.242  0.2072 -0.4111 -0.8447
15849SOL    HW150439   5.725   8.453   3.296  0.5641  2.1689 -1.7225
15849SOL    HW250440   5.857   8.497   3.236  2.3219 -2.0219 -1.2468
15850SOL     OW50441   4.821   8.873   7.639  0.1804  0.1706 -0.1146
15850SOL    HW150442   4.858   8.925   7.567 -0.6351  0.8729 -0.0359
15850SOL    HW250443   4.762   8.933   7.684 -0.8689 -0.8522 -0.0884
15851SOL     OW50444   8.749   7.261   8.124  0.7828 -0.3807  0.0538
15851SOL    HW150445   8.779   7.242   8.035  0.5278  0.9517 -0.3408
15851SOL    HW250446   8.762   7.179   8.171 -2.8788 -2.5074 -2.1531
15852SOL     OW50447   5.836   1.393   7.559  0.1312  0.9855 -0.1740
15852SOL    HW150448   5.837   1.299   7.537  0.9085  1.0802 -0.6094
15852SOL    HW250449   5.830   1.395   7.654 -1.8754  0.5315 -0.2594
15853SOL     OW50450   1.879   3.907   1.438  0.0806  0.2851  0.2092
15853SOL    HW150451   1.785   3.918   1.455 -0.1866 -0.3012 -0.7668
15853SOL    HW250452   1.900   3.822   1.474 -0.1636 -0.3273 -1.0431
15854SOL     OW50453   2.024   1.660   4.741  0.2020  0.3758  0.0421
15854SOL    HW150454   1.944   1.646   4.791 -0.6479  1.2516 -1.0156
15854SOL    HW250455   1.996   1.711   4.665  2.0558  2.2048  0.5114
15855SOL     OW50456   6.914   9.448   0.926 -0.0291  0.1895  0.4634
15855SOL    HW150457   6.999   9.410   0.948 -0.6705 -3.1872 -2.1279
15855SOL    HW250458   6.854   9.410   0.990 -0.2532 -1.2508 -0.5550
15856SOL     OW50459   5.822   2.974   1.978  0.0545 -0.5260  0.0606
15856SOL    HW150460   5.816   2.929   2.063  1.6947 -0.0522  0.4702
15856SOL    HW250461   5.914   2.999   1.971 -0.7446  2.9185 -0.0499
15857SOL     OW50462   0.210   3.368   6.462 -0.7973 -0.1758 -0.6679
15857SOL    HW150463   0.252   3.453   6.467 -2.1562  0.4785  0.6261
15857SOL    HW250464   0.190   3.356   6.369  2.0614 -0.4948 -1.3159
15858SOL     OW50465   0.638   6.363   6.178  0.3321  0.5315  0.3979
15858SOL    HW150466   0.622   6.415   6.099 -0.2044  0.5020  0.4838
15858SOL    HW250467   0.572   6.394   6.240  1.6619  1.5912  1.3438
15859SOL     OW50468   0.725   2.623   8.595  0.0183 -0.0944 -0.1367
15859SOL    HW150469   0.656   2.560   8.574 -0.3347  0.5122 -0.8389
15859SOL    HW250470   0.804   2.569   8.604 -0.6187 -0.8541  1.1997
15860SOL     OW50471   7.640   4.153   0.993 -0.4096 -0.1847 -0.2965
15860SOL    HW150472   7.695   4.181   1.066  0.4833  0.6196 -1.2435
15860SOL    HW250473   7.661   4.061   0.980  1.0025  0.1888 -0.8557
15861SOL     OW50474   4.525   4.762   5.461 -0.2250  0.2026 -0.3753
15861SOL    HW150475   4.538   4.856   5.445  0.5487  0.0960 -0.4315
15861SOL    HW250476   4.502   4.757   5.554  0.7960  0.3701 -0.1003
15862SOL     OW50477   0.566   4.485   6.474 -0.0099 -0.1655  0.2349
15862SOL    HW150478   0.557   4.571   6.514  0.9760 -0.5586  1.3643
15862SOL    HW250479   0.628   4.439   6.530  2.2132 -0.4555 -2.2603
15863SOL     OW50480   8.198   1.656   1.359 -0.4930  0.2156  0.1781
15863SOL    HW150481   8.261   1.728   1.360  0.3128 -0.4794  0.5418
15863SOL    HW250482   8.113   1.699   1.350  0.0467  1.1522 -0.7699
15864SOL     OW50483   6.470   2.225   7.270  0.0134 -0.0695 -0.9170
15864SOL    HW150484   6.515   2.217   7.186 -0.6645 -0.1368 -1.2825
15864SOL    HW250485   6.453   2.318   7.279 -0.6099 -0.1494 -1.2319
15865SOL     OW50486   3.639   1.381   8.178  0.1090 -0.3768  0.3441
15865SOL    HW150487   3.634   1.414   8.268 -2.0182  1.5541 -0.3945
15865SOL    HW250488   3.571   1.314   8.173 -0.0312 -0.2202  0.0994
15866SOL     OW50489   0.192   1.804   0.759 -0.0228 -0.6866 -0.7717
15866SOL    HW150490   0.261   1.807   0.825  1.5456  1.8460 -2.3545
15866SOL    HW250491   0.159   1.714   0.763  1.3347 -1.1628  2.0463
15867SOL     OW50492   7.822   9.526   7.237 -0.5435  0.5075 -0.3808
15867SOL    HW150493   7.761   9.492   7.172  1.0300 -2.3236 -0.5194
15867SOL    HW250494   7.893   9.564   7.186 -1.7084  3.1556 -0.2127
15868SOL     OW50495   3.518   9.537   6.601 -0.2588 -0.1879  0.4492
15868SOL    HW150496   3.471   9.584   6.670 -0.3972  1.1396 -0.5237
15868SOL    HW250497   3.468   9.456   6.590 -1.9692  0.8963 -0.1068
15869SOL     OW50498   0.138   6.319   9.158 -0.5670 -0.6977 -0.0697
15869SOL    HW150499   0.059   6.351   9.201 -1.0045 -0.2695 -1.1474
15869SOL    HW250500   0.198   6.394   9.159 -0.4271 -0.8127  0.1558
15870SOL     OW50501   7.660   2.765   0.349  0.1637  0.6208 -0.4520
15870SOL    HW150502   7.644   2.755   0.255 -0.0603  2.0789 -0.5860
15870SOL    HW250503   7.736   2.710   0.366 -0.9367 -1.2302 -1.0832
15871SOL     OW50504   6.659   0.351   8.091 -0.1227 -0.1765  0.3839
15871SOL    HW150505   6.649   0.256   8.087  1.0428 -0.2793 -1.5145
15871SOL    HW250506   6.571   0.385   8.075 -0.2834 -0.9643 -0.5287
15872SOL     OW50507   9.253   8.038   8.093 -0.2585 -0.5687 -0.8422
15872SOL    HW150508   9.163   8.006   8.101 -0.6536  0.3804 -1.2617
15872SOL    HW250509   9.274   8.028   8.000  0.2510 -1.2176 -0.6674
15873SOL     OW50510   6.187   4.495   4.259 -0.1437  0.5004 -0.0698
15873SOL    HW150511   6.189   4.589   4.245 -1.2798  0.5055 -0.2618
15873SOL    HW250512   6.101   4.467   4.227  0.3515 -0.6665 -0.4244
15874SOL     OW50513   0.275   8.602   5.818  0.1658  0.0823 -0.2557
15874SOL    HW150514   0.224   8.570   5.893  0.0365 -0.3357 -0.5212
15874SOL    HW250515   0.275   8.698   5.828 -0.4195  0.0707 -0.0901
15875SOL     OW50516   6.072   7.532   0.419 -0.4139  0.6027 -0.3168
15875SOL    HW150517   6.155   7.486   0.431  1.2422  3.4263 -0.0493
15875SOL    HW250518   6.054   7.572   0.504 -1.8472  0.4118 -0.5057
15876SOL     OW50519   7.291   3.429   8.070  0.7467  0.1054  0.7656
15876SOL    HW150520   7.359   3.361   8.067 -0.3419 -0.9698 -1.0987
15876SOL    HW250521   7.319   3.494   8.006 -0.0667 -0.4428 -0.1579
15877SOL     OW50522   4.621   4.205   3.094 -0.4306 -0.0365  0.4400
15877SOL    HW150523   4.649   4.154   3.018 -0.4189 -2.2704  1.8611
15877SOL    HW250524   4.692   4.195   3.157  0.2176  2.9604  0.3090
15878SOL     OW50525   5.586   2.953   6.977  0.3555 -0.1604  0.1907
15878SOL    HW150526   5.575   2.861   6.951 -2.3511  0.8132 -2.7468
15878SOL    HW250527   5.546   2.958   7.064 -2.3799 -1.3187 -0.8580
15879SOL     OW50528   9.060   3.399   1.412 -0.2910  0.3948 -0.0686
15879SOL    HW150529   9.005   3.338   1.362 -2.0933  0.8374  1.2711
15879SOL    HW250530   9.046   3.484   1.369  0.2292  0.3240 -0.3887
15880SOL     OW50531   6.810   6.843   1.856  0.6353 -0.0452 -0.1810
15880SOL    HW150532   6.724   6.885   1.850  1.4110  1.4021 -2.1040
15880SOL    HW250533   6.797   6.755   1.821  0.0343  0.3394 -0.9368
15881SOL     OW50534   5.416   0.133   0.703 -0.1754  0.6072 -0.3078
15881SOL    HW150535   5.456   0.047   0.690 -1.1474 -0.3129  2.1831
15881SOL    HW250536   5.489   0.193   0.715  0.5286 -0.5773  1.6251
15882SOL     OW50537   8.178   6.656   7.530  0.2299  0.5064  0.9913
15882SOL    HW150538   8.198   6.744   7.498 -0.8286 -0.2393 -2.0286
15882SOL    HW250539   8.248   6.601   7.494  0.8986  0.0155  2.8728
15883SOL     OW50540   4.396   2.780   0.667 -0.3194 -0.6332 -0.0658
15883SOL    HW150541   4.417   2.848   0.603 -2.3132 -0.5724 -0.7392
15883SOL    HW250542   4.337   2.822   0.729  0.9676 -0.9123  1.4181
15884SOL     OW50543   5.537   1.882   9.457  0.0757 -0.1455 -0.3233
15884SOL    HW150544   5.565   1.791   9.469  0.6568  0.0222 -0.3831
15884SOL    HW250545   5.511   1.911   9.545 -1.4605 -0.7986 -0.5352
15885SOL     OW50546   7.728   4.438   4.801  0.1444  0.2871  0.1923
15885SOL    HW150547   7.816   4.441   4.838  0.5482  0.1094 -0.7366
15885SOL    HW250548   7.704   4.530   4.786  0.4648  0.3040 -0.2265
15886SOL     OW50549   2.789   9.300   6.470  0.0247 -0.1229 -0.6309
15886SOL    HW150550   2.735   9.377   6.489  1.0490 -0.0210  2.3335
15886SOL    HW250551   2.871   9.337   6.436  0.1963  0.0570 -0.0310
15887SOL     OW50552   1.232   1.252   4.233 -0.3097  0.1389  0.2822
15887SOL    HW150553   1.259   1.287   4.148  0.1452 -3.4572 -1.2137
15887SOL    HW250554   1.304   1.195   4.259 -0.3290  1.3108  3.3103
15888SOL     OW50555   5.895   0.722   0.325 -0.1939 -0.7605 -0.4022
15888SOL    HW150556   5.843   0.653   0.367 -2.9022  1.0460 -0.5558
15888SOL    HW250557   5.832   0.791   0.305  2.2733  1.5024 -0.8940
15889SOL     OW50558   1.030   7.096   2.510  0.2131  0.6780 -0.2052
15889SOL    HW150559   0.967   7.156   2.470 -0.8649 -0.6801 -0.6075
15889SOL    HW250560   1.092   7.154   2.555 -1.8773  2.0456  1.1212
15890SOL     OW50561   3.205   7.750   3.927 -0.9917 -0.7105 -0.2472
15890SOL    HW150562   3.218   7.744   4.021 -0.4590 -2.2012 -0.3874
15890SOL    HW250563   3.227   7.841   3.905 -3.0823  0.2466  1.3084
15891SOL     OW50564   1.081   6.620   1.364 -0.8081  0.0204 -0.5365
15891SOL    HW150565   1.023   6.675   1.312  0.0256  1.9516  0.4642
15891SOL    HW250566   1.061   6.644   1.455  0.7771 -0.0936 -0.1401
15892SOL     OW50567   6.219   1.669   7.869  0.4716 -0.3937 -0.2769
15892SOL    HW150568   6.262   1.742   7.914  0.2436  0.2373 -1.0617
15892SOL    HW250569   6.279   1.646   7.798  0.8983 -1.4829  0.4046
15893SOL     OW50570   8.326   4.533   3.278 -0.1787  0.2373 -0.5535
15893SOL    HW150571   8.277   4.571   3.351 -2.2472 -2.1796 -0.5097
15893SOL    HW250572   8.280   4.563   3.200  0.3292  0.6026 -0.7163
15894SOL     OW50573   0.046   7.264   3.082 -0.3145  0.0058 -0.2262
15894SOL    HW150574  -0.024   7.208   3.116 -1.9230  1.1207 -1.5483
15894SOL    HW250575   0.083   7.305   3.160 -1.2559 -0.4792  0.5009
15895SOL     OW50576   3.626   5.461   2.253  0.4604 -0.0268 -0.1908
15895SOL    HW150577   3.674   5.517   2.192  1.5873 -0.0574  0.6399
15895SOL    HW250578   3.586   5.522   2.315  2.8654 -0.1254  1.5718
15896SOL     OW50579   4.759   3.070   3.976  0.4315 -0.1650  0.0462
15896SOL    HW150580   4.692   3.139   3.978 -0.9784 -1.4860  2.0033
15896SOL    HW250581   4.768   3.043   4.068  0.4838 -2.9876 -0.7091
15897SOL     OW50582   8.859   5.623   9.147 -0.1413 -0.3132  0.3272
15897SOL    HW150583   8.794   5.685   9.179  0.4026  0.5742 -0.2763
15897SOL    HW250584   8.813   5.539   9.144 -1.7029  0.5454 -1.4554
15898SOL     OW50585   6.655   8.974   0.306 -0.2043  0.0648  0.1961
15898SOL    HW150586   6.575   9.001   0.260  0.3786  1.6805  0.0618
15898SOL    HW250587   6.670   8.884   0.277 -2.0354 -0.3205  0.3273
15899SOL     OW50588   0.571   4.684   4.918  0.3544  0.5022  0.1841
15899SOL    HW150589   0.535   4.760   4.871  2.2124  1.2445 -0.1132
15899SOL    HW250590   0.565   4.708   5.010  0.4822  0.8102  0.1146
15900SOL     OW50591   0.763   2.131   3.192 -0.2858 -0.3163  0.1101
15900SOL    HW150592   0.841   2.182   3.169 -1.7811  1.1376 -2.1818
15900SOL    HW250593   0.798   2.047   3.224  2.2021  0.9251  0.9284
15901SOL     OW50594   7.142   7.105   1.818 -0.0277  0.0180 -0.2724
15901SOL    HW150595   7.059   7.119   1.773  0.2890  1.5181 -0.4243
15901SOL    HW250596   7.159   7.186   1.866  1.7053  0.0465 -0.8460
15902SOL     OW50597   7.793   7.813   7.077 -0.6793 -0.2196 -0.0083
15902SOL    HW150598   7.785   7.754   7.152 -2.7204  1.9093  1.6135
15902SOL    HW250599   7.856   7.879   7.105 -2.3385  1.2700  0.4660
15903SOL     OW50600   6.379   3.246   9.131 -0.0116 -0.0152  0.1264
15903SOL    HW150601   6.383   3.289   9.046  0.5928 -0.1649  0.0717
15903SOL    HW250602   6.422   3.162   9.117 -2.5852 -1.3964 -0.1873
15904SOL     OW50603   3.656   7.017   3.934 -0.3253  0.6106 -0.2005
15904SOL    HW150604   3.607   7.053   4.008  0.4504 -1.2760  1.3340
15904SOL    HW250605   3.746   7.012   3.966 -0.3471 -2.4261 -0.2980
15905SOL     OW50606   5.921   7.305   0.321  0.4868 -0.2423  0.0682
15905SOL    HW150607   5.898   7.324   0.231 -0.1038 -1.4552 -0.0608
15905SOL    HW250608   5.954   7.387   0.356 -0.0657  0.4536 -1.0067
15906SOL     OW50609   2.466   1.633   0.072 -0.0269  0.3003  0.3752
15906SOL    HW150610   2.427   1.565   0.018 -0.2255  0.5978  0.1380
15906SOL    HW250611   2.402   1.705   0.071  0.2307  0.5370  0.5230
15907SOL     OW50612   5.304   3.375   3.753  0.5159 -0.2325 -0.3862
15907SOL    HW150613   5.388   3.331   3.768 -0.1613 -1.1516  0.9017
15907SOL    HW250614   5.295   3.434   3.828  0.0621 -0.0686 -0.5709
15908SOL     OW50615   5.116   8.795   2.802  0.6097 -0.2733 -0.4358
15908SOL    HW150616   5.162   8.748   2.872 -1.8899  1.8815  2.9456
15908SOL    HW250617   5.159   8.880   2.798 -0.2002  0.1496 -0.4049
15909SOL     OW50618   0.323   0.312   1.683 -0.7502 -0.1944 -0.4512
15909SOL    HW150619   0.273   0.236   1.712 -0.4041  0.8204  3.3079
15909SOL    HW250620   0.275   0.345   1.607 -3.8557 -1.2195  0.9204
15910SOL     OW50621   4.684   0.503   6.562 -0.3264  0.3370  0.2468
15910SOL    HW150622   4.763   0.470   6.605  0.3648  1.6126  0.0012
15910SOL    HW250623   4.695   0.479   6.470 -0.8149 -0.5684  0.4239
15911SOL     OW50624   3.030   2.013   3.123  0.5665 -0.1665 -0.2537
15911SOL    HW150625   3.006   2.058   3.041 -1.9111  1.0508  1.0370
15911SOL    HW250626   3.015   2.078   3.191  1.1056 -1.6264  1.3223
15912SOL     OW50627   8.389   8.652   0.233 -0.1213 -0.0005  0.1434
15912SOL    HW150628   8.419   8.743   0.230 -0.4765  0.1731  1.3900
15912SOL    HW250629   8.298   8.658   0.262 -0.9985 -0.6072 -2.2401
15913SOL     OW50630   0.572   3.107   5.497 -0.1335 -0.1985  0.3550
15913SOL    HW150631   0.497   3.098   5.440 -0.3096 -1.7789  0.7978
15913SOL    HW250632   0.535   3.120   5.584  0.1314  1.6381  0.2278
15914SOL     OW50633   3.245   1.483   0.719  0.6445 -0.1878 -0.9784
15914SOL    HW150634   3.172   1.423   0.734 -0.1525  0.7378 -1.0426
15914SOL    HW250635   3.277   1.460   0.632 -0.3803  0.1975 -1.4769
15915SOL     OW50636   9.256   9.376   6.874  0.5073 -0.6490 -0.1658
15915SOL    HW150637   9.222   9.368   6.963 -1.0973 -0.3723 -0.7278
15915SOL    HW250638   9.318   9.304   6.866  2.2161  0.4729  1.8086
15916SOL     OW50639   5.460   9.201   0.168 -0.1316  0.3016  0.8205
15916SOL    HW150640   5.383   9.228   0.118 -0.0355 -0.6792  0.1039
15916SOL    HW250641   5.534   9.215   0.108 -0.0317 -1.0323  0.6032
15917SOL     OW50642   4.966   5.758   1.987 -0.1480  0.4461 -0.2142
15917SOL    HW150643   5.013   5.841   1.977 -0.6156  0.5873 -1.4038
15917SOL    HW250644   5.034   5.695   2.012 -0.0511  1.4804  2.3939
15918SOL     OW50645   1.697   1.186   5.809  0.0932  0.5340 -0.1964
15918SOL    HW150646   1.654   1.103   5.789  1.9790 -0.6720  0.4689
15918SOL    HW250647   1.734   1.215   5.725 -0.1676  0.4576 -0.3363
15919SOL     OW50648   4.250   4.390   8.103  0.4174  0.3898 -0.2853
15919SOL    HW150649   4.306   4.403   8.180 -0.0711 -1.2593  0.4023
15919SOL    HW250650   4.236   4.295   8.099 -2.0568  0.6854 -0.6008
15920SOL     OW50651   1.752   2.860   8.421  0.1962 -0.0582 -0.2266
15920SOL    HW150652   1.711   2.832   8.503  0.4320 -0.2915 -0.1893
15920SOL    HW250653   1.684   2.847   8.354 -0.4973  1.4696  0.1346
15921SOL     OW50654   1.773   5.317   3.580 -0.2906 -0.0027  0.1396
15921SOL    HW150655   1.709   5.314   3.509 -0.8432  0.2287  0.6152
15921SOL    HW250656   1.721   5.336   3.658  0.5623  2.1671  0.2671
15922SOL     OW50657   1.568   4.830   5.734 -0.2223 -0.3356  0.4322
15922SOL    HW150658   1.474   4.814   5.733 -0.2194 -0.3944 -1.0985
15922SOL    HW250659   1.577   4.925   5.730 -0.2004 -0.2823  1.4332
15923SOL     OW50660   0.847   1.760   2.843 -0.4474 -0.1128  0.0545
15923SOL    HW150661   0.869   1.678   2.800 -1.9183 -0.3428 -0.3175
15923SOL    HW250662   0.777   1.797   2.790 -2.6646 -0.6214  2.4180
15924SOL     OW50663   2.710   8.391   1.021 -0.2179 -0.3270  0.5215
15924SOL    HW150664   2.663   8.473   1.011 -0.1946 -0.5372 -2.1318
15924SOL    HW250665   2.802   8.415   1.020 -0.2135 -0.2303  1.9478
15925SOL     OW50666   8.663   3.201   5.024 -0.2603 -0.1247  0.0735
15925SOL    HW150667   8.720   3.125   5.028 -0.1100  0.0141  0.6957
15925SOL    HW250668   8.595   3.177   4.961 -0.4634 -0.9404  0.5938
15926SOL     OW50669   8.006   3.885   0.009  0.2647 -0.1886 -0.4412
15926SOL    HW150670   8.076   3.909   0.070 -0.5498  0.7105  0.1646
15926SOL    HW250671   7.926   3.918   0.050 -0.7090 -2.3470 -0.4922
15927SOL     OW50672   8.801   0.956   6.993 -0.0462  0.0644  0.4721
15927SOL    HW150673   8.862   1.003   6.937  1.2154 -1.2271  0.6979
15927SOL    HW250674   8.729   0.931   6.934  0.9716 -0.7620 -0.4810
15928SOL     OW50675   4.658   1.697   3.062 -0.3621  0.4956 -0.3867
15928SOL    HW150676   4.740   1.739   3.085 -1.3253  1.8931  0.7166
15928SOL    HW250677   4.591   1.750   3.106 -1.9593  0.1561 -2.2769
15929SOL     OW50678   9.207   2.606   7.995  0.5110 -0.1363  0.5186
15929SOL    HW150679   9.144   2.662   7.949  0.9686 -1.2307 -1.5724
15929SOL    HW250680   9.292   2.641   7.968  0.8615  0.7680  2.6060
15930SOL     OW50681   5.080   3.645   8.858  0.3534  0.5880  0.0616
15930SOL    HW150682   5.168   3.651   8.894 -0.3178 -0.1862  1.9515
15930SOL    HW250683   5.023   3.680   8.927 -1.3254 -3.9620  1.3756
15931SOL     OW50684   5.251   3.976   2.196 -0.6036  0.1908  1.0522
15931SOL    HW150685   5.307   3.933   2.261  0.1219 -0.4726  0.0258
15931SOL    HW250686   5.292   4.061   2.180  0.3838 -0.4510  0.0101
15932SOL     OW50687   6.153   4.547   3.703  0.3017  0.1236 -0.4725
15932SOL    HW150688   6.181   4.541   3.794  2.7563 -0.2244 -1.1890
15932SOL    HW250689   6.147   4.457   3.673 -1.1426  0.2084 -0.5144
15933SOL     OW50690   9.628   6.614   2.900 -0.1457 -0.0217 -0.2642
15933SOL    HW150691   9.577   6.548   2.947  0.2636 -0.5096 -0.5065
15933SOL    HW250692   9.606   6.599   2.808 -0.5660  0.6160 -0.2763
15934SOL     OW50693   5.263   2.449   6.163  0.5023 -0.7072 -0.0943
15934SOL    HW150694   5.294   2.367   6.200  1.0405 -0.9773 -1.1128
15934SOL    HW250695   5.181   2.426   6.118  2.4011 -1.5316 -3.4928
15935SOL     OW50696   5.232   5.716   2.392  0.3483  0.0530 -0.0909
15935SOL    HW150697   5.154   5.747   2.439 -0.5511 -0.4916 -1.1703
15935SOL    HW250698   5.305   5.747   2.445 -0.5427  2.0096  0.1097
15936SOL     OW50699   6.561   4.873   2.520 -0.6554  0.0703  0.2744
15936SOL    HW150700   6.534   4.784   2.540  1.4171 -0.8032 -0.4751
15936SOL    HW250701   6.614   4.900   2.595 -0.2587  0.1970 -0.0484
15937SOL     OW50702   7.300   3.904   3.645 -0.3211  0.2812  0.0684
15937SOL    HW150703   7.336   3.845   3.579 -0.9813 -1.6814  1.3852
15937SOL    HW250704   7.349   3.884   3.725 -1.5988  0.4155  0.9110
15938SOL     OW50705   0.321   5.429   3.876 -0.6271 -0.0035  0.5137
15938SOL    HW150706   0.363   5.351   3.911  1.1503  1.0270  0.7924
15938SOL    HW250707   0.333   5.423   3.781  1.9789  1.1812  0.6779
15939SOL     OW50708   4.962   7.504   3.542 -0.3303  0.5121 -0.8082
15939SOL    HW150709   5.053   7.529   3.560 -0.4665  2.1210 -2.1075
15939SOL    HW250710   4.910   7.574   3.580 -0.9817  0.0877 -0.8962
15940SOL     OW50711   5.919   1.391   1.447 -0.5796 -0.2161  0.0667
15940SOL    HW150712   5.925   1.413   1.539 -0.4258 -0.2757  0.0704
15940SOL    HW250713   6.009   1.380   1.418 -0.6201 -0.0377 -0.1296
15941SOL     OW50714   7.967   1.116   0.771 -0.5255 -0.0391  0.1505
15941SOL    HW150715   7.951   1.062   0.694 -0.3808  1.9849 -1.3598
15941SOL    HW250716   7.881   1.149   0.796 -0.2510  1.7038 -1.0319
15942SOL     OW50717   1.177   3.112   8.901  0.9005 -0.3026 -0.3778
15942SOL    HW150718   1.151   3.021   8.888  1.0992 -0.5618  0.9418
15942SOL    HW250719   1.269   3.114   8.877  1.4098 -0.8995  1.3841
15943SOL     OW50720   5.560   9.281   2.112  0.1863  0.0021  0.0952
15943SOL    HW150721   5.568   9.305   2.204 -0.1521 -0.6631  0.3047
15943SOL    HW250722   5.627   9.215   2.098 -0.5374 -0.7589  0.1729
15944SOL     OW50723   4.321   6.983   3.879 -0.5994  0.4096 -0.5416
15944SOL    HW150724   4.300   7.016   3.792  3.5297 -1.2199 -2.3977
15944SOL    HW250725   4.407   7.021   3.899 -0.5333 -0.8474  1.9782
15945SOL     OW50726   7.903   6.313   8.821 -0.7041 -0.4777 -0.7805
15945SOL    HW150727   7.977   6.373   8.821 -0.0681 -1.1389  1.4177
15945SOL    HW250728   7.926   6.248   8.888 -3.7131 -0.0818  0.8234
15946SOL     OW50729   6.358   4.132   3.769  0.0206 -0.3224  0.5669
15946SOL    HW150730   6.344   4.053   3.717  0.5144  1.5339 -2.6528
15946SOL    HW250731   6.417   4.104   3.839 -0.2434 -2.8850 -0.1162
15947SOL     OW50732   4.448   4.904   4.527  0.1859 -0.2464 -0.5143
15947SOL    HW150733   4.448   4.814   4.558 -1.0288  0.5527  2.1118
15947SOL    HW250734   4.356   4.931   4.531  0.6855  1.5020  0.1114
15948SOL     OW50735   5.714   0.354   1.225 -0.1549 -0.1555 -0.2139
15948SOL    HW150736   5.808   0.341   1.241 -0.5045 -0.8502  1.5308
15948SOL    HW250737   5.677   0.364   1.313 -1.4019  2.5564 -0.9404
15949SOL     OW50738   5.302   8.299   5.241  0.0563 -0.6013 -0.5505
15949SOL    HW150739   5.347   8.346   5.311 -1.4042 -0.9280  0.6724
15949SOL    HW250740   5.265   8.368   5.186  2.2193 -0.3248 -1.7678
15950SOL     OW50741   7.955   7.968   1.580 -0.1944 -0.2191  0.1832
15950SOL    HW150742   8.004   8.041   1.617 -0.0689 -0.4956  0.5629
15950SOL    HW250743   7.864   7.996   1.583 -0.0201  0.6036 -1.1981
15951SOL     OW50744   7.115   4.333   3.531 -0.0029  0.6646  0.0584
15951SOL    HW150745   7.058   4.408   3.515  0.1177  0.6043 -0.7112
15951SOL    HW250746   7.201   4.360   3.498 -0.3572 -0.4244 -1.9657
15952SOL     OW50747   8.903   6.242   8.368  0.1832 -0.1040  0.1022
15952SOL    HW150748   8.988   6.230   8.410 -0.1039  0.6323  0.9296
15952SOL    HW250749   8.922   6.284   8.284  0.6454 -0.0477  0.2364
15953SOL     OW50750   6.592   4.054   3.888  0.3491  0.0206  0.2921
15953SOL    HW150751   6.626   4.103   3.963  2.1050  0.4174 -0.7064
15953SOL    HW250752   6.657   4.068   3.819 -0.3398 -1.7269 -0.7798
15954SOL     OW50753   0.588   1.377   5.816 -0.0291 -0.6449  0.3955
15954SOL    HW150754   0.670   1.409   5.853  0.3451 -1.8731  0.6611
15954SOL    HW250755   0.568   1.298   5.866 -0.3259 -1.4729 -0.9860
15955SOL     OW50756   6.254   0.415   7.135  0.0834 -0.0632 -0.1799
15955SOL    HW150757   6.256   0.332   7.183 -2.8688 -0.7672 -1.0607
15955SOL    HW250758   6.248   0.482   7.204  0.0335 -0.7532  0.5038
15956SOL     OW50759   6.864   4.048   4.848 -0.2638 -0.6794  0.0531
15956SOL    HW150760   6.882   4.022   4.758 -1.5649  2.0491 -1.0838
15956SOL    HW250761   6.784   4.001   4.871 -0.7008 -0.3445 -0.7360
15957SOL     OW50762   7.036   3.346   9.228 -0.2851  0.0586  0.0804
15957SOL    HW150763   7.058   3.300   9.148 -0.0367  1.1861 -0.5177
15957SOL    HW250764   7.086   3.428   9.224 -2.0904  1.2301  0.2188
15958SOL     OW50765   1.198   3.757   7.387  0.9112 -0.2852 -0.1387
15958SOL    HW150766   1.176   3.667   7.410 -0.7271  0.2159  0.3601
15958SOL    HW250767   1.260   3.785   7.454  1.6448 -1.1135 -0.4552
15959SOL     OW50768   2.449   7.711   2.520  0.7381  0.4530 -0.1687
15959SOL    HW150769   2.437   7.747   2.432 -1.3281  0.6057  0.1431
15959SOL    HW250770   2.497   7.629   2.505  0.2895  0.3982 -1.4604
15960SOL     OW50771   4.137   5.225   8.889 -0.3146 -0.1789 -0.1695
15960SOL    HW150772   4.156   5.288   8.960  1.3835 -1.1478  0.2875
15960SOL    HW250773   4.183   5.261   8.813  1.0406 -1.0367  0.2042
15961SOL     OW50774   7.990   1.425   4.741 -0.4485 -0.0706  0.2306
15961SOL    HW150775   8.016   1.504   4.788  2.0964 -0.6652 -0.0234
15961SOL    HW250776   7.909   1.397   4.784 -0.0852  1.3189  1.9407
15962SOL     OW50777   2.761   7.720   3.901 -0.8690 -0.0468  0.0264
15962SOL    HW150778   2.717   7.799   3.867  0.5474  0.8748  0.2613
15962SOL    HW250779   2.822   7.695   3.832  0.8334  0.8623  1.1463
15963SOL     OW50780   6.930   5.989   2.992 -0.1560 -0.0330  0.0522
15963SOL    HW150781   7.002   5.947   2.946  0.3036  0.4844  0.2892
15963SOL    HW250782   6.911   5.931   3.066 -0.9442 -0.9065 -0.8086
15964SOL     OW50783   0.141   7.758   8.514 -0.1684 -0.0983  0.3666
15964SOL    HW150784   0.115   7.777   8.604 -0.6161  0.6353  0.0978
15964SOL    HW250785   0.237   7.763   8.515 -0.1995  0.5272  0.6796
15965SOL     OW50786   5.845   9.313   8.238 -0.0709  0.4389 -0.1267
15965SOL    HW150787   5.884   9.391   8.199 -1.8304  1.5634  0.2331
15965SOL    HW250788   5.806   9.267   8.164 -1.0902  1.1783 -0.0763
15966SOL     OW50789   3.845   8.254   1.142  0.3881 -0.1278  0.2097
15966SOL    HW150790   3.911   8.272   1.076 -0.9243 -1.7026 -1.6531
15966SOL    HW250791   3.842   8.158   1.149 -1.1158 -0.0801  0.8247
15967SOL     OW50792   0.084   8.066   2.969  0.4935  0.0811 -0.1385
15967SOL    HW150793   0.042   8.151   2.980  0.1953 -0.2435  1.6397
15967SOL    HW250794   0.132   8.073   2.887  0.1420  1.8215 -0.2350
15968SOL     OW50795   0.025   1.228   8.601  0.1950  0.6047  0.5945
15968SOL    HW150796  -0.016   1.223   8.688 -2.3608 -1.9088 -0.6086
15968SOL    HW250797  -0.043   1.265   8.545  2.0590  2.8983 -0.3432
15969SOL     OW50798   0.606   4.595   0.717 -0.3699 -0.9131  0.1019
15969SOL    HW150799   0.655   4.637   0.788 -1.0693 -0.1110  0.1299
15969SOL    HW250800   0.576   4.668   0.662 -0.7121 -1.4539 -0.4447
15970SOL     OW50801   3.452   2.239   0.941 -0.0920  0.2120 -0.3306
15970SOL    HW150802   3.449   2.161   0.997  0.2731 -0.0862 -0.7188
15970SOL    HW250803   3.418   2.208   0.857 -0.7348  0.6831 -0.2525
15971SOL     OW50804   2.941   4.287   5.287  0.0358 -0.0569 -0.2767
15971SOL    HW150805   2.853   4.320   5.269 -0.0878 -0.4652 -0.4325
15971SOL    HW250806   2.975   4.261   5.202 -1.0670 -3.2705  0.1146
15972SOL     OW50807   5.294   2.207   4.464  0.0338 -0.5561 -0.5743
15972SOL    HW150808   5.369   2.162   4.502 -1.2690 -1.4696  1.1000
15972SOL    HW250809   5.219   2.155   4.492 -1.2093  0.1129 -2.5077
15973SOL     OW50810   7.958   9.044   0.741 -0.4534 -0.3129  0.9541
15973SOL    HW150811   7.918   8.982   0.680  0.1727 -0.0779  0.3003
15973SOL    HW250812   7.957   9.128   0.694 -0.7377  0.0502  1.5959
15974SOL     OW50813   2.340   5.513   6.067  0.1095 -0.1829 -0.3148
15974SOL    HW150814   2.248   5.489   6.077  0.2708 -0.1753  1.6559
15974SOL    HW250815   2.388   5.433   6.088  0.5655 -0.1719 -1.2844
15975SOL     OW50816   3.661   8.117   3.142  0.0530  0.3754  0.3360
15975SOL    HW150817   3.696   8.082   3.224 -0.6950 -0.8339  0.1568
15975SOL    HW250818   3.593   8.055   3.116 -1.1393  1.8313 -0.1495
15976SOL     OW50819   4.196   8.594   8.336 -0.1557  0.5635 -0.0111
15976SOL    HW150820   4.113   8.567   8.374 -0.6838  2.5422  0.3892
15976SOL    HW250821   4.175   8.615   8.245 -0.3607  2.0119  0.3419
15977SOL     OW50822   6.224   3.408   7.937  0.3953  0.0400 -0.4681
15977SOL    HW150823   6.308   3.445   7.965  0.2527  0.1586 -0.1979
15977SOL    HW250824   6.158   3.466   7.975  0.1846 -0.1634 -0.5203
15978SOL     OW50825   4.467   4.871   8.489 -0.0851 -0.3002  0.0524
15978SOL    HW150826   4.425   4.861   8.574  1.5023  0.2169  0.9281
15978SOL    HW250827   4.426   4.949   8.451  0.9747  1.0271  1.4873
15979SOL     OW50828   5.770   3.445   1.375 -0.0757  0.0193  0.4727
15979SOL    HW150829   5.695   3.457   1.434 -0.4162  0.2822 -0.0078
15979SOL    HW250830   5.839   3.499   1.413 -0.7133  1.2986 -0.0964
15980SOL     OW50831   3.696   3.462   7.788 -0.2270 -0.2149  0.2335
15980SOL    HW150832   3.646   3.540   7.812 -0.5245  0.4560 -2.2693
15980SOL    HW250833   3.635   3.409   7.736  0.9712 -0.4211 -1.0332
15981SOL     OW50834   7.443   5.830   3.762 -0.3712  0.0157  0.2396
15981SOL    HW150835   7.497   5.817   3.684  0.6381  1.7807  0.5788
15981SOL    HW250836   7.499   5.801   3.834  0.9648  3.4315  0.7623
15982SOL     OW50837   8.738   1.876   6.879  0.4585 -0.3000  0.3853
15982SOL    HW150838   8.649   1.858   6.908 -0.1757  1.6185 -0.1733
15982SOL    HW250839   8.731   1.957   6.829  1.7702 -2.2723 -3.4431
15983SOL     OW50840   0.850   8.934   3.862 -0.1794 -0.3776 -0.5818
15983SOL    HW150841   0.854   8.897   3.950  1.0027  1.6301  0.2759
15983SOL    HW250842   0.814   8.863   3.807 -0.0580 -1.9774  1.3155
15984SOL     OW50843   5.772   3.684   0.693  0.2344 -0.4209  0.2160
15984SOL    HW150844   5.788   3.675   0.787  1.4627  1.7161  0.2858
15984SOL    HW250845   5.696   3.742   0.687 -0.9858 -1.9967 -0.1555
15985SOL     OW50846   3.830   0.574   6.110 -0.7262  0.5049 -0.1426
15985SOL    HW150847   3.899   0.551   6.172 -0.5020  0.0048 -0.5751
15985SOL    HW250848   3.816   0.668   6.124  0.3039  0.6940 -0.3131
15986SOL     OW50849   9.103   6.933   6.097 -0.0714  0.1739  0.0420
15986SOL    HW150850   9.144   6.997   6.038 -0.3156 -1.2144 -1.6986
15986SOL    HW250851   9.009   6.950   6.089 -0.1169 -0.1692 -0.1460
15987SOL     OW50852   7.754   6.066   6.104 -0.3869  0.2699  0.1843
15987SOL    HW150853   7.720   6.093   6.189  2.3683  2.2285  0.8037
15987SOL    HW250854   7.791   5.979   6.119 -0.7337  0.2190  0.7420
15988SOL     OW50855   8.538   4.290   4.881 -0.2892  0.2215  0.2628
15988SOL    HW150856   8.562   4.341   4.959  1.4407  1.2169 -0.8727
15988SOL    HW250857   8.618   4.245   4.856 -0.4459  0.9440 -1.6857
15989SOL     OW50858   7.543   3.324   1.405  0.2715  0.0737 -0.0658
15989SOL    HW150859   7.504   3.393   1.351  3.3711  1.1360 -1.2058
15989SOL    HW250860   7.553   3.365   1.492  2.4230  1.3436 -0.8238
15990SOL     OW50861   2.009   2.054   7.172 -0.0073  0.2113  0.5321
15990SOL    HW150862   2.029   2.130   7.119 -1.2947 -0.1103 -0.4781
15990SOL    HW250863   2.078   2.051   7.239  1.9613  0.3335 -1.3959
15991SOL     OW50864   6.095   3.004   3.272 -0.3067  0.2517 -0.0747
15991SOL    HW150865   6.190   3.007   3.256  0.1781  0.0911  2.3301
15991SOL    HW250866   6.063   2.935   3.214  0.8824  0.9020 -1.5610
15992SOL     OW50867   4.322   8.870   1.019 -0.1594  0.2463 -0.3819
15992SOL    HW150868   4.387   8.867   1.089 -1.7622 -0.1647  1.1496
15992SOL    HW250869   4.277   8.954   1.031 -1.4659 -0.4824  0.1004
15993SOL     OW50870   7.551   7.423   1.325 -0.8237  0.3252 -0.3483
15993SOL    HW150871   7.585   7.511   1.339  1.5860 -0.4996 -0.6646
15993SOL    HW250872   7.515   7.397   1.410  0.9099  0.6327  0.5185
15994SOL     OW50873   1.095   8.877   8.396 -0.1769  0.4485  0.1649
15994SOL    HW150874   1.146   8.953   8.423 -0.8632  0.7598  0.6232
15994SOL    HW250875   1.127   8.856   8.309  0.4279  0.9014  0.2721
15995SOL     OW50876   4.671   8.989   9.424 -0.7780  0.3402  0.0898
15995SOL    HW150877   4.636   8.937   9.496  0.0927 -0.4394 -0.0434
15995SOL    HW250878   4.682   8.927   9.352  1.5037  0.4049  0.3239
15996SOL     OW50879   8.689   5.861   2.447 -0.5673 -0.1377 -0.1654
15996SOL    HW150880   8.650   5.848   2.533  0.8221 -0.6244  0.4007
15996SOL    HW250881   8.766   5.916   2.463 -0.1744 -0.4048 -1.0603
15997SOL     OW50882   6.546   6.145   1.733  0.1324  0.1556  0.7000
15997SOL    HW150883   6.597   6.155   1.652 -1.2199  0.3419 -0.1506
15997SOL    HW250884   6.473   6.205   1.723 -0.1821  0.0155  1.9808
15998SOL     OW50885   8.610   5.630   0.163 -0.5959  0.1433 -0.4021
15998SOL    HW150886   8.524   5.653   0.129 -0.6206  0.1399 -0.3426
15998SOL    HW250887   8.645   5.712   0.199 -0.5578  0.1543 -0.4635
15999SOL     OW50888   6.505   6.294   7.228 -0.4687  1.1350  0.1821
15999SOL    HW150889   6.522   6.299   7.134 -2.0284  1.1454 -0.1207
15999SOL    HW250890   6.528   6.204   7.252 -0.5764  0.9717 -0.3137
16000SOL     OW50891   0.269   3.785   4.067 -0.3576  0.4591 -0.2818
16000SOL    HW150892   0.260   3.872   4.107  2.4279  1.2096 -1.0453
16000SOL    HW250893   0.293   3.728   4.140 -0.6117  0.6634 -0.0359
16001SOL     OW50894   5.400   6.298   0.535 -0.2374 -1.3700 -0.3001
16001SOL    HW150895   5.457   6.369   0.505  0.3348 -0.8296  1.8881
16001SOL    HW250896   5.320   6.308   0.484  0.8310 -0.8902 -1.9997
16002SOL     OW50897   4.358   9.377   1.209 -0.7559 -0.3741  0.4254
16002SOL    HW150898   4.419   9.450   1.208 -0.5902 -0.4520  2.3042
16002SOL    HW250899   4.413   9.300   1.191 -0.4582 -0.3177  1.0504
16003SOL     OW50900   6.034   1.411   4.728 -0.0641 -0.5044 -0.2735
16003SOL    HW150901   6.060   1.321   4.709 -1.0651 -1.0334  0.7289
16003SOL    HW250902   5.939   1.408   4.733 -0.3630  1.1791 -2.9239
16004SOL     OW50903   5.680   7.227   3.668 -0.2497 -0.1346 -0.1000
16004SOL    HW150904   5.612   7.193   3.725 -1.5312  3.2322  0.6461
16004SOL    HW250905   5.760   7.181   3.695 -1.7829 -2.4883  0.6260
16005SOL     OW50906   0.483   1.488   6.698  0.3930 -0.0719  0.5177
16005SOL    HW150907   0.467   1.577   6.665  0.4597 -0.6821 -1.3106
16005SOL    HW250908   0.396   1.448   6.700  0.4722 -0.2518  0.4094
16006SOL     OW50909   5.233   6.160   6.260 -0.1909  0.2906  0.0510
16006SOL    HW150910   5.195   6.227   6.203  1.9431  2.1079  0.6451
16006SOL    HW250911   5.169   6.151   6.332 -0.4055  1.9214  0.1080
16007SOL     OW50912   1.893   8.119   6.863 -0.0288 -0.1546 -0.3684
16007SOL    HW150913   1.903   8.163   6.778  0.3877  4.1081  1.6287
16007SOL    HW250914   1.983   8.106   6.894 -0.1964 -0.6029 -0.0575
16008SOL     OW50915   2.388   4.652   5.094 -0.4494  0.4986  0.0163
16008SOL    HW150916   2.448   4.727   5.092  1.0385 -0.6068 -2.1792
16008SOL    HW250917   2.301   4.690   5.087  0.3416  2.0762 -3.2465
16009SOL     OW50918   4.793   7.187   4.453 -0.3121  0.0757  0.4094
16009SOL    HW150919   4.738   7.140   4.516 -1.3675  2.7943  1.7031
16009SOL    HW250920   4.880   7.184   4.492  0.0420 -2.2653 -0.4564
16010SOL     OW50921   8.305   4.755   9.312 -0.1971 -0.4822 -0.0956
16010SOL    HW150922   8.210   4.762   9.322 -0.0391  0.5727  0.8893
16010SOL    HW250923   8.337   4.728   9.398  0.6574  2.6303  0.7021
16011SOL     OW50924   2.326   8.383   4.494 -0.1091  0.9089  0.0164
16011SOL    HW150925   2.294   8.442   4.562  1.9184  2.4063 -0.2039
16011SOL    HW250926   2.329   8.437   4.415 -1.6473 -0.5693 -1.1068
16012SOL     OW50927   9.176   4.974   6.692  0.0230  0.0374  0.5881
16012SOL    HW150928   9.215   4.937   6.612 -1.1358  0.1267 -0.0420
16012SOL    HW250929   9.206   5.065   6.692 -1.8518  0.7342 -1.0727
16013SOL     OW50930   3.529   5.403   6.007  0.0443 -0.1186 -0.0119
16013SOL    HW150931   3.507   5.318   5.967  0.1217 -0.2499  0.2206
16013SOL    HW250932   3.565   5.380   6.093  0.8631  0.1008 -0.2889
16014SOL     OW50933   2.406   7.431   9.304  0.6368  0.0584  0.2477
16014SOL    HW150934   2.330   7.486   9.285 -0.4791 -1.3204  0.5132
16014SOL    HW250935   2.395   7.405   9.395  2.0046  0.6717  0.6064
16015SOL     OW50936   2.818   2.831   5.405 -0.4892  0.1276 -0.4794
16015SOL    HW150937   2.730   2.865   5.385 -0.1099  0.7499 -1.1590
16015SOL    HW250938   2.836   2.768   5.335 -1.2018 -1.5679  0.7972
16016SOL     OW50939   6.661   8.120   5.870 -0.1244  0.4827 -0.1006
16016SOL    HW150940   6.749   8.082   5.869  0.2287  1.1759  1.4571
16016SOL    HW250941   6.622   8.093   5.787  2.0758  1.4156 -1.5132
16017SOL     OW50942   3.725   5.503   3.678  0.7003 -0.4255  0.2064
16017SOL    HW150943   3.741   5.557   3.600 -0.1819  0.0998  0.3693
16017SOL    HW250944   3.729   5.413   3.646 -1.1451 -0.2110 -0.8012
16018SOL     OW50945   1.932   4.146   6.795  0.3818 -0.2354  0.0050
16018SOL    HW150946   1.893   4.119   6.878  0.4447 -1.1611 -0.2565
16018SOL    HW250947   1.999   4.080   6.778  1.1089  0.5580 -0.2454
16019SOL     OW50948   0.007   3.064   4.252 -0.1963  0.0910 -0.1078
16019SOL    HW150949   0.014   3.054   4.347 -0.8289 -0.4618 -0.1134
16019SOL    HW250950   0.050   2.986   4.217  0.3153  0.4498 -0.2860
16020SOL     OW50951   8.925   8.182   0.293  0.3162  0.2668  0.0919
16020SOL    HW150952   8.940   8.195   0.199  0.0384 -2.2161 -0.3715
16020SOL    HW250953   8.990   8.117   0.319  0.1009  0.5933  1.5178
16021SOL     OW50954   1.766   0.303   6.799 -0.4546 -0.0314 -0.2636
16021SOL    HW150955   1.720   0.386   6.788  0.2599  0.2929 -0.9252
16021SOL    HW250956   1.791   0.302   6.891  0.5491  1.0560 -0.4982
16022SOL     OW50957   2.855   8.414   6.374  0.0913  0.0454 -0.0074
16022SOL    HW150958   2.868   8.476   6.446  0.5786  0.1158 -0.1470
16022SOL    HW250959   2.887   8.461   6.297  0.8722 -0.5218 -0.0487
16023SOL     OW50960   3.446   8.242   8.910 -0.1578  0.1743  0.1923
16023SOL    HW150961   3.401   8.183   8.849 -0.0635 -0.1833  0.4606
16023SOL    HW250962   3.539   8.229   8.892 -0.1195 -0.1502  0.6032
16024SOL     OW50963   7.400   8.263   5.975  0.0796  0.0852  0.3307
16024SOL    HW150964   7.314   8.232   6.002  0.6397 -0.8373  1.1108
16024SOL    HW250965   7.408   8.237   5.883 -0.2681 -0.2861  0.4053
16025SOL     OW50966   2.995   5.766   3.328 -0.6614  0.0069  0.0961
16025SOL    HW150967   3.031   5.834   3.385 -0.6793  1.4040 -1.4702
16025SOL    HW250968   2.978   5.692   3.386  0.0648  1.0740  1.7374
16026SOL     OW50969   6.999   2.228   2.867  0.9161  0.0769  0.2755
16026SOL    HW150970   7.065   2.266   2.925  0.6043  0.3241  0.4713
16026SOL    HW250971   7.011   2.133   2.876 -0.4136  0.0259  2.2893
16027SOL     OW50972   1.735   3.734   8.333 -0.1726 -0.3898 -0.1799
16027SOL    HW150973   1.803   3.667   8.329  0.6931  0.5163 -1.8058
16027SOL    HW250974   1.720   3.748   8.427  1.9257 -0.6076  0.2449
16028SOL     OW50975   4.717   3.963   2.909  0.3173 -0.1264 -0.4724
16028SOL    HW150976   4.641   3.933   2.859  1.2508 -4.8323  0.4702
16028SOL    HW250977   4.726   3.899   2.980  2.9599  2.4492  1.7678
16029SOL     OW50978   9.474   0.836   5.931 -0.0979  0.6326  0.5996
16029SOL    HW150979   9.502   0.893   5.859  1.2012 -1.4317 -0.6279
16029SOL    HW250980   9.380   0.851   5.939  0.0158  2.1229 -0.3889
16030SOL     OW50981   5.681   8.848   2.938  0.6790 -0.3898  0.6389
16030SOL    HW150982   5.726   8.862   2.855  2.1472 -2.3967  1.0185
16030SOL    HW250983   5.617   8.779   2.919  0.7104 -0.5440  1.0725
16031SOL     OW50984   2.670   1.269   2.491 -0.3149  0.2219 -0.5331
16031SOL    HW150985   2.645   1.180   2.464 -0.2896  0.1078 -0.1764
16031SOL    HW250986   2.718   1.257   2.572 -2.2406  0.7171  0.7511
16032SOL     OW50987   8.799   0.902   5.735  0.3959  0.1524  0.0688
16032SOL    HW150988   8.829   0.979   5.784  1.2097 -0.7835  1.1142
16032SOL    HW250989   8.714   0.881   5.775 -0.4857  1.2642 -1.1305
16033SOL     OW50990   1.625   2.280   4.035  0.7527 -0.1357 -0.4791
16033SOL    HW150991   1.658   2.255   3.948  0.9924  0.8756 -0.6987
16033SOL    HW250992   1.562   2.212   4.058  1.4952 -1.0158 -0.9568
16034SOL     OW50993   9.550   8.972   5.335 -0.4649 -0.1644  0.2028
16034SOL    HW150994   9.600   8.929   5.265 -0.4525  0.2320 -0.0347
16034SOL    HW250995   9.501   8.901   5.377  1.9423 -0.9713  1.8662
16035SOL     OW50996   4.765   1.722   4.968  0.3810 -0.6112  0.5258
16035SOL    HW150997   4.674   1.703   4.992 -0.0356 -0.3377 -0.7838
16035SOL    HW250998   4.783   1.807   5.010  0.5298 -1.3235  1.9800
16036SOL     OW50999   4.909   8.278   7.682  0.6959 -0.3001  0.4359
16036SOL    HW151000   4.853   8.352   7.705  1.0957  0.9548 -2.2271
16036SOL    HW251001   4.904   8.219   7.758 -1.3606  1.4128  1.7398
16037SOL     OW51002   0.262   1.294   4.625  0.4018  0.2567 -0.3178
16037SOL    HW151003   0.287   1.381   4.656  0.5681  0.6186 -1.4223
16037SOL    HW251004   0.332   1.236   4.657  1.6597  0.9429 -1.6919
16038SOL     OW51005   7.940   1.177   5.161 -0.0476 -0.0622 -0.1487
16038SOL    HW151006   7.955   1.100   5.216 -0.5110  0.9056  1.3929
16038SOL    HW251007   7.987   1.248   5.205 -0.2133  0.7021 -1.1592
16039SOL     OW51008   2.412   2.152   5.772 -0.0005 -0.4800  0.3918
16039SOL    HW151009   2.397   2.093   5.698 -0.4693 -0.1308  0.2043
16039SOL    HW251010   2.471   2.219   5.737 -1.5442  0.6434 -0.1919
16040SOL     OW51011   0.717   2.632   3.649 -0.2119 -0.1463 -0.2021
16040SOL    HW151012   0.772   2.559   3.678  0.0748  0.1813  0.0855
16040SOL    HW251013   0.674   2.662   3.729  1.1128  1.2115  0.0405
16041SOL     OW51014   4.225   7.172   9.215 -0.2581  0.0298  0.4498
16041SOL    HW151015   4.184   7.175   9.128 -1.7426  0.7866  1.1340
16041SOL    HW251016   4.212   7.260   9.250  0.7963 -0.1134  1.2373
16042SOL     OW51017   6.423   3.787   6.087 -0.1264 -0.2454 -0.0812
16042SOL    HW151018   6.391   3.700   6.110  0.8952 -0.6451 -0.1454
16042SOL    HW251019   6.424   3.834   6.171 -2.8264  0.4761 -0.3391
16043SOL     OW51020   2.219   9.386   7.062 -0.4371 -0.1746  0.1492
16043SOL    HW151021   2.132   9.406   7.097  0.1070  1.1301  0.8321
16043SOL    HW251022   2.257   9.472   7.042  1.1680 -0.6376  1.0622
16044SOL     OW51023   9.302   1.703   3.660 -0.4822 -0.2710 -0.1350
16044SOL    HW151024   9.250   1.635   3.617  1.2273 -1.8344  0.1257
16044SOL    HW251025   9.239   1.771   3.682 -2.1163 -1.3191 -1.2870
16045SOL     OW51026   4.201   6.610   8.380 -0.0169  0.2721  0.2183
16045SOL    HW151027   4.154   6.568   8.308 -0.1889  0.7791  0.0308
16045SOL    HW251028   4.282   6.642   8.340 -0.9708  2.2757 -0.2225
16046SOL     OW51029   1.499   0.431   8.351  0.7032 -0.2884 -0.0579
16046SOL    HW151030   1.465   0.356   8.400 -0.8447 -0.1985 -0.9478
16046SOL    HW251031   1.578   0.457   8.399  0.4947 -1.6106  1.0573
16047SOL     OW51032   0.428   8.590   4.698  0.1559 -0.4212  0.0472
16047SOL    HW151033   0.342   8.554   4.719 -0.1155 -0.0107 -0.3268
16047SOL    HW251034   0.429   8.676   4.740  0.0844 -0.1078 -0.5699
16048SOL     OW51035   1.724   8.320   5.543  0.5545  0.2032 -0.1476
16048SOL    HW151036   1.718   8.358   5.631  0.6801  1.8933 -0.8178
16048SOL    HW251037   1.719   8.396   5.484  1.8502 -0.7403 -1.5515
16049SOL     OW51038   0.716   5.342   4.422  0.4476 -0.1057  0.2313
16049SOL    HW151039   0.796   5.315   4.377  0.1423  1.1420 -1.1284
16049SOL    HW251040   0.647   5.326   4.358 -0.0887  1.0555  0.5070
16050SOL     OW51041   7.991   7.415   5.727 -0.2604 -0.0307 -0.0779
16050SOL    HW151042   8.085   7.434   5.721 -0.5290  1.0436 -1.4570
16050SOL    HW251043   7.951   7.499   5.748 -0.7528 -0.9785  3.3917
16051SOL     OW51044   3.132   3.697   4.318 -0.7339  0.2462  0.5594
16051SOL    HW151045   3.149   3.622   4.262 -1.8176  1.3966 -1.4427
16051SOL    HW251046   3.086   3.660   4.394  0.4679 -1.3170  0.5808
16052SOL     OW51047   1.395   2.366   8.917 -0.1724  0.5652 -0.4269
16052SOL    HW151048   1.428   2.301   8.854  1.3031  0.4621  0.4045
16052SOL    HW251049   1.469   2.426   8.930 -1.0931  1.6916 -0.2236
16053SOL     OW51050   7.688   7.286   0.353 -0.3284  0.1858 -0.0889
16053SOL    HW151051   7.631   7.354   0.388  0.6611  1.4017 -0.7569
16053SOL    HW251052   7.649   7.265   0.268 -0.6719 -0.1315  0.1460
16054SOL     OW51053   2.549   2.044   0.281 -0.3947 -0.2789  0.5046
16054SOL    HW151054   2.541   2.092   0.364  0.9373  0.7182  0.0988
16054SOL    HW251055   2.476   2.076   0.228 -0.6298 -0.1208  0.9165
16055SOL     OW51056   5.884   5.157   3.300  0.0841  0.6555 -0.2040
16055SOL    HW151057   5.877   5.072   3.257 -0.1971  1.1443 -1.1522
16055SOL    HW251058   5.793   5.183   3.317  0.1812  0.6240  0.3800
16056SOL     OW51059   0.860   0.971   6.020  0.5938  0.3180  0.3270
16056SOL    HW151060   0.766   0.972   6.035  0.9483  1.6200  3.2174
16056SOL    HW251061   0.880   1.060   5.991  1.1815  0.9820  2.5352
16057SOL     OW51062   7.335   5.769   7.086 -0.2112 -0.3249 -0.1325
16057SOL    HW151063   7.274   5.775   7.013 -1.0210 -1.7101  0.4043
16057SOL    HW251064   7.322   5.682   7.122  2.8074 -1.1127 -0.6230
16058SOL     OW51065   5.523   2.741   2.674 -0.2158 -0.4047  0.1573
16058SOL    HW151066   5.508   2.677   2.604 -0.3710 -0.6513  0.4105
16058SOL    HW251067   5.488   2.823   2.639  0.8635 -0.2268 -0.5563
16059SOL     OW51068   7.600   6.740   7.605  0.5166  0.5261 -0.4088
16059SOL    HW151069   7.633   6.664   7.653  1.0795  1.5237  0.8332
16059SOL    HW251070   7.568   6.799   7.673 -0.2615  1.2451 -1.3785
16060SOL     OW51071   6.764   5.390   4.894  0.4470 -0.3592 -0.2751
16060SOL    HW151072   6.753   5.466   4.952 -0.5313 -0.2407 -0.5932
16060SOL    HW251073   6.704   5.325   4.928  2.8442 -1.8816  1.3475
16061SOL     OW51074   0.137   8.514   0.766 -0.4127 -0.3162 -0.2323
16061SOL    HW151075   0.188   8.493   0.845 -2.6037 -0.7808  1.1527
16061SOL    HW251076   0.098   8.431   0.740 -1.7181  0.2795 -0.2628
16062SOL     OW51077   2.937   4.644   2.268  0.3635  0.3111 -0.1822
16062SOL    HW151078   3.015   4.698   2.257  0.2722  0.2322 -1.2944
16062SOL    HW251079   2.920   4.607   2.181  0.3801 -1.4559  0.5231
16063SOL     OW51080   3.285   1.151   0.089  0.0796 -0.2807  0.2527
16063SOL    HW151081   3.200   1.106   0.087  0.6779 -1.7782  3.0836
16063SOL    HW251082   3.262   1.243   0.104 -1.0851  0.2405 -3.6367
16064SOL     OW51083   5.290   8.704   4.915 -0.4310 -0.1425  0.1392
16064SOL    HW151084   5.350   8.650   4.864  1.5813 -0.6990  2.8425
16064SOL    HW251085   5.245   8.643   4.973 -1.5053  0.6160  0.1451
16065SOL     OW51086   5.837   0.044   1.520  0.3143  0.0831  0.3918
16065SOL    HW151087   5.847  -0.050   1.539  0.8108  0.3865  1.7325
16065SOL    HW251088   5.867   0.088   1.600  1.0860  1.4266 -0.6128
16066SOL     OW51089   3.282   9.338   0.824 -0.4049 -0.0582  0.2505
16066SOL    HW151090   3.318   9.257   0.788 -1.4728 -0.7918  0.7640
16066SOL    HW251091   3.261   9.391   0.748 -0.1401 -0.4593 -0.1076
16067SOL     OW51092   1.699   8.795   8.375 -0.0332  0.1737 -0.5926
16067SOL    HW151093   1.624   8.779   8.318 -0.0335 -0.2280 -0.4868
16067SOL    HW251094   1.756   8.719   8.360  0.7578  0.8843 -1.3166
16068SOL     OW51095   1.029   3.551   7.980 -0.1286  0.0679 -0.0571
16068SOL    HW151096   1.117   3.548   8.017 -0.0135  2.1908 -0.0795
16068SOL    HW251097   1.038   3.599   7.898 -1.4906  1.4876  0.5770
16069SOL     OW51098   7.489   9.423   7.844  0.9538 -0.0152  0.1763
16069SOL    HW151099   7.483   9.452   7.935 -1.7792 -1.3877  0.5550
16069SOL    HW251100   7.510   9.329   7.851 -0.8845 -0.5162 -0.4613
16070SOL     OW51101   0.495   7.645   2.556 -0.2184  0.1450 -0.0573
16070SOL    HW151102   0.466   7.733   2.531 -0.2914 -0.2343 -1.3683
16070SOL    HW251103   0.417   7.591   2.547 -0.4858  0.1114  1.8785
16071SOL     OW51104   9.055   2.758   2.428 -0.1725 -0.1763 -0.0368
16071SOL    HW151105   9.011   2.831   2.384 -0.6214 -0.3374  0.1363
16071SOL    HW251106   9.119   2.800   2.486  1.4236  0.0114 -1.8305
16072SOL     OW51107   0.948   5.462   4.730  0.4278  0.4029 -0.0654
16072SOL    HW151108   0.971   5.373   4.701  0.9239  0.0161  1.4163
16072SOL    HW251109   0.994   5.519   4.669  0.8836 -0.3729 -0.4744
16073SOL     OW51110   6.810   3.566   0.977  1.0275  0.0363  0.0574
16073SOL    HW151111   6.737   3.528   0.929 -1.9659  3.2407  1.6413
16073SOL    HW251112   6.828   3.503   1.047  0.5127 -1.2587 -0.9274
16074SOL     OW51113   7.284   8.449   7.373  1.0451  0.0753 -0.2160
16074SOL    HW151114   7.350   8.453   7.442 -0.4553 -0.4163  1.2938
16074SOL    HW251115   7.277   8.356   7.351  0.4481  0.0628  0.0259
16075SOL     OW51116   9.606   2.808   1.121 -0.6853  0.2338  0.0625
16075SOL    HW151117   9.577   2.728   1.165  0.0377 -0.1768 -0.2093
16075SOL    HW251118   9.689   2.785   1.079 -0.1938  1.2654  0.4296
16076SOL     OW51119   9.056   2.147   8.029 -0.2083 -0.4755 -0.3843
16076SOL    HW151120   9.135   2.199   8.042  0.3785 -1.7228  1.3382
16076SOL    HW251121   9.086   2.070   7.981 -0.2491 -1.1672  0.6621
16077SOL     OW51122   4.205   3.412   3.035 -0.6085 -0.4072 -0.3990
16077SOL    HW151123   4.174   3.379   2.951  1.2440 -1.9218 -0.5598
16077SOL    HW251124   4.131   3.461   3.070 -1.1296  1.1755 -3.3515
16078SOL     OW51125   4.928   3.583   3.952 -0.8337  0.6436 -0.3975
16078SOL    HW151126   4.867   3.524   3.908 -2.4976  1.6729  0.4334
16078SOL    HW251127   4.974   3.627   3.880  0.0965 -1.2422 -1.0236
16079SOL     OW51128   7.444   3.666   6.865 -0.4379 -0.9412  0.1594
16079SOL    HW151129   7.429   3.587   6.917 -0.3737 -0.5233  0.8284
16079SOL    HW251130   7.410   3.644   6.778 -1.4225 -1.3273  0.6296
16080SOL     OW51131   0.267   7.477   1.904  0.4649  0.0551  0.6848
16080SOL    HW151132   0.284   7.462   1.811  0.4361 -1.4567  0.9086
16080SOL    HW251133   0.190   7.533   1.905  0.4470  0.0670 -0.1973
16081SOL     OW51134   0.533   3.566   1.110  0.1420  0.3059 -0.0100
16081SOL    HW151135   0.604   3.566   1.046 -0.1962  3.1039 -0.5012
16081SOL    HW251136   0.462   3.518   1.068  0.6151  0.3472 -0.8748
16082SOL     OW51137   5.911   1.236   8.194 -0.1177 -0.2399 -0.2517
16082SOL    HW151138   5.831   1.183   8.187 -0.1832  0.0347 -1.9874
16082SOL    HW251139   5.940   1.248   8.104  0.5262  1.7284  0.1687
16083SOL     OW51140   8.928   5.973   7.729 -0.6300  0.2024  0.1314
16083SOL    HW151141   8.931   5.925   7.647  0.0791  0.0394  0.2487
16083SOL    HW251142   8.834   5.980   7.749 -0.7941  0.0639 -0.5781
16084SOL     OW51143   3.840   4.140   7.345 -0.1927 -0.4501  0.2730
16084SOL    HW151144   3.906   4.163   7.411 -0.1984  0.8219 -0.1452
16084SOL    HW251145   3.756   4.155   7.389 -0.1989  0.7184 -0.1014
16085SOL     OW51146   2.981   6.464   6.393  0.2300 -0.0785 -0.2489
16085SOL    HW151147   2.914   6.421   6.341 -1.0953  0.7134  0.7523
16085SOL    HW251148   2.956   6.556   6.393  0.7336  0.0789  0.9780
16086SOL     OW51149   8.252   2.608   4.627  0.3546  0.4254 -0.3922
16086SOL    HW151150   8.245   2.535   4.689  1.7692  1.2500  0.8242
16086SOL    HW251151   8.332   2.589   4.577 -0.1227  0.3732 -1.1460
16087SOL     OW51152   2.975   3.486   5.300 -0.4877  0.1619 -0.2414
16087SOL    HW151153   2.993   3.579   5.283 -0.6986  0.5016  1.2511
16087SOL    HW251154   2.879   3.481   5.304 -0.4911  0.6494  3.2493
16088SOL     OW51155   8.036   0.344   3.081 -0.0233  0.1899 -0.1660
16088SOL    HW151156   7.991   0.308   3.004  0.4410  0.9895 -0.8288
16088SOL    HW251157   8.098   0.277   3.108 -1.4651 -0.8655  0.6576
16089SOL     OW51158   7.005   3.853   3.391 -0.2803 -0.1178  0.6547
16089SOL    HW151159   6.999   3.926   3.453  0.2244  0.0811  0.4696
16089SOL    HW251160   6.940   3.790   3.423 -2.4746  1.4059 -0.5419
16090SOL     OW51161   8.024   8.475   3.732 -0.3683  0.1867 -0.1293
16090SOL    HW151162   8.052   8.481   3.823  0.0811 -0.2295 -0.2368
16090SOL    HW251163   7.940   8.521   3.730 -0.6643 -0.2990  0.6145
16091SOL     OW51164   8.016   2.395   0.767 -0.0877  0.3027  0.1532
16091SOL    HW151165   8.057   2.326   0.715  0.5262  1.5609 -1.0592
16091SOL    HW251166   8.011   2.470   0.709 -1.6280  1.0155  1.1529
16092SOL     OW51167   9.098   3.686   6.559  0.1085  0.1597  0.0309
16092SOL    HW151168   9.090   3.613   6.620 -0.9488  0.4511  0.2676
16092SOL    HW251169   9.009   3.722   6.553  0.2659  0.3455 -1.4269
16093SOL     OW51170   4.004   8.980   3.041  0.3604 -0.3022 -0.5073
16093SOL    HW151171   3.980   8.926   3.116  1.8432  0.2126  0.3767
16093SOL    HW251172   4.099   8.972   3.035  0.3000 -0.1581 -2.2188
16094SOL     OW51173   6.332   7.966   3.615  0.2968 -0.0775 -0.4260
16094SOL    HW151174   6.375   7.893   3.660 -2.2186 -2.7831 -2.0608
16094SOL    HW251175   6.248   7.976   3.660 -1.0143 -0.8721 -2.5511
16095SOL     OW51176   0.762   2.004   8.605  0.8604 -0.0135  0.2359
16095SOL    HW151177   0.682   1.991   8.656  0.4945  1.3911  0.0689
16095SOL    HW251178   0.776   2.099   8.607 -0.4271  0.4601 -4.1214
16096SOL     OW51179   1.915   2.842   4.954 -0.1011  0.2941  0.5951
16096SOL    HW151180   1.883   2.913   4.899 -1.6336  0.3825  1.5521
16096SOL    HW251181   1.860   2.845   5.032  0.0635 -1.6755  0.8481
16097SOL     OW51182   2.915   1.734   0.119  0.0003  0.0370 -0.1952
16097SOL    HW151183   2.853   1.776   0.179  0.3814  0.3779 -0.0292
16097SOL    HW251184   2.885   1.644   0.113 -1.3670  0.5192 -1.2476
16098SOL     OW51185   8.512   5.990   0.536  0.6378 -0.5797  0.2831
16098SOL    HW151186   8.447   5.967   0.470  0.6777  0.1074  0.0025
16098SOL    HW251187   8.519   5.911   0.590 -0.9545 -0.4495  0.7464
16099SOL     OW51188   1.669   8.668   4.846 -0.4232 -0.0026 -0.5966
16099SOL    HW151189   1.760   8.645   4.827 -1.1448 -1.6969 -2.3630
16099SOL    HW251190   1.630   8.586   4.878 -1.5061  0.5014 -0.5903
16100SOL     OW51191   5.618   7.060   5.425  0.2232  0.4324 -0.6575
16100SOL    HW151192   5.688   7.015   5.474  0.6815 -0.8804 -2.4193
16100SOL    HW251193   5.664   7.125   5.372 -0.0843  0.6871 -0.6153
16101SOL     OW51194   6.213   5.614   0.490 -0.2928  0.1795  0.2702
16101SOL    HW151195   6.291   5.639   0.539 -0.7148  0.5147  0.7845
16101SOL    HW251196   6.218   5.518   0.483  0.3667  0.2375 -0.0544
16102SOL     OW51197   1.782   1.466   4.226 -0.1684  0.4439 -0.0655
16102SOL    HW151198   1.839   1.390   4.237 -0.6944 -0.2608 -1.8097
16102SOL    HW251199   1.697   1.438   4.262 -0.2225  0.3760 -0.2423
16103SOL     OW51200   5.054   1.535   6.270 -0.2891  0.1346 -0.2180
16103SOL    HW151201   5.148   1.525   6.261 -0.0881  2.0408 -0.7738
16103SOL    HW251202   5.035   1.504   6.359  0.9327  0.1172  0.0529
16104SOL     OW51203   7.302   7.516   0.225  0.0752  0.1965  0.1748
16104SOL    HW151204   7.252   7.573   0.283  0.4971 -0.3797  1.1149
16104SOL    HW251205   7.268   7.536   0.137 -1.3960  0.2247  0.7321
16105SOL     OW51206   0.183   7.723   4.993 -0.2887 -0.0580  0.3194
16105SOL    HW151207   0.261   7.674   4.964  0.3224  1.0443  0.0344
16105SOL    HW251208   0.110   7.663   4.977  0.5110 -1.2117  0.8113
16106SOL     OW51209   4.647   7.027   6.074  0.0331  0.6610  0.5763
16106SOL    HW151210   4.656   7.108   6.125  1.3722 -0.5260  2.3029
16106SOL    HW251211   4.675   6.958   6.133 -1.9573 -1.2266 -0.5328
16107SOL     OW51212   2.995   8.708   9.205 -0.4568 -0.7646  0.0692
16107SOL    HW151213   3.046   8.634   9.172  2.0513  1.2378 -0.9454
16107SOL    HW251214   2.919   8.713   9.147 -0.3737 -2.1806 -0.1910
16108SOL     OW51215   8.419   0.574   3.380 -0.2584 -0.6955 -0.0646
16108SOL    HW151216   8.350   0.565   3.446  0.0523  1.0527  0.5308
16108SOL    HW251217   8.405   0.500   3.321 -1.7112 -1.2200  0.8874
16109SOL     OW51218   4.651   0.923   6.997 -0.3712  0.2504 -0.7360
16109SOL    HW151219   4.655   0.987   6.926  0.6224 -0.2141 -1.1277
16109SOL    HW251220   4.742   0.894   7.008 -0.6122 -0.1682  0.2842
16110SOL     OW51221   8.174   8.905   5.978  0.3216  0.3046 -0.3671
16110SOL    HW151222   8.220   8.884   6.059 -0.0656 -0.7217 -0.4111
16110SOL    HW251223   8.097   8.849   5.978  0.1678  0.4965 -1.3163
16111SOL     OW51224   4.491   3.245   2.559 -0.6065  0.6221  0.2225
16111SOL    HW151225   4.494   3.338   2.580  0.2529  0.4782  0.7974
16111SOL    HW251226   4.525   3.239   2.470  0.2441  0.7705  0.5298
16112SOL     OW51227   8.485   3.708   1.437 -0.1614 -0.1157 -0.0807
16112SOL    HW151228   8.491   3.705   1.532  0.5444 -0.8125 -0.1290
16112SOL    HW251229   8.391   3.712   1.418 -0.3603 -0.9979  0.6399
16113SOL     OW51230   4.612   6.563   4.533 -0.1817 -0.6815 -0.2627
16113SOL    HW151231   4.549   6.537   4.465 -0.3891 -2.0755  0.4237
16113SOL    HW251232   4.696   6.529   4.502  0.2439  1.0028 -1.0804
16114SOL     OW51233   5.697   5.894   5.076  0.6144 -0.2952  0.2990
16114SOL    HW151234   5.770   5.934   5.027  0.7988 -1.2197 -0.2150
16114SOL    HW251235   5.737   5.820   5.121  0.3713  0.3496  1.6109
16115SOL     OW51236   5.087   8.438   5.686  0.1926 -0.1962  0.6534
16115SOL    HW151237   4.993   8.457   5.685 -0.3564 -2.5870 -0.4825
16115SOL    HW251238   5.097   8.371   5.753  0.3888 -2.6166 -1.6446
16116SOL     OW51239   4.235   9.124   1.089 -0.0595 -0.1192 -0.0870
16116SOL    HW151240   4.322   9.142   1.124  0.1288 -1.5640  0.2471
16116SOL    HW251241   4.189   9.209   1.092  1.6092  0.8830 -1.1254
16117SOL     OW51242   9.593   3.912   2.998 -0.1140  0.3105  0.3804
16117SOL    HW151243   9.520   3.851   2.993 -0.1842  0.0579  3.0577
16117SOL    HW251244   9.670   3.860   2.975 -0.6312  0.3614 -1.5971
16118SOL     OW51245   8.067   2.567   7.001 -0.0711 -0.2888  0.2366
16118SOL    HW151246   8.055   2.475   6.975  0.3000 -0.6909  1.4321
16118SOL    HW251247   8.002   2.614   6.949 -0.6099 -1.2878 -0.0327
16119SOL     OW51248   6.051   9.223   4.103 -0.1552  0.3441  0.2200
16119SOL    HW151249   6.039   9.261   4.191 -0.5398 -0.6713  0.6241
16119SOL    HW251250   6.101   9.143   4.118 -2.4041 -1.2261 -0.1160
16120SOL     OW51251   8.557   7.947   4.729  0.3564  0.4323 -0.4315
16120SOL    HW151252   8.506   7.867   4.717 -0.8022  1.0833 -0.0356
16120SOL    HW251253   8.587   7.942   4.820 -0.5325  0.8735 -0.0946
16121SOL     OW51254   9.169   5.932   8.401 -0.5534  0.4049 -0.0714
16121SOL    HW151255   9.107   5.884   8.345  0.1206  0.6645 -1.0722
16121SOL    HW251256   9.182   5.874   8.476 -0.0340 -0.8437 -1.0752
16122SOL     OW51257   7.233   5.838   4.552 -0.1192  0.5084  0.2322
16122SOL    HW151258   7.161   5.890   4.588 -0.4565 -0.9063  1.7413
16122SOL    HW251259   7.268   5.790   4.628  0.7462 -0.7623 -0.9200
16123SOL     OW51260   9.369   1.375   1.391 -0.8643 -0.3773 -0.0118
16123SOL    HW151261   9.462   1.379   1.411 -1.2167  2.1343  1.4868
16123SOL    HW251262   9.364   1.395   1.297  0.0542 -0.0921 -0.0042
16124SOL     OW51263   6.214   0.467   9.044  0.5015 -0.1233  0.6092
16124SOL    HW151264   6.247   0.557   9.044  0.5777 -0.1494  0.1161
16124SOL    HW251265   6.293   0.413   9.044  0.4696 -0.1864 -0.6786
16125SOL     OW51266   6.672   7.708   6.364  0.3994 -0.2117 -0.2440
16125SOL    HW151267   6.632   7.674   6.284  1.6719 -3.0504  0.2101
16125SOL    HW251268   6.760   7.736   6.337  0.4071 -0.0351 -0.0429
16126SOL     OW51269   1.489   8.771   8.662  0.3427 -0.2178  0.2750
16126SOL    HW151270   1.470   8.763   8.568  0.0429 -0.5110  0.3619
16126SOL    HW251271   1.581   8.799   8.664  0.3650 -0.2493 -0.1048
16127SOL     OW51272   9.036   5.899   2.627  0.7144 -0.1019  0.4592
16127SOL    HW151273   8.948   5.900   2.663  0.4003  1.2573 -0.2869
16127SOL    HW251274   9.093   5.900   2.705  0.0502  1.9557  0.9914
16128SOL     OW51275   8.547   2.472   3.724  0.0482 -0.0393 -0.2430
16128SOL    HW151276   8.586   2.387   3.746 -0.4716  0.1373  1.5081
16128SOL    HW251277   8.531   2.513   3.809 -0.0751  1.6525 -1.0577
16129SOL     OW51278   8.717   2.850   6.239 -0.0089  0.6140 -0.2438
16129SOL    HW151279   8.749   2.838   6.328  1.5369  0.4922 -0.7787
16129SOL    HW251280   8.698   2.762   6.208  3.0935  0.1831 -1.2618
16130SOL     OW51281   3.726   8.262   4.577 -0.2221  0.2503 -0.2179
16130SOL    HW151282   3.689   8.347   4.554 -0.1979  0.3337  0.0471
16130SOL    HW251283   3.787   8.281   4.649  1.3691  0.3280 -1.5336
16131SOL     OW51284   4.600   2.379   5.450 -0.0252  0.1891 -0.1534
16131SOL    HW151285   4.582   2.323   5.375 -1.2515  1.0819 -0.5509
16131SOL    HW251286   4.599   2.468   5.416 -0.2167  0.5876  0.8412
16132SOL     OW51287   1.641   2.612   2.750  0.2765  0.5921  0.1837
16132SOL    HW151288   1.559   2.563   2.752  1.0241 -0.7367  2.7413
16132SOL    HW251289   1.628   2.685   2.811  0.7213  0.8685 -0.0413
16133SOL     OW51290   9.418   1.683   0.822  0.1519  0.2119  0.2105
16133SOL    HW151291   9.362   1.691   0.899 -0.7010 -1.5447 -0.1808
16133SOL    HW251292   9.444   1.773   0.801 -0.3015  0.8008  2.0102
16134SOL     OW51293   3.685   2.243   5.424 -0.1281 -0.1943  0.1506
16134SOL    HW151294   3.610   2.184   5.430  0.4281 -0.9457 -0.1829
16134SOL    HW251295   3.760   2.190   5.450  0.2963  0.5548  0.4969
16135SOL     OW51296   0.893   0.354   4.246  0.3725  0.3007  0.5547
16135SOL    HW151297   0.874   0.280   4.303  0.8847  0.6323  1.1669
16135SOL    HW251298   0.986   0.345   4.225  0.1642  0.1195 -0.3213
16136SOL     OW51299   7.847   5.030   9.144 -0.0092  0.3376  0.2469
16136SOL    HW151300   7.941   5.046   9.156  0.0067 -0.9937  2.4301
16136SOL    HW251301   7.823   4.973   9.217 -2.0677 -1.2547 -1.5484
16137SOL     OW51302   8.414   5.368   5.332  0.3666  0.1153  0.5757
16137SOL    HW151303   8.410   5.420   5.252 -0.7523  0.7319  1.0131
16137SOL    HW251304   8.439   5.431   5.400  0.6293 -0.2667  0.8384
16138SOL     OW51305   5.530   1.267   3.416 -0.1926  0.3442 -0.0287
16138SOL    HW151306   5.468   1.316   3.471  0.7675  2.2238 -0.5391
16138SOL    HW251307   5.536   1.319   3.335  1.0940 -0.4762 -0.4776
16139SOL     OW51308   4.317   7.408   6.094  0.2663  0.4157  0.4221
16139SOL    HW151309   4.337   7.318   6.070  0.3683  0.5938 -0.1684
16139SOL    HW251310   4.226   7.404   6.124  0.0319  0.2389 -0.2873
16140SOL     OW51311   7.855   3.572   7.850  0.1808  0.4003 -0.6248
16140SOL    HW151312   7.791   3.532   7.910 -0.7470  1.6346 -0.7699
16140SOL    HW251313   7.905   3.633   7.906 -0.7041  1.5740 -1.0876
16141SOL     OW51314   8.796   0.642   3.261  0.2279  0.0354 -0.0977
16141SOL    HW151315   8.855   0.657   3.188  0.8373  0.9513  0.5573
16141SOL    HW251316   8.724   0.704   3.248  1.6899  2.2309  1.4741
16142SOL     OW51317   6.391   5.994   8.156 -0.8498 -0.2195 -0.6767
16142SOL    HW151318   6.433   6.078   8.175  0.8374 -0.5971 -2.3698
16142SOL    HW251319   6.321   6.016   8.094  0.1755 -0.1248 -1.8347
16143SOL     OW51320   1.812   8.726   7.501 -0.3246  0.4724  0.5255
16143SOL    HW151321   1.850   8.639   7.483 -0.5417  0.5362 -0.2456
16143SOL    HW251322   1.762   8.713   7.582  0.1282  0.0269  0.7464
16144SOL     OW51323   2.422   1.101   8.247 -0.2543  0.2391 -0.2067
16144SOL    HW151324   2.409   1.079   8.339 -0.0403  0.0578 -0.2211
16144SOL    HW251325   2.460   1.189   8.249 -0.7761  0.4725 -0.1424
16145SOL     OW51326   1.892   8.466   4.980 -0.5721  0.3282 -0.5415
16145SOL    HW151327   1.959   8.533   4.994 -1.6612  1.4360 -0.4021
16145SOL    HW251328   1.831   8.478   5.053 -0.1868 -1.6324  0.1775
16146SOL     OW51329   0.436   9.597   0.763  0.1415 -0.2008  0.1785
16146SOL    HW151330   0.397   9.556   0.687  0.6035 -1.6617  0.6906
16146SOL    HW251331   0.479   9.525   0.810  0.8273  0.8420  1.2191
16147SOL     OW51332   5.667   4.309   2.272 -0.3774  0.3279  0.4807
16147SOL    HW151333   5.734   4.307   2.203  0.5022 -0.8635  1.3155
16147SOL    HW251334   5.656   4.217   2.296 -0.8207  0.7033  1.7732
16148SOL     OW51335   7.793   8.611   3.751 -0.0515 -0.2043  0.3084
16148SOL    HW151336   7.724   8.609   3.685 -0.3979 -0.9581  0.6846
16148SOL    HW251337   7.808   8.705   3.768 -1.7054 -0.0270  0.9728
16149SOL     OW51338   3.300   3.361   4.398  0.2368 -0.1295 -0.3751
16149SOL    HW151339   3.295   3.354   4.493  1.0700 -0.8417 -0.3737
16149SOL    HW251340   3.210   3.349   4.368  0.2772 -2.1550  0.1862
16150SOL     OW51341   5.540   3.104   4.700  0.1109  0.5121  0.0495
16150SOL    HW151342   5.578   3.182   4.661  0.6394  0.0996 -0.2792
16150SOL    HW251343   5.579   3.099   4.788  2.2947 -0.9000 -0.9186
16151SOL     OW51344   0.615   4.385   3.506 -0.0041 -0.0595 -0.2897
16151SOL    HW151345   0.644   4.328   3.577  1.2919  0.9746  0.0622
16151SOL    HW251346   0.532   4.348   3.477 -1.3470  0.2907  2.7319
16152SOL     OW51347   5.756   8.056   4.682 -0.4288  0.0103  0.1172
16152SOL    HW151348   5.760   7.977   4.628 -2.1309  0.1209 -0.1999
16152SOL    HW251349   5.810   8.035   4.758 -1.4493 -1.7539  0.4009
16153SOL     OW51350   1.174   2.570   7.653  0.1146 -0.8618 -0.0612
16153SOL    HW151351   1.180   2.627   7.576 -0.1317  0.9991  1.2405
16153SOL    HW251352   1.080   2.562   7.669  0.1893 -0.2102  0.7600
16154SOL     OW51353   4.073   0.189   7.894  0.2012 -0.0167  0.2535
16154SOL    HW151354   4.100   0.278   7.873 -0.9652  0.2769 -0.0695
16154SOL    HW251355   4.139   0.157   7.955  1.2682  0.6566 -0.5299
16155SOL     OW51356   4.249   8.107   2.058 -0.0653  0.3725  0.1027
16155SOL    HW151357   4.190   8.044   2.099 -0.3037 -0.0718 -0.8969
16155SOL    HW251358   4.211   8.192   2.078  0.6631  0.2866  2.1092
16156SOL     OW51359   2.953   9.468   7.989  0.5272  0.2116 -0.5434
16156SOL    HW151360   2.926   9.520   7.913  1.0238 -2.4382 -2.7320
16156SOL    HW251361   3.038   9.502   8.014  0.2207  1.3298 -0.9857
16157SOL     OW51362   8.536   0.100   6.099 -0.5510 -0.1257 -1.0909
16157SOL    HW151363   8.473   0.050   6.151 -0.6902  1.0048 -0.1266
16157SOL    HW251364   8.559   0.042   6.026 -1.3337 -1.2485 -0.4711
16158SOL     OW51365   8.785   1.986   8.033  0.4935 -0.6109  0.2509
16158SOL    HW151366   8.826   1.906   8.065  1.5254 -0.9787 -1.8116
16158SOL    HW251367   8.857   2.041   8.004 -0.3025 -0.6699 -2.1166
16159SOL     OW51368   2.595   2.831   0.928  0.0565 -0.2578 -0.1886
16159SOL    HW151369   2.574   2.766   0.862  0.0889  0.7401 -1.2087
16159SOL    HW251370   2.517   2.886   0.934  0.0408 -0.3493  0.6358
16160SOL     OW51371   5.563   0.622   6.594  0.0620 -0.7448 -0.1123
16160SOL    HW151372   5.537   0.658   6.679  0.1417 -3.4239  1.1615
16160SOL    HW251373   5.520   0.536   6.590  1.3218 -1.3540 -2.0921
16161SOL     OW51374   2.475   3.416   6.585  0.1648 -0.1400 -0.4275
16161SOL    HW151375   2.487   3.508   6.559 -2.0784 -0.2945 -2.3823
16161SOL    HW251376   2.556   3.373   6.561  0.9049  1.1495 -0.3473
16162SOL     OW51377   0.420   2.869   0.282  0.6226  0.0541  0.3506
16162SOL    HW151378   0.482   2.928   0.325  0.5018 -0.5493  1.3724
16162SOL    HW251379   0.336   2.912   0.292  1.0120  1.6968 -2.4709
16163SOL     OW51380   0.526   4.675   6.274 -0.3835 -0.2606  0.0539
16163SOL    HW151381   0.512   4.585   6.303 -1.3183 -0.4248 -0.8313
16163SOL    HW251382   0.468   4.684   6.198 -0.5253  1.1844  0.3155
16164SOL     OW51383   2.614   0.739   1.340  0.2270  0.2693  0.3337
16164SOL    HW151384   2.688   0.797   1.320 -1.4320  1.3199 -3.8528
16164SOL    HW251385   2.537   0.796   1.334 -1.2772 -1.7820 -1.2113
16165SOL     OW51386   1.740   8.224   1.720 -0.1578 -0.3082  0.0843
16165SOL    HW151387   1.694   8.155   1.765  1.1038 -1.3262 -0.1191
16165SOL    HW251388   1.830   8.191   1.711 -0.4531 -0.5063 -3.7425
16166SOL     OW51389   9.297   7.944   2.498 -0.3058  0.2182 -0.1316
16166SOL    HW151390   9.254   7.870   2.453 -0.0397  0.6777 -1.1591
16166SOL    HW251391   9.370   7.967   2.441  0.1784  0.6731  0.6670
16167SOL     OW51392   3.308   8.723   7.579 -0.4198  0.4423  0.5062
16167SOL    HW151393   3.298   8.716   7.674 -0.2340 -0.7635  0.4560
16167SOL    HW251394   3.377   8.788   7.567  0.3772 -0.2432  1.2478
16168SOL     OW51395   8.278   1.035   2.729 -0.5390  0.4891  1.5104
16168SOL    HW151396   8.346   1.082   2.777 -0.0566  1.1443  0.2336
16168SOL    HW251397   8.316   0.948   2.712  0.3409  1.1047  0.1280
16169SOL     OW51398   1.505   0.638   3.385 -0.0978 -0.8472  0.1817
16169SOL    HW151399   1.483   0.558   3.337  0.4473 -2.0645  1.8979
16169SOL    HW251400   1.600   0.635   3.394 -0.1075 -0.1751  0.5692
16170SOL     OW51401   9.585   1.011   5.750  0.9245  0.3808  0.1853
16170SOL    HW151402   9.565   1.085   5.694  1.5316  1.1035  0.8994
16170SOL    HW251403   9.638   0.952   5.695  2.0472  1.3689  0.1610
16171SOL     OW51404   3.138   8.712   5.031 -0.5921 -0.2809  0.0222
16171SOL    HW151405   3.186   8.762   4.965 -1.8637  0.6069 -0.2457
16171SOL    HW251406   3.146   8.621   5.002 -0.1668 -0.0165 -0.7203
16172SOL     OW51407   8.554   9.498   1.637  0.1001 -0.2811  0.1056
16172SOL    HW151408   8.477   9.440   1.639 -0.5957  0.6136 -0.2194
16172SOL    HW251409   8.552   9.542   1.721  0.8351 -0.9737  0.4958
16173SOL     OW51410   9.559   1.565   0.523  0.4971  0.3037  0.0422
16173SOL    HW151411   9.649   1.592   0.503  0.0838  1.8249  0.1097
16173SOL    HW251412   9.511   1.648   0.532 -0.6606 -0.4637  1.1699
16174SOL     OW51413   4.800   2.114   5.926  0.5286 -0.1332  0.2068
16174SOL    HW151414   4.746   2.123   6.004  0.8063 -0.2255  0.4102
16174SOL    HW251415   4.748   2.152   5.856 -0.7799 -2.2075 -0.0270
16175SOL     OW51416   0.810   8.955   0.528 -0.0080 -0.5707 -0.2554
16175SOL    HW151417   0.851   9.038   0.552 -1.1362 -0.6929  2.4620
16175SOL    HW251418   0.745   8.978   0.462  0.6156  0.4623 -0.5326
16176SOL     OW51419   8.513   1.278   1.446 -0.5971  0.3645  0.4360
16176SOL    HW151420   8.555   1.286   1.360 -2.2074  2.4478 -0.2523
16176SOL    HW251421   8.444   1.212   1.432 -0.8840  0.7297  0.1077
16177SOL     OW51422   5.791   9.599   9.166  0.0898  0.3011  0.2175
16177SOL    HW151423   5.755   9.667   9.108 -1.5142 -0.1005  0.6714
16177SOL    HW251424   5.867   9.565   9.119 -0.6591  0.5730 -1.2662
16178SOL     OW51425   6.880   0.579   2.284 -0.3479  0.2613 -0.1068
16178SOL    HW151426   6.804   0.542   2.330  1.2158 -1.1521  1.4432
16178SOL    HW251427   6.901   0.658   2.333 -1.7255  1.5744 -1.5076
16179SOL     OW51428   5.023   4.610   8.794 -0.1231 -0.7318 -0.1361
16179SOL    HW151429   5.040   4.670   8.867  0.5089 -0.4370 -0.5099
16179SOL    HW251430   5.050   4.525   8.827  3.0447 -0.1788 -0.9411
16180SOL     OW51431   9.285   1.977   7.949 -0.1355  0.8044  0.2792
16180SOL    HW151432   9.330   2.054   7.915  1.3412 -0.1899 -0.1411
16180SOL    HW251433   9.346   1.940   8.013 -1.0037  0.2301  0.8009
16181SOL     OW51434   1.423   5.946   6.815 -0.3189  0.0605  0.2201
16181SOL    HW151435   1.331   5.920   6.806 -0.7028  1.6460 -0.6639
16181SOL    HW251436   1.424   6.002   6.893 -0.3133  0.9075 -0.3785
16182SOL     OW51437   9.369   7.490   8.300  0.8289  1.0017 -0.0062
16182SOL    HW151438   9.340   7.549   8.231 -1.5003 -2.5468 -2.3851
16182SOL    HW251439   9.291   7.473   8.352  1.4518  0.0178  0.6451
16183SOL     OW51440   9.278   4.791   0.460 -0.1294 -0.1789 -0.5432
16183SOL    HW151441   9.251   4.859   0.521 -1.8376 -1.3814  0.1183
16183SOL    HW251442   9.286   4.836   0.376 -1.9201  0.7396 -0.2716
16184SOL     OW51443   6.183   4.288   0.504 -0.1462  0.4777 -0.0686
16184SOL    HW151444   6.139   4.218   0.456 -0.2100 -0.1962  0.9252
16184SOL    HW251445   6.230   4.242   0.574  1.2783  1.2774 -0.4647
16185SOL     OW51446   4.518   4.737   9.323  0.6840 -0.1055  0.2132
16185SOL    HW151447   4.602   4.781   9.310  0.8138  0.1035  1.5978
16185SOL    HW251448   4.466   4.761   9.246  1.9734 -0.4716 -0.8086
16186SOL     OW51449   0.928   5.769   4.383  0.7564 -0.2561 -0.3143
16186SOL    HW151450   0.965   5.814   4.459 -0.6039  0.1406  0.1515
16186SOL    HW251451   0.886   5.691   4.418  0.9900 -0.6102 -0.8016
16187SOL     OW51452   2.561   7.360   3.225 -0.0575 -0.5062 -0.2047
16187SOL    HW151453   2.537   7.452   3.214 -0.9626 -0.6806  0.1562
16187SOL    HW251454   2.480   7.312   3.204  1.0142 -1.3832 -2.6755
16188SOL     OW51455   7.275   3.039   7.136  0.1060  0.0205  0.2178
16188SOL    HW151456   7.314   3.112   7.184  0.9402  0.4006 -0.9936
16188SOL    HW251457   7.295   2.962   7.189 -0.1885  0.5835  1.1658
16189SOL     OW51458   2.106   7.810   3.351  0.1228  0.2721 -0.6306
16189SOL    HW151459   2.181   7.752   3.363 -0.5626 -0.4168  0.4725
16189SOL    HW251460   2.045   7.760   3.296 -0.2108  0.1899 -0.1863
16190SOL     OW51461   6.936   7.326   2.657  0.7039  0.1887  0.5992
16190SOL    HW151462   6.889   7.409   2.646  0.2035 -0.2099 -0.4852
16190SOL    HW251463   6.889   7.265   2.601  0.6744 -1.0060  1.8840
16191SOL     OW51464   4.697   7.511   0.043  0.4748 -0.2411  0.6535
16191SOL    HW151465   4.630   7.530  -0.023  1.9729 -0.7919 -1.1290
16191SOL    HW251466   4.704   7.415   0.043  0.8037 -0.2251  1.2982
16192SOL     OW51467   0.456   6.055   4.140 -0.1583 -0.4947  0.8650
16192SOL    HW151468   0.518   5.995   4.182 -0.8944 -1.6172  0.3805
16192SOL    HW251469   0.417   6.004   4.070 -1.2800  0.3555  0.8453
16193SOL     OW51470   1.946   2.456   9.587 -1.1209 -0.0195 -0.6475
16193SOL    HW151471   1.971   2.548   9.595  1.1550 -0.7624  2.2348
16193SOL    HW251472   1.981   2.429   9.503  2.2444  0.7211  0.3627
16194SOL     OW51473   3.935   3.244   7.966  0.0767  0.1922  0.3078
16194SOL    HW151474   3.855   3.246   8.019 -1.0028 -0.6385 -1.1833
16194SOL    HW251475   3.918   3.176   7.900  0.7512  2.0423 -1.9313
16195SOL     OW51476   4.109   3.160   6.683 -0.2667 -0.1873 -1.0615
16195SOL    HW151477   4.165   3.125   6.614  0.0314 -0.1707 -0.8343
16195SOL    HW251478   4.171   3.195   6.748 -0.4199 -2.2360  0.3128
16196SOL     OW51479   8.792   7.665   3.614 -0.3589  0.5163  0.2715
16196SOL    HW151480   8.709   7.633   3.649 -0.5313  0.3182 -0.3015
16196SOL    HW251481   8.829   7.718   3.684 -1.5628  1.6327  0.1053
16197SOL     OW51482   3.965   6.736   1.819 -0.0792  0.8042  0.5600
16197SOL    HW151483   4.058   6.730   1.799 -0.1665 -1.3933  0.5829
16197SOL    HW251484   3.949   6.665   1.882 -1.9830  0.3492 -0.3484
16198SOL     OW51485   4.988   2.668   7.297  0.2427  0.3045 -0.3507
16198SOL    HW151486   5.024   2.756   7.285  0.6984  0.0535 -0.8840
16198SOL    HW251487   4.943   2.649   7.214 -1.7507  0.8797  0.5456
16199SOL     OW51488   6.645   3.203   3.020 -0.2527  0.1189  0.4896
16199SOL    HW151489   6.656   3.285   2.974  0.5854  0.8118  1.8474
16199SOL    HW251490   6.686   3.218   3.106 -1.5184 -1.1676  1.3706
16200SOL     OW51491   8.512   2.574   3.987 -0.3950 -0.2297  0.7409
16200SOL    HW151492   8.581   2.573   4.053 -0.9727  0.7071  1.3870
16200SOL    HW251493   8.437   2.533   4.029 -0.5659 -0.2367  0.4353
16201SOL     OW51494   8.706   9.399   2.878 -0.1054 -0.2442 -0.4051
16201SOL    HW151495   8.616   9.382   2.907  0.6734 -1.4990  1.4340
16201SOL    HW251496   8.702   9.388   2.783 -1.9980  0.2527 -0.4166
16202SOL     OW51497   0.049   5.296   1.441  0.6277 -0.0266  1.1555
16202SOL    HW151498   0.031   5.355   1.367  0.0434 -0.4279  0.9703
16202SOL    HW251499   0.101   5.349   1.502  1.7977  0.0573  0.1053
16203SOL     OW51500   7.932   1.960   7.566  1.2880 -0.0635  0.1823
16203SOL    HW151501   7.851   2.005   7.546  1.0459 -0.8757 -0.7719
16203SOL    HW251502   7.982   1.962   7.483  1.6149 -0.8103  0.3496
16204SOL     OW51503   6.713   8.768   8.555 -0.2692 -0.2030  0.4002
16204SOL    HW151504   6.756   8.853   8.550 -0.5241  0.0558  1.8932
16204SOL    HW251505   6.672   8.757   8.469 -0.3294  1.2460  0.2027
16205SOL     OW51506   8.062   0.894   0.439  0.1140  0.1062 -0.1640
16205SOL    HW151507   8.071   0.981   0.401  2.0898  0.2069  0.4354
16205SOL    HW251508   8.015   0.909   0.521 -0.5204  0.4428 -0.5812
16206SOL     OW51509   8.666   4.297   6.138  0.0992  0.2739 -0.4097
16206SOL    HW151510   8.660   4.332   6.049 -0.5158 -0.1112 -0.5228
16206SOL    HW251511   8.717   4.216   6.129  2.3369  1.5420 -0.0161
16207SOL     OW51512   1.954   4.673   6.849  0.3220 -0.2062  0.2330
16207SOL    HW151513   1.956   4.583   6.883  1.8530  0.3388  1.7476
16207SOL    HW251514   2.039   4.709   6.873 -0.2305  1.6296 -0.4152
16208SOL     OW51515   9.007   9.627   6.087 -0.1467  0.1359 -0.1817
16208SOL    HW151516   8.993   9.719   6.063 -0.7414  0.2544  0.6015
16208SOL    HW251517   9.102   9.617   6.088  0.0388  1.4197  2.1628
16209SOL     OW51518   2.863   3.740   4.563  0.2813 -0.7522 -0.3164
16209SOL    HW151519   2.886   3.832   4.569 -0.7166  0.1322 -5.5398
16209SOL    HW251520   2.948   3.694   4.565  0.8090  0.1979  1.9298
16210SOL     OW51521   4.132   2.445   4.054 -0.0694 -0.1515 -0.1294
16210SOL    HW151522   4.103   2.356   4.074  0.5983 -0.4454 -0.4145
16210SOL    HW251523   4.065   2.502   4.091  0.0626 -0.7427  1.0537
16211SOL     OW51524   2.730   0.294   3.315  0.3944  0.4665 -0.9331
16211SOL    HW151525   2.677   0.261   3.388  0.2939  0.8526 -0.8279
16211SOL    HW251526   2.777   0.217   3.283  0.1479  0.2178 -0.7066
16212SOL     OW51527   2.941   8.360   2.290 -0.4311 -0.3393 -0.3882
16212SOL    HW151528   3.026   8.397   2.313 -0.5356 -0.6691  0.5758
16212SOL    HW251529   2.962   8.276   2.250 -0.2864 -0.2631 -0.4739
16213SOL     OW51530   7.170   8.562   2.854 -0.8608  0.6314  0.6585
16213SOL    HW151531   7.206   8.649   2.873 -1.4547  1.0053  0.1207
16213SOL    HW251532   7.219   8.503   2.911  1.1178  0.9972 -0.5787
16214SOL     OW51533   2.843   9.247   7.859 -0.1303  0.0309 -0.0476
16214SOL    HW151534   2.795   9.302   7.797  0.8565  1.4580  0.4072
16214SOL    HW251535   2.908   9.305   7.897 -0.1790 -1.0304  1.7433
16215SOL     OW51536   5.456   0.391   0.445 -0.0954 -0.3345  0.1904
16215SOL    HW151537   5.380   0.341   0.476 -0.1664 -1.2411 -1.3527
16215SOL    HW251538   5.524   0.325   0.434  0.6210  0.3256  0.5948
16216SOL     OW51539   4.753   4.989   8.944 -0.4612  0.3877  0.3919
16216SOL    HW151540   4.799   5.045   9.006  0.5413  0.0889 -0.0690
16216SOL    HW251541   4.662   5.019   8.947 -0.3942  0.5024  1.8615
16217SOL     OW51542   4.679   6.853   5.244 -0.1988  0.2339  0.4576
16217SOL    HW151543   4.586   6.862   5.223 -0.0648 -0.0228 -0.2555
16217SOL    HW251544   4.687   6.892   5.331 -0.6534  1.8323 -0.1964
16218SOL     OW51545   3.476   6.050   1.320 -0.0855 -0.0514  0.6343
16218SOL    HW151546   3.383   6.031   1.334 -0.1038 -2.3073 -1.8830
16218SOL    HW251547   3.484   6.067   1.227  2.1012 -0.2194  0.7417
16219SOL     OW51548   9.383   8.849   9.118  0.1831 -0.0842 -0.3437
16219SOL    HW151549   9.474   8.824   9.102  0.0284  0.4686 -2.1983
16219SOL    HW251550   9.333   8.772   9.093  0.1233 -0.6820  1.4151
16220SOL     OW51551   4.079   3.270   9.635  0.5447  0.5161 -0.0650
16220SOL    HW151552   4.078   3.245   9.543  1.0441  0.9335 -0.1865
16220SOL    HW251553   3.987   3.283   9.658 -0.0882 -3.6443  0.6340
16221SOL     OW51554   4.233   7.723   0.215  0.1127  0.2606 -0.2806
16221SOL    HW151555   4.280   7.663   0.272  1.6011 -0.5997 -2.2905
16221SOL    HW251556   4.267   7.705   0.127 -2.4030  1.1842 -1.5497
16222SOL     OW51557   5.199   6.337   2.934  0.4259  0.0934 -0.1095
16222SOL    HW151558   5.287   6.371   2.919  1.2572 -0.9362  2.1027
16222SOL    HW251559   5.179   6.361   3.024 -1.5001  0.1165 -0.4940
16223SOL     OW51560   1.220   9.248   1.365  0.5488  0.3903 -0.1586
16223SOL    HW151561   1.154   9.183   1.343  0.2180  0.7849 -0.3489
16223SOL    HW251562   1.206   9.319   1.302 -0.2595  1.4425  1.1538
16224SOL     OW51563   1.053   1.570   7.083  0.0758 -0.1264 -0.6077
16224SOL    HW151564   1.048   1.611   7.169 -1.9902  2.1972 -1.6940
16224SOL    HW251565   1.041   1.476   7.100 -0.2548  0.2668  1.6124
16225SOL     OW51566   9.436   7.011   2.069 -0.1157 -0.6116  0.4233
16225SOL    HW151567   9.353   6.970   2.044 -0.4749 -0.7323  1.7146
16225SOL    HW251568   9.410   7.077   2.134  0.7928 -0.6535  0.8388
16226SOL     OW51569   5.077   8.650   6.829  0.6975  0.5624  0.2200
16226SOL    HW151570   5.166   8.667   6.861  0.8284 -0.8280  0.6943
16226SOL    HW251571   5.076   8.684   6.740  0.4821  4.1065  1.4470
16227SOL     OW51572   7.045   3.683   5.873 -0.3223 -0.1221  0.1501
16227SOL    HW151573   7.006   3.604   5.837 -0.9195 -0.1295  0.7951
16227SOL    HW251574   7.129   3.690   5.828 -0.5441 -0.7606 -0.3882
16228SOL     OW51575   5.239   2.425   1.119  0.3177  0.6358 -0.4406
16228SOL    HW151576   5.255   2.453   1.029  0.5820 -1.4158 -1.0822
16228SOL    HW251577   5.294   2.348   1.130 -0.6874  0.0945  1.0478
16229SOL     OW51578   3.950   6.360   7.404 -0.2104  0.4525 -0.2232
16229SOL    HW151579   3.862   6.352   7.367 -1.3689  2.2268  1.9231
16229SOL    HW251580   3.996   6.420   7.346 -1.5468  2.1427  0.4132
16230SOL     OW51581   3.934   8.448   5.212  0.2384 -0.8342  0.0809
16230SOL    HW151582   3.950   8.449   5.118  0.2609 -0.7818  0.0851
16230SOL    HW251583   3.952   8.538   5.241  0.8045 -0.9900  0.2280
16231SOL     OW51584   6.216   3.907   1.497  0.2022 -0.5674 -0.8342
16231SOL    HW151585   6.261   3.883   1.578 -2.0952 -0.0822  0.6814
16231SOL    HW251586   6.207   4.002   1.502 -2.3652 -0.7573 -0.1981
16232SOL     OW51587   8.090   2.987   6.510 -0.4309 -0.6272 -0.2359
16232SOL    HW151588   8.182   2.966   6.520 -0.6396 -1.5968 -0.2812
16232SOL    HW251589   8.044   2.920   6.560 -1.1412 -0.7133 -0.9832
16233SOL     OW51590   7.782   6.865   1.038 -0.0863  0.1548  0.0205
16233SOL    HW151591   7.836   6.788   1.021 -0.0071 -0.5988  3.0459
16233SOL    HW251592   7.845   6.936   1.051  0.1497 -0.2829  1.5167
16234SOL     OW51593   2.816   3.639   4.073 -0.3854  0.3763  0.7716
16234SOL    HW151594   2.808   3.617   4.166  0.2168  0.7294  0.9143
16234SOL    HW251595   2.846   3.730   4.072  0.1927  0.1858  0.2466
16235SOL     OW51596   5.288   9.527   1.075  0.2897 -0.2917  0.1454
16235SOL    HW151597   5.347   9.573   1.015 -0.0084 -1.9157 -1.5106
16235SOL    HW251598   5.230   9.477   1.017 -0.4610 -1.4308  1.8000
16236SOL     OW51599   4.808   5.001   1.844 -0.0118  0.0718 -0.1635
16236SOL    HW151600   4.753   4.978   1.768 -0.3764 -0.3685  0.2289
16236SOL    HW251601   4.889   4.951   1.831 -0.1537 -0.1611 -0.1624
16237SOL     OW51602   8.688   1.893   9.130 -0.1303 -0.0764 -0.5434
16237SOL    HW151603   8.614   1.899   9.068  0.4559 -1.1712 -1.3749
16237SOL    HW251604   8.731   1.811   9.108  1.4329  0.6111 -0.1581
16238SOL     OW51605   1.777   1.333   7.220 -0.7908 -0.0339 -0.0740
16238SOL    HW151606   1.741   1.422   7.225 -1.0174 -0.1973  1.4753
16238SOL    HW251607   1.846   1.331   7.286  0.7421 -0.3561 -1.6112
16239SOL     OW51608   0.439   0.154   4.673  0.2084  0.0035  0.4056
16239SOL    HW151609   0.361   0.099   4.671 -1.1752  1.6813  2.5940
16239SOL    HW251610   0.496   0.113   4.739  0.3537 -0.2302  0.1341
16240SOL     OW51611   1.813   7.270   3.356  0.7170 -0.6319 -0.1996
16240SOL    HW151612   1.784   7.325   3.429 -0.4804 -2.3563  0.7051
16240SOL    HW251613   1.856   7.330   3.296 -3.7169  2.0776 -1.1336
16241SOL     OW51614   3.077   0.927   2.298 -0.4228 -0.0759 -0.1475
16241SOL    HW151615   3.104   0.876   2.375 -2.1427 -1.0900 -0.1583
16241SOL    HW251616   3.016   0.992   2.332 -0.4783  0.0811 -0.5385
16242SOL     OW51617   0.921   7.772   0.251  0.0125 -0.3519  0.2623
16242SOL    HW151618   0.988   7.744   0.313  0.7707  0.3905 -0.1991
16242SOL    HW251619   0.960   7.846   0.206 -0.4024 -1.0455 -1.3068
16243SOL     OW51620   5.907   7.898   3.015 -0.6838  0.3033 -0.0367
16243SOL    HW151621   5.881   7.878   3.105 -0.3215 -1.0390 -0.2044
16243SOL    HW251622   5.832   7.873   2.962 -0.4373 -0.0799 -0.2077
16244SOL     OW51623   1.193   6.000   4.853 -0.3094  0.5279  0.3161
16244SOL    HW151624   1.150   6.085   4.842 -1.5546 -0.0501  0.5174
16244SOL    HW251625   1.148   5.960   4.927 -0.3009 -0.6434 -0.2910
16245SOL     OW51626   5.840   6.909   0.575  0.3218  0.2433  0.0596
16245SOL    HW151627   5.833   6.856   0.496 -0.0816  0.6188 -0.1656
16245SOL    HW251628   5.883   6.990   0.546  0.7679  0.1147  0.3609
16246SOL     OW51629   7.029   0.651   6.228 -0.1192 -0.0911 -0.3031
16246SOL    HW151630   6.957   0.705   6.197 -0.9316 -0.2676  1.1811
16246SOL    HW251631   7.019   0.568   6.181 -1.2644 -0.3247  0.3140
16247SOL     OW51632   0.083   1.615   5.769  0.2881  0.1917  0.3395
16247SOL    HW151633   0.169   1.595   5.731 -0.9278  0.0613 -2.6401
16247SOL    HW251634   0.053   1.692   5.721 -0.8232  0.9455  2.1380
16248SOL     OW51635   7.508   6.695   0.179  0.2686  0.3395  0.2193
16248SOL    HW151636   7.496   6.617   0.125 -1.2980  0.5151  0.2822
16248SOL    HW251637   7.574   6.747   0.132  0.7059 -0.6279 -0.2532
16249SOL     OW51638   7.916   1.065   7.381  0.0766 -0.1106  0.1145
16249SOL    HW151639   8.007   1.095   7.385  0.4223 -0.9750 -0.7742
16249SOL    HW251640   7.914   0.986   7.435 -0.4372  0.5404  1.0817
16250SOL     OW51641   2.141   8.742   7.583  0.3969  0.2407 -0.3586
16250SOL    HW151642   2.180   8.826   7.604  2.2396 -0.5239 -0.5774
16250SOL    HW251643   2.109   8.752   7.493  1.0875  0.5380 -0.5710
16251SOL     OW51644   9.268   3.034   7.325  0.5769  0.1745  0.4649
16251SOL    HW151645   9.252   2.946   7.357  1.8141 -0.1089  0.3709
16251SOL    HW251646   9.333   3.023   7.255  1.5240  1.2355  1.1288
16252SOL     OW51647   2.989   7.122   3.777 -0.5293  0.0129  0.2934
16252SOL    HW151648   3.025   7.190   3.720 -0.1000  2.2271  2.9967
16252SOL    HW251649   2.895   7.138   3.778 -0.6026 -0.3719 -0.1879
16253SOL     OW51650   0.532   4.341   2.022 -0.0122 -0.4013  0.0846
16253SOL    HW151651   0.599   4.392   2.068 -0.4459 -0.0607  0.3504
16253SOL    HW251652   0.476   4.308   2.091 -0.0082 -0.8473 -0.1245
16254SOL     OW51653   9.575   6.752   1.712  0.8041 -0.2516 -0.6010
16254SOL    HW151654   9.562   6.730   1.804 -0.0704 -2.8612 -1.2513
16254SOL    HW251655   9.531   6.836   1.701  2.4973  1.0601  1.6772
16255SOL     OW51656   2.868   2.975   5.624 -0.2260 -0.6193  0.3726
16255SOL    HW151657   2.963   2.985   5.621 -0.3028  0.2131  0.4697
16255SOL    HW251658   2.846   2.936   5.539  0.1331 -0.1357  0.0470
16256SOL     OW51659   3.373   9.408   8.505  0.1896  0.3723 -0.0936
16256SOL    HW151660   3.385   9.378   8.595  0.0887  2.9464  0.8575
16256SOL    HW251661   3.299   9.357   8.472 -0.6261  0.3171  1.7348
16257SOL     OW51662   0.149   8.705   4.608 -0.2341  0.3030  0.6566
16257SOL    HW151663   0.170   8.615   4.630  0.8011  0.2882 -0.2868
16257SOL    HW251664   0.213   8.729   4.541 -0.6533  1.6534  0.7038
16258SOL     OW51665   9.375   7.802   0.668  0.2360  0.1023  0.9046
16258SOL    HW151666   9.341   7.779   0.754 -1.0506  0.9075  0.6317
16258SOL    HW251667   9.362   7.723   0.615 -0.0204 -0.0111  1.1364
16259SOL     OW51668   5.397   4.654   6.175 -0.6870  0.5732  0.7905
16259SOL    HW151669   5.433   4.658   6.264  2.0748  1.3545 -0.2774
16259SOL    HW251670   5.439   4.577   6.136 -0.3887  1.3246 -0.4094
16260SOL     OW51671   3.534   0.378   8.825  0.6692 -0.0077 -0.5151
16260SOL    HW151672   3.450   0.423   8.830 -0.6911 -2.4130 -0.1170
16260SOL    HW251673   3.547   0.341   8.912  1.8214 -0.2041 -0.7529
16261SOL     OW51674   4.471   4.427   0.065  0.5619  0.4701  0.1121
16261SOL    HW151675   4.423   4.501   0.027  2.3957  1.6643  0.0029
16261SOL    HW251676   4.496   4.373  -0.010  1.5725  1.2288 -0.1264
16262SOL     OW51677   5.239   5.331   4.320 -0.1254 -0.0725  0.2952
16262SOL    HW151678   5.209   5.422   4.309  0.0106  0.1053  1.2849
16262SOL    HW251679   5.280   5.330   4.407  1.0015 -0.7840 -0.2255
16263SOL     OW51680   8.089   8.659   7.878 -0.3130 -0.0530  0.3176
16263SOL    HW151681   8.178   8.683   7.850 -0.8205 -0.7693 -2.1692
16263SOL    HW251682   8.034   8.731   7.849 -0.8474 -0.7633 -0.4972
16264SOL     OW51683   5.749   0.107   3.022  0.0448  0.3703  0.2999
16264SOL    HW151684   5.780   0.165   2.952  0.0387  1.6731  1.3454
16264SOL    HW251685   5.654   0.116   3.020  0.0798  0.9830  0.9264
16265SOL     OW51686   8.713   6.678   4.562 -0.0049 -0.3468 -1.2394
16265SOL    HW151687   8.718   6.650   4.653  0.8626 -0.8118 -1.4186
16265SOL    HW251688   8.712   6.774   4.567  1.6844 -0.3213 -0.7854
16266SOL     OW51689   5.991   3.317   2.955 -0.7318 -0.6719  0.4457
16266SOL    HW151690   6.022   3.323   2.865 -1.1873 -1.8532  0.1974
16266SOL    HW251691   5.895   3.318   2.947 -0.7945 -2.1551  0.7921
16267SOL     OW51692   8.153   6.484   4.244  0.0007 -0.3487 -0.1781
16267SOL    HW151693   8.247   6.486   4.260 -0.2962 -0.2149  1.8043
16267SOL    HW251694   8.139   6.409   4.186  1.0595 -2.0745  1.6743
16268SOL     OW51695   7.233   2.290   5.728  0.1223  0.3189 -0.6891
16268SOL    HW151696   7.177   2.362   5.701 -1.0946 -0.5849 -0.6642
16268SOL    HW251697   7.322   2.320   5.709 -0.4646  1.0115 -2.6082
16269SOL     OW51698   3.287   8.270   2.456  0.6110 -0.0602  0.4126
16269SOL    HW151699   3.205   8.232   2.491  0.4981  0.4498  0.7072
16269SOL    HW251700   3.354   8.243   2.519  0.8840 -1.4430 -0.4187
16270SOL     OW51701   5.346   9.453   4.278 -0.0687 -0.2510  0.2131
16270SOL    HW151702   5.413   9.385   4.269  2.6592  2.3118 -0.4700
16270SOL    HW251703   5.339   9.492   4.191  0.1274  1.7150  1.0087
16271SOL     OW51704   6.788   3.208   2.357 -0.0226 -0.2561  0.6882
16271SOL    HW151705   6.754   3.142   2.296 -0.4071  1.0663 -0.5978
16271SOL    HW251706   6.782   3.166   2.443 -1.7892 -1.3056  0.1251
16272SOL     OW51707   0.579   3.031   0.426 -0.6835 -0.4779  0.2296
16272SOL    HW151708   0.633   3.054   0.502 -1.6671  0.3607  0.6996
16272SOL    HW251709   0.513   3.101   0.421 -0.6928 -0.5647 -1.3488
16273SOL     OW51710   7.971   3.476   3.934 -0.3614  0.4493  0.0034
16273SOL    HW151711   7.993   3.535   3.862  2.3553 -1.8213 -1.2233
16273SOL    HW251712   7.914   3.410   3.894  0.5127 -0.3768  0.0852
16274SOL     OW51713   1.460   2.659   4.709  0.1457  0.0702  0.0685
16274SOL    HW151714   1.552   2.660   4.681 -0.1460  2.2077 -1.0873
16274SOL    HW251715   1.464   2.662   4.805  1.1833 -4.3612  0.3423
16275SOL     OW51716   8.980   1.591   1.660  0.0540  0.0038 -0.0184
16275SOL    HW151717   9.067   1.603   1.698  0.2243  0.6555 -0.5774
16275SOL    HW251718   8.940   1.522   1.712  1.0399 -0.5665  0.0137
16276SOL     OW51719   3.183   2.106   2.366 -0.0961 -0.4409 -0.2065
16276SOL    HW151720   3.135   2.066   2.294 -1.0429 -1.0465  0.7302
16276SOL    HW251721   3.116   2.141   2.424  0.6581  0.3904  0.1966
16277SOL     OW51722   1.071   4.172   7.728 -0.1883  0.1712  0.5832
16277SOL    HW151723   1.097   4.261   7.705 -0.4173  0.6140  1.9330
16277SOL    HW251724   1.129   4.149   7.801  0.5810 -1.1912 -0.4114
16278SOL     OW51725   8.046   4.917   5.803 -0.5345  0.4403  0.5534
16278SOL    HW151726   8.062   4.873   5.887  0.5604  0.4747  0.3807
16278SOL    HW251727   8.111   4.988   5.801  0.1130 -0.1618 -0.7333
16279SOL     OW51728   3.792   3.577   1.617 -0.0575  0.1599 -0.1376
16279SOL    HW151729   3.877   3.596   1.577  0.6501 -1.1821  0.6238
16279SOL    HW251730   3.738   3.547   1.544  0.2710  0.5924 -0.5660
16280SOL     OW51731   0.102   5.184   3.891 -0.1649  0.8982 -0.0795
16280SOL    HW151732   0.042   5.153   3.824  0.6101  1.0305 -0.8571
16280SOL    HW251733   0.189   5.164   3.856  0.2521  1.0967  0.8223
16281SOL     OW51734   4.145   6.588   6.889 -0.9572  0.2351 -0.7083
16281SOL    HW151735   4.176   6.582   6.798 -0.1740  1.5007 -0.5524
16281SOL    HW251736   4.221   6.565   6.942 -1.6193 -1.2368 -0.3590
16282SOL     OW51737   2.554   3.469   9.632  0.5181  0.5210 -0.0867
16282SOL    HW151738   2.488   3.465   9.563 -0.7139 -0.0280  1.0759
16282SOL    HW251739   2.631   3.427   9.594 -0.0477  0.4721 -1.2145
16283SOL     OW51740   5.511   4.650   2.343  0.6073  0.0862 -0.4693
16283SOL    HW151741   5.494   4.739   2.374 -0.4720 -0.1786 -0.2917
16283SOL    HW251742   5.430   4.623   2.301  1.2811 -0.4268 -1.4873
16284SOL     OW51743   8.575   5.623   8.676  0.4077  0.3796 -0.1018
16284SOL    HW151744   8.589   5.689   8.608  2.2538  1.5854  1.3350
16284SOL    HW251745   8.481   5.623   8.691  0.1938  1.4948 -1.2766
16285SOL     OW51746   3.425   6.788   8.604  0.5128  0.1991 -0.3546
16285SOL    HW151747   3.496   6.726   8.617  0.6398  0.5317  0.6720
16285SOL    HW251748   3.376   6.754   8.530  0.7640 -0.9466 -0.0106
16286SOL     OW51749   7.986   1.443   0.527 -0.6494  0.0858  0.6253
16286SOL    HW151750   7.918   1.375   0.523 -0.4310 -0.3002  2.3820
16286SOL    HW251751   8.066   1.399   0.500 -1.1565  0.7297 -2.1782
16287SOL     OW51752   8.794   2.895   7.105  0.4595  0.0972  0.2920
16287SOL    HW151753   8.796   2.814   7.154  0.8846  0.8065  1.4861
16287SOL    HW251754   8.744   2.956   7.160  0.7767  0.8593 -0.2371
16288SOL     OW51755   5.031   7.870   3.555 -0.0923 -0.2774 -0.3710
16288SOL    HW151756   5.019   7.901   3.466  1.1463 -1.7204 -1.0915
16288SOL    HW251757   5.064   7.945   3.604 -0.9701  0.5732 -1.0633
16289SOL     OW51758   7.824   9.578   8.918  0.0491  0.6970  0.7617
16289SOL    HW151759   7.788   9.666   8.932 -1.0518  0.2760  0.6416
16289SOL    HW251760   7.893   9.590   8.854  0.6180  1.6338  1.5210
16290SOL     OW51761   6.889   3.224   3.568 -0.2214  0.0647 -0.1360
16290SOL    HW151762   6.900   3.205   3.661 -0.9384 -1.8783 -0.4073
16290SOL    HW251763   6.925   3.147   3.523 -1.8098 -0.0133 -1.3922
16291SOL     OW51764   2.928   5.829   5.576 -0.1863 -0.4965  0.0442
16291SOL    HW151765   3.012   5.873   5.563 -0.4937  0.0931  0.0260
16291SOL    HW251766   2.949   5.736   5.572  0.1855 -0.3680 -1.7379
16292SOL     OW51767   0.485   0.539   9.123 -0.8077 -0.0214 -0.2653
16292SOL    HW151768   0.407   0.563   9.074 -0.0042 -2.1372 -2.8304
16292SOL    HW251769   0.462   0.457   9.167 -0.1192 -0.6162 -0.9714
16293SOL     OW51770   0.232   6.415   8.554 -0.3105 -0.1887 -0.1778
16293SOL    HW151771   0.208   6.331   8.515 -2.7914 -0.0281  0.8000
16293SOL    HW251772   0.268   6.393   8.639  0.4803 -0.3190 -0.5427
16294SOL     OW51773   2.018   0.296   3.102 -0.1232  0.0123 -0.0353
16294SOL    HW151774   2.047   0.294   3.193  0.1629  0.4613 -0.1144
16294SOL    HW251775   1.928   0.328   3.106  0.0994  0.6336  0.0410
16295SOL     OW51776   9.391   9.594   9.341  0.4271  0.0688  0.0266
16295SOL    HW151777   9.484   9.590   9.319  0.9893  0.4913  2.1078
16295SOL    HW251778   9.388   9.579   9.436 -1.3510  2.6587  0.4999
16296SOL     OW51779   4.215   3.737   4.451  0.1795 -0.1296  0.1787
16296SOL    HW151780   4.123   3.721   4.429  0.7244 -1.8850 -1.0574
16296SOL    HW251781   4.238   3.665   4.510  1.1625 -0.6606 -0.8136
16297SOL     OW51782   3.813   1.694   6.370  0.1351 -0.4473 -0.2728
16297SOL    HW151783   3.763   1.637   6.429  1.1351 -0.5847  0.4560
16297SOL    HW251784   3.898   1.705   6.413  0.7167 -0.1628 -1.4608
16298SOL     OW51785   5.009   1.698   1.754 -0.1008 -0.3299 -0.0435
16298SOL    HW151786   4.920   1.713   1.723  0.4776  1.7273 -0.8718
16298SOL    HW251787   5.055   1.780   1.735  2.2531 -1.6934 -0.6003
16299SOL     OW51788   6.709   8.057   6.166 -0.5678  0.5100  0.0122
16299SOL    HW151789   6.766   8.126   6.130  2.4761 -0.3154  2.7339
16299SOL    HW251790   6.699   7.994   6.095  2.4613  0.4605 -0.4882
16300SOL     OW51791   1.372   9.451   4.711 -0.0007  0.1520 -0.7143
16300SOL    HW151792   1.422   9.471   4.632  0.3135 -0.1921 -0.6073
16300SOL    HW251793   1.303   9.392   4.682 -0.5422  0.8643 -0.9166
16301SOL     OW51794   0.133   0.953   3.146 -0.2498  0.0369  0.4907
16301SOL    HW151795   0.159   0.862   3.130  0.6034 -0.1617  2.6823
16301SOL    HW251796   0.147   0.997   3.062  0.5060 -1.5781 -0.2708
16302SOL     OW51797   3.884   4.302   2.931 -0.4531 -0.5837 -0.4157
16302SOL    HW151798   3.905   4.267   2.845 -0.8356  1.1121 -1.2243
16302SOL    HW251799   3.912   4.393   2.928 -1.4805 -0.1926  0.8783
16303SOL     OW51800   2.066   0.222   7.455  0.1137 -0.0186 -0.0094
16303SOL    HW151801   1.980   0.256   7.431  0.2434 -0.1013 -0.6025
16303SOL    HW251802   2.050   0.171   7.535 -0.3081  0.3191  0.1267
16304SOL     OW51803   5.993   0.358   9.158  0.0828 -0.0681 -0.4038
16304SOL    HW151804   6.061   0.402   9.106 -1.0862  1.4035 -0.7744
16304SOL    HW251805   5.943   0.308   9.094 -1.0360  1.3231 -0.6501
16305SOL     OW51806   8.799   7.003   4.466 -0.2957  0.2337 -0.0012
16305SOL    HW151807   8.768   6.979   4.553 -2.0110 -0.1098 -0.6603
16305SOL    HW251808   8.817   7.097   4.472 -0.5234  0.2389  0.6855
16306SOL     OW51809   4.181   0.906   5.532  0.5969  0.1445 -0.4465
16306SOL    HW151810   4.138   0.850   5.467 -1.9430  0.3985  0.9004
16306SOL    HW251811   4.211   0.845   5.600 -0.5375  0.2225  0.1421
16307SOL     OW51812   0.834   4.169   7.876 -0.5544  0.1243 -0.2246
16307SOL    HW151813   0.776   4.219   7.819 -1.5350 -0.3586  0.3316
16307SOL    HW251814   0.917   4.166   7.828 -1.2430  0.0571 -1.4583
16308SOL     OW51815   7.479   6.235   2.174 -0.0172 -0.3189 -0.2279
16308SOL    HW151816   7.458   6.290   2.249  0.5753 -0.0142 -0.2743
16308SOL    HW251817   7.423   6.267   2.104 -1.5261 -1.4615  0.4101
16309SOL     OW51818   5.013   8.476   3.293  0.4536 -0.5298 -0.0059
16309SOL    HW151819   5.003   8.426   3.374 -1.9218 -2.2863 -1.2403
16309SOL    HW251820   5.081   8.429   3.244  1.3922  0.1269  0.6297
16310SOL     OW51821   8.961   8.146   3.631  0.2737  0.7845  0.4119
16310SOL    HW151822   8.882   8.162   3.683  0.4106 -0.2739  0.9870
16310SOL    HW251823   8.942   8.183   3.545 -0.8479  0.5530  0.5467
16311SOL     OW51824   4.551   5.113   2.450  0.0655  0.4102 -0.0265
16311SOL    HW151825   4.600   5.031   2.446  1.2300  1.0597  0.6988
16311SOL    HW251826   4.495   5.111   2.372  0.6086 -0.7272 -0.4035
16312SOL     OW51827   8.733   7.594   6.962  0.6928 -0.1254  0.0372
16312SOL    HW151828   8.693   7.507   6.966  2.3980 -0.9135  1.0185
16312SOL    HW251829   8.750   7.616   7.053  0.8851  0.9589 -0.2552
16313SOL     OW51830   4.203   1.848   1.284  0.1449 -0.6643 -0.4266
16313SOL    HW151831   4.125   1.901   1.268 -0.1344 -0.7831  0.4849
16313SOL    HW251832   4.224   1.810   1.198  0.1438  0.6145 -1.0063
16314SOL     OW51833   7.748   0.739   3.569 -0.3490 -0.6079  0.2694
16314SOL    HW151834   7.787   0.825   3.584 -0.2848 -0.4787 -0.6285
16314SOL    HW251835   7.791   0.683   3.634  0.0597 -0.0974  0.4489
16315SOL     OW51836   1.902   9.632   0.931  0.1797 -0.2299  0.2032
16315SOL    HW151837   1.878   9.582   0.853  2.3397 -0.2603 -0.5082
16315SOL    HW251838   1.981   9.590   0.964 -0.1326  0.3809  1.8699
16316SOL     OW51839   5.620   0.943   4.027  0.2754  0.4012 -0.1829
16316SOL    HW151840   5.669   0.977   4.102  1.2863  0.7705 -1.0033
16316SOL    HW251841   5.670   0.868   3.997  0.6751  1.1232 -1.3801
16317SOL     OW51842   7.051   8.839   9.342 -0.7044 -0.4218 -0.6645
16317SOL    HW151843   7.092   8.905   9.398 -2.3501 -1.0250  1.3836
16317SOL    HW251844   7.124   8.798   9.295  0.6992  0.4893  0.6388
16318SOL     OW51845   5.616   6.542   7.234  0.0728 -0.1500 -0.2673
16318SOL    HW151846   5.647   6.597   7.305 -1.8457 -0.6306  1.0133
16318SOL    HW251847   5.667   6.571   7.158  0.8464  1.6870  0.8709
16319SOL     OW51848   4.484   3.042   0.163  0.1133  0.2644  0.5209
16319SOL    HW151849   4.458   3.130   0.135 -1.4995  0.3776  2.1638
16319SOL    HW251850   4.563   3.022   0.112 -0.2612  2.1019 -0.8652
16320SOL     OW51851   5.106   5.983   4.825 -0.3014  0.4696  0.1656
16320SOL    HW151852   5.016   5.990   4.857 -1.1485  0.3451 -2.0311
16320SOL    HW251853   5.106   5.905   4.770  0.7325  1.3466 -1.1272
16321SOL     OW51854   7.007   5.317   5.694  0.1186 -0.1157 -0.2487
16321SOL    HW151855   6.920   5.299   5.730  1.0404  0.7206  2.6708
16321SOL    HW251856   7.064   5.255   5.739  1.3043  0.6253 -0.7080
16322SOL     OW51857   5.411   5.951   8.837 -0.1443  0.2260  0.3836
16322SOL    HW151858   5.431   5.903   8.917 -2.1514  0.1969  0.9205
16322SOL    HW251859   5.315   5.957   8.835 -0.4225 -2.1084 -3.3558
16323SOL     OW51860   8.708   1.979   6.304  0.5231  0.3951  0.4397
16323SOL    HW151861   8.668   1.901   6.342  1.3014 -0.1047  0.2508
16323SOL    HW251862   8.687   2.050   6.365 -0.2439  0.0509  0.5749
16324SOL     OW51863   0.645   0.779   6.756  0.2173 -0.1365  0.0066
16324SOL    HW151864   0.612   0.773   6.667  1.2144 -1.8869 -0.2953
16324SOL    HW251865   0.705   0.854   6.754 -1.4395  1.2370 -0.1700
16325SOL     OW51866   6.219   3.730   2.918 -0.1488  0.2323 -0.4024
16325SOL    HW151867   6.245   3.761   3.005  1.4446  1.8816 -1.3966
16325SOL    HW251868   6.124   3.726   2.922 -0.1757  1.3008  1.0952
16326SOL     OW51869   6.304   3.139   9.502 -0.1084 -0.2353 -0.7539
16326SOL    HW151870   6.356   3.080   9.557  1.5677  0.1343 -1.8755
16326SOL    HW251871   6.254   3.081   9.444 -2.1014 -0.6414  1.2292
16327SOL     OW51872   3.134   9.541   0.564  0.1412 -0.3582  0.4889
16327SOL    HW151873   3.228   9.536   0.548 -0.1958 -0.4511 -1.7912
16327SOL    HW251874   3.095   9.498   0.488 -1.7588  0.0866  1.1717
16328SOL     OW51875   0.433   3.246   8.460 -0.6006  0.0322 -0.0792
16328SOL    HW151876   0.399   3.157   8.471 -0.5116  0.0082  0.0088
16328SOL    HW251877   0.462   3.250   8.369  1.5656 -0.8007  0.5156
16329SOL     OW51878   5.234   2.730   3.706 -0.3510  0.3432 -0.1427
16329SOL    HW151879   5.311   2.694   3.751 -0.6873  0.1713  0.3147
16329SOL    HW251880   5.253   2.823   3.697  0.6112  0.0319 -1.5067
16330SOL     OW51881   7.415   7.239   1.051 -0.1965  0.0372  0.9217
16330SOL    HW151882   7.404   7.321   1.099 -1.9166  0.1599  0.4069
16330SOL    HW251883   7.367   7.253   0.969  1.2757 -0.7499 -0.1095
16331SOL     OW51884   5.807   7.109   6.099  0.7329 -0.2249  0.3759
16331SOL    HW151885   5.791   7.180   6.037 -2.1043 -0.0445  1.1481
16331SOL    HW251886   5.832   7.035   6.044 -0.5676  0.2366 -0.9297
16332SOL     OW51887   3.698   4.960   6.573 -0.6450  0.3432 -0.0072
16332SOL    HW151888   3.700   4.871   6.536  1.2380  0.4364 -0.2246
16332SOL    HW251889   3.644   5.010   6.512 -1.0294 -0.4551 -0.3408
16333SOL     OW51890   8.603   8.532   6.015  0.0447 -0.6590 -0.0586
16333SOL    HW151891   8.661   8.574   6.078  0.5396 -0.8859 -0.3516
16333SOL    HW251892   8.530   8.593   6.004  1.4676  0.8871 -1.6308
16334SOL     OW51893   3.317   6.642   6.205  0.3054 -0.5533  0.1169
16334SOL    HW151894   3.254   6.629   6.134  0.0313 -1.0125  0.4390
16334SOL    HW251895   3.290   6.580   6.273 -1.0455  1.6693  1.7406
16335SOL     OW51896   5.130   6.422   3.220  0.2400 -0.1402  0.5663
16335SOL    HW151897   5.092   6.413   3.307  0.8446 -0.7166  0.7800
16335SOL    HW251898   5.225   6.416   3.234  0.3347 -0.4644 -0.1451
16336SOL     OW51899   3.881   1.869   1.876 -0.0970 -0.3880 -0.1525
16336SOL    HW151900   3.800   1.889   1.924 -2.0139  0.6866 -3.5178
16336SOL    HW251901   3.866   1.781   1.840 -0.3705  0.3172 -1.8270
16337SOL     OW51902   6.902   5.939   6.259  0.6419  0.6494 -0.3225
16337SOL    HW151903   6.991   5.906   6.257  0.6760  0.6426  0.7667
16337SOL    HW251904   6.900   6.008   6.192  1.9483  1.8199  0.7770
16338SOL     OW51905   2.168   6.033   2.199 -0.7096  0.3748 -0.0964
16338SOL    HW151906   2.251   6.021   2.153  0.0632  2.0176  0.7987
16338SOL    HW251907   2.129   6.111   2.158 -1.7377 -0.2763 -0.3903
16339SOL     OW51908   0.779   5.461   1.593 -0.2370  0.3425  0.1125
16339SOL    HW151909   0.752   5.392   1.533 -0.7820  1.4378 -0.9441
16339SOL    HW251910   0.864   5.431   1.627 -0.1956 -0.5734 -0.7546
16340SOL     OW51911   7.979   4.484   4.520 -0.1363 -0.3932 -0.2951
16340SOL    HW151912   7.978   4.472   4.615 -2.5599  1.5889  0.0138
16340SOL    HW251913   8.070   4.507   4.501  0.4375 -0.9619  1.4929
16341SOL     OW51914   6.521   0.481   5.258  0.0272  0.4277  0.0625
16341SOL    HW151915   6.462   0.488   5.183  0.7914  2.7740 -0.4178
16341SOL    HW251916   6.599   0.437   5.223 -0.2098  0.1327 -0.1027
16342SOL     OW51917   2.183   1.219   7.395 -0.6203  0.1705 -0.6425
16342SOL    HW151918   2.108   1.273   7.420 -0.1750  1.0245 -1.1376
16342SOL    HW251919   2.204   1.170   7.475  0.0450  1.9958  0.3504
16343SOL     OW51920   3.764   1.860   2.823 -0.6979  0.5096 -0.1254
16343SOL    HW151921   3.697   1.926   2.839 -1.6912 -0.1660 -1.3734
16343SOL    HW251922   3.730   1.780   2.863  0.2031  0.5745  0.8122
16344SOL     OW51923   0.680   0.414   6.191  0.7948 -0.5920 -0.6434
16344SOL    HW151924   0.718   0.433   6.105  1.2145 -0.8105 -0.5075
16344SOL    HW251925   0.601   0.364   6.170 -0.6244  1.6739 -1.0276
16345SOL     OW51926   7.269   8.872   5.522  0.0951 -0.1156 -0.5259
16345SOL    HW151927   7.323   8.950   5.525 -0.7099  0.4948 -1.3991
16345SOL    HW251928   7.295   8.827   5.441 -0.2416 -0.1521 -0.6179
16346SOL     OW51929   7.043   8.085   7.745 -0.3318 -0.8313  0.2775
16346SOL    HW151930   7.035   8.031   7.666 -0.2882  0.4088 -0.5986
16346SOL    HW251931   7.065   8.172   7.713 -0.8492 -0.1684  1.6336
16347SOL     OW51932   4.969   8.724   8.811 -0.0259 -0.5686 -0.0465
16347SOL    HW151933   4.982   8.687   8.898 -1.1107  0.7638  0.7372
16347SOL    HW251934   4.925   8.655   8.762 -1.2931 -0.6449  1.1311
16348SOL     OW51935   3.516   1.010   5.864 -0.1309 -0.7219 -0.1641
16348SOL    HW151936   3.568   0.933   5.888  0.3612 -0.2623  0.2719
16348SOL    HW251937   3.506   1.004   5.769 -0.2291 -1.4009 -0.1138
16349SOL     OW51938   2.251   1.101   7.614 -0.1681  0.1069 -0.4363
16349SOL    HW151939   2.328   1.092   7.671 -0.1313  2.0130 -0.1248
16349SOL    HW251940   2.185   1.044   7.654  0.3809  0.1681  0.5944
16350SOL     OW51941   2.924   1.650   5.646  0.1564 -0.5609 -0.4531
16350SOL    HW151942   2.865   1.724   5.663  0.0280 -0.9134  0.6980
16350SOL    HW251943   2.887   1.608   5.568 -1.0553 -0.7031  0.1682
16351SOL     OW51944   6.707   7.897   3.370  0.1814  0.7528 -0.2452
16351SOL    HW151945   6.730   7.808   3.394 -2.0381 -0.2228 -1.4343
16351SOL    HW251946   6.728   7.950   3.447  1.6028 -0.7420  0.4459
16352SOL     OW51947   9.570   3.808   1.358 -0.1706  0.4203  0.1187
16352SOL    HW151948   9.596   3.788   1.268 -0.0447  2.5083 -0.3758
16352SOL    HW251949   9.477   3.785   1.362  0.3326 -1.7574  0.1620
16353SOL     OW51950   6.630   6.535   0.958  0.1116 -0.2759 -0.1776
16353SOL    HW151951   6.681   6.565   0.883  0.2444  0.6260  0.2623
16353SOL    HW251952   6.658   6.591   1.031  0.0524 -1.1949  0.5724
16354SOL     OW51953   5.262   5.569   6.499 -0.0613  0.3508 -0.1672
16354SOL    HW151954   5.287   5.541   6.411 -1.5567  1.4401 -0.9717
16354SOL    HW251955   5.289   5.661   6.503 -0.0700  0.3276  0.4895
16355SOL     OW51956   4.730   7.215   6.670 -0.0538 -0.6278  0.6293
16355SOL    HW151957   4.650   7.162   6.671 -0.4156 -0.0877  0.5977
16355SOL    HW251958   4.720   7.271   6.594  0.2518 -0.3930  0.7629
16356SOL     OW51959   1.575   3.605   1.646 -0.3444 -0.3951  0.4482
16356SOL    HW151960   1.599   3.627   1.736 -0.3146  0.7327  0.1782
16356SOL    HW251961   1.596   3.684   1.595 -2.3717 -0.2112 -0.1904
16357SOL     OW51962   1.903   1.063   4.064 -0.7552  0.8946 -0.0469
16357SOL    HW151963   1.858   1.064   3.980  0.9503  1.5640 -1.0160
16357SOL    HW251964   1.931   0.972   4.075 -1.2934  0.7280 -0.0119
16358SOL     OW51965   2.384   7.592   5.785  0.7854  0.9764  0.0004
16358SOL    HW151966   2.332   7.533   5.730 -1.3845  1.8235  1.0369
16358SOL    HW251967   2.429   7.533   5.846  0.6018  0.2488 -0.5481
16359SOL     OW51968   3.036   0.895   7.279  0.1444  0.0851  0.7984
16359SOL    HW151969   3.039   0.799   7.279 -1.1280  0.0362  0.6869
16359SOL    HW251970   3.052   0.919   7.188  0.9836  0.0113  0.9171
16360SOL     OW51971   3.207   2.303   5.246 -0.0820  0.1770 -0.2200
16360SOL    HW151972   3.215   2.270   5.156 -0.8519 -0.0835 -0.1967
16360SOL    HW251973   3.240   2.231   5.300  1.4039  0.7343 -0.3275
16361SOL     OW51974   1.457   2.776   7.573 -0.3441  0.1734  0.0629
16361SOL    HW151975   1.435   2.812   7.659 -0.1617 -1.7529  0.9631
16361SOL    HW251976   1.377   2.789   7.521 -0.7205  0.6814  0.7519
16362SOL     OW51977   6.853   3.268   3.895  0.4316 -0.5092 -0.2149
16362SOL    HW151978   6.828   3.360   3.884  1.6927 -0.0927  0.2674
16362SOL    HW251979   6.770   3.223   3.913 -0.2152  0.5074 -0.5678
16363SOL     OW51980   2.415   3.823   3.331  0.0305  0.2702  0.1058
16363SOL    HW151981   2.399   3.798   3.240  1.9019 -1.3440  0.1688
16363SOL    HW251982   2.504   3.857   3.331  0.3706 -0.5628  1.4765
16364SOL     OW51983   6.656   6.759   5.543  0.3274 -0.2310 -0.3623
16364SOL    HW151984   6.690   6.846   5.523 -0.0902  0.2398  0.9051
16364SOL    HW251985   6.734   6.708   5.567  0.4292  0.1515  0.1289
16365SOL     OW51986   8.733   3.553   0.016 -0.4714 -0.1184  0.0003
16365SOL    HW151987   8.775   3.622  -0.036 -2.3661  0.1626 -1.2426
16365SOL    HW251988   8.774   3.472  -0.016 -0.2925  0.2093 -0.6244
16366SOL     OW51989   8.921   2.540   1.366 -0.0674 -0.2214 -0.0473
16366SOL    HW151990   8.862   2.477   1.325 -2.6506  0.4336  2.3705
16366SOL    HW251991   8.981   2.487   1.419 -0.7107 -0.7794  0.1354
16367SOL     OW51992   8.638   4.758   0.543 -0.9087 -0.5817 -0.0087
16367SOL    HW151993   8.565   4.716   0.498  0.0923 -3.6128  0.9433
16367SOL    HW251994   8.714   4.705   0.520  0.7813  1.6100  0.1862
16368SOL     OW51995   3.155   2.400   2.314  0.2055 -0.2953  0.3950
16368SOL    HW151996   3.134   2.325   2.370 -1.5872  0.1519  0.3676
16368SOL    HW251997   3.194   2.360   2.236 -2.2418 -1.4225 -0.3652
16369SOL     OW51998   0.558   3.288   7.516  0.3739  0.1934 -0.9012
16369SOL    HW151999   0.531   3.341   7.441 -1.5677  2.4988  1.2199
16369SOL    HW252000   0.636   3.332   7.550 -0.7967  1.3636  0.4126
16370SOL     OW52001   0.893   0.309   5.242  0.0461  0.0259 -0.1439
16370SOL    HW152002   0.815   0.287   5.293  0.1750 -0.0528  0.0205
16370SOL    HW252003   0.966   0.287   5.300  0.1990 -0.4483 -0.5176
16371SOL     OW52004   4.890   3.619   7.846 -0.2734  0.4098  0.1588
16371SOL    HW152005   4.843   3.537   7.865  1.2495 -0.6386 -0.4633
16371SOL    HW252006   4.926   3.645   7.930  1.2226 -0.8691 -0.0468
16372SOL     OW52007   0.367   0.293   9.225  0.5350 -0.2270 -0.1946
16372SOL    HW152008   0.376   0.215   9.281 -0.3516 -0.9060 -0.9703
16372SOL    HW252009   0.379   0.259   9.136  0.5896  0.6129 -0.5105
16373SOL     OW52010   8.923   6.553   1.550  0.1703  0.0374 -0.7852
16373SOL    HW152011   8.853   6.584   1.493  0.2010  0.6206 -0.5093
16373SOL    HW252012   8.884   6.553   1.637 -0.0799 -1.4522 -0.8569
16374SOL     OW52013   0.470   3.758   6.217  0.0377  0.7763 -0.4445
16374SOL    HW152014   0.444   3.763   6.125 -1.2708  1.2609 -0.0772
16374SOL    HW252015   0.541   3.821   6.226 -0.2876  1.2231 -0.9814
16375SOL     OW52016   1.279   5.684   2.199  0.4489  0.6208  0.5610
16375SOL    HW152017   1.310   5.662   2.112 -0.1577  0.5779  0.3524
16375SOL    HW252018   1.309   5.774   2.213 -1.4332  1.4884 -0.6390
16376SOL     OW52019   7.377   5.433   6.366  0.6359  0.4765  0.2973
16376SOL    HW152020   7.465   5.472   6.371  0.7138  0.2621  0.6935
16376SOL    HW252021   7.346   5.434   6.457  0.6380 -0.3668  0.3205
16377SOL     OW52022   5.731   5.563   7.834  0.0342 -0.4318 -0.0159
16377SOL    HW152023   5.656   5.595   7.885  0.2338 -1.0040  0.6407
16377SOL    HW252024   5.773   5.643   7.802 -0.2110 -0.0692  0.5449
16378SOL     OW52025   3.244   6.205   2.825  0.4318  0.0148  0.2523
16378SOL    HW152026   3.158   6.229   2.788 -0.9635 -3.5374  0.7766
16378SOL    HW252027   3.256   6.265   2.898 -2.1334  0.0460  0.7611
16379SOL     OW52028   6.693   7.377   8.255  0.1902  0.0029 -0.0651
16379SOL    HW152029   6.761   7.400   8.319  0.8533 -1.9982 -0.0095
16379SOL    HW252030   6.643   7.307   8.297  0.3783 -1.0635 -1.5482
16380SOL     OW52031   2.492   2.157   5.183 -0.0641 -0.2040 -0.1546
16380SOL    HW152032   2.511   2.240   5.138 -1.2069 -0.4306 -1.1048
16380SOL    HW252033   2.566   2.101   5.163 -0.4138 -0.2027 -1.5756
16381SOL     OW52034   3.408   0.891   9.611  0.1203  0.0527 -0.2417
16381SOL    HW152035   3.445   0.876   9.525 -0.6351  1.4181 -0.8329
16381SOL    HW252036   3.339   0.956   9.597 -1.0654 -0.8286  1.1442
16382SOL     OW52037   0.181   3.071   7.016  0.1372 -0.4897 -0.2644
16382SOL    HW152038   0.153   2.980   7.030 -1.5955 -0.1327 -1.1204
16382SOL    HW252039   0.136   3.097   6.936 -1.8140  2.0491  1.5085
16383SOL     OW52040   6.598   5.493   6.900  0.0306 -0.2131  0.2987
16383SOL    HW152041   6.649   5.507   6.821  0.4114 -0.3633  0.5176
16383SOL    HW252042   6.593   5.579   6.941  2.4168 -0.6441  1.6739
16384SOL     OW52043   0.138   2.514   0.382  0.1451  0.1415 -0.2076
16384SOL    HW152044   0.059   2.513   0.328 -0.0572 -0.0017  0.0951
16384SOL    HW252045   0.209   2.526   0.319 -0.1036  0.1180 -0.4944
16385SOL     OW52046   3.264   9.104   2.682  0.3175 -0.2138 -0.0609
16385SOL    HW152047   3.272   9.009   2.687  2.3321 -0.1659 -1.3023
16385SOL    HW252048   3.331   9.137   2.743  0.7743  0.3774 -0.8594
16386SOL     OW52049   6.686   0.449   5.661 -0.6789  0.9081  0.2928
16386SOL    HW152050   6.752   0.516   5.676 -0.1261  0.7443 -1.2320
16386SOL    HW252051   6.661   0.420   5.749  0.4454  1.7676  0.9235
16387SOL     OW52052   5.989   6.315   4.815  0.2715  0.0006  0.6150
16387SOL    HW152053   5.968   6.409   4.820  0.0925  0.0820 -1.0382
16387SOL    HW252054   5.933   6.282   4.744 -1.1077 -1.8065  2.4264
16388SOL     OW52055   1.322   2.633   7.876  0.4029  0.2331 -0.3644
16388SOL    HW152056   1.260   2.616   7.805 -1.3985 -1.0682  1.4079
16388SOL    HW252057   1.401   2.585   7.851 -0.3372 -0.5562 -1.2862
16389SOL     OW52058   1.282   6.511   1.656 -0.1356  0.5037 -0.1752
16389SOL    HW152059   1.270   6.508   1.751  1.9833  1.0517  0.1676
16389SOL    HW252060   1.374   6.535   1.645 -0.4845  0.9928 -2.3781
16390SOL     OW52061   5.884   5.977   4.886  0.0026  0.0486 -0.3355
16390SOL    HW152062   5.977   5.983   4.864 -0.2812  1.4808 -1.2676
16390SOL    HW252063   5.846   5.926   4.814  0.3013 -2.0576  0.9228
16391SOL     OW52064   8.778   1.980   1.847 -0.4859  0.0640  0.0905
16391SOL    HW152065   8.786   2.050   1.911 -1.0719 -0.3394  0.6261
16391SOL    HW252066   8.835   1.911   1.879 -0.3664  0.0649 -0.1171
16392SOL     OW52067   5.078   1.785   7.500  0.4591  0.1273  0.0444
16392SOL    HW152068   5.129   1.764   7.422  1.1588 -0.1385  0.5645
16392SOL    HW252069   5.021   1.857   7.473  1.4339  0.7379 -0.4248
16393SOL     OW52070   7.192   5.581   1.028 -0.2228 -0.2457 -0.3151
16393SOL    HW152071   7.208   5.667   0.989 -0.3636 -0.2069 -0.2886
16393SOL    HW252072   7.181   5.599   1.121  0.1757 -0.3456 -0.2488
16394SOL     OW52073   8.588   2.278   9.133 -0.0919 -0.3779 -0.4537
16394SOL    HW152074   8.601   2.190   9.098 -1.5501 -1.2708  1.1153
16394SOL    HW252075   8.655   2.287   9.201  0.1603 -0.2031 -0.7224
16395SOL     OW52076   7.603   9.287   8.273  0.4017  0.1123  0.3076
16395SOL    HW152077   7.654   9.286   8.192  1.2730  0.8903  0.8188
16395SOL    HW252078   7.592   9.195   8.296 -1.3618 -0.2005 -1.5835
16396SOL     OW52079   3.415   5.687   4.054 -0.2142  0.3390  0.1380
16396SOL    HW152080   3.496   5.651   4.017 -0.3778 -0.1648  0.2505
16396SOL    HW252081   3.443   5.738   4.130  0.0344  0.5096 -0.0681
16397SOL     OW52082   8.687   0.411   0.651 -0.3586  0.6302  0.0165
16397SOL    HW152083   8.771   0.376   0.679  0.0715 -0.0631 -2.0019
16397SOL    HW252084   8.697   0.429   0.558 -1.7844  2.5869  0.1675
16398SOL     OW52085   3.244   1.860   2.505 -0.3832  0.5203 -0.2967
16398SOL    HW152086   3.220   1.900   2.588  1.6848  2.5756 -0.5666
16398SOL    HW252087   3.237   1.932   2.442  0.7037 -0.2724 -1.3708
16399SOL     OW52088   6.981   0.640   3.673 -0.4581  0.4099 -0.2002
16399SOL    HW152089   6.978   0.727   3.713  0.7425  1.0110 -1.3256
16399SOL    HW252090   7.066   0.604   3.700  0.0207  0.5068 -1.5007
16400SOL     OW52091   5.251   9.011   2.755  0.1166 -0.3474  0.1368
16400SOL    HW152092   5.261   9.083   2.817 -1.1988  0.1312 -0.1750
16400SOL    HW252093   5.221   9.053   2.674  0.0105 -1.1664 -0.2605
16401SOL     OW52094   6.476   1.162   2.038  0.4773 -0.5482  0.0414
16401SOL    HW152095   6.396   1.172   1.987  0.5665  0.4652  0.0898
16401SOL    HW252096   6.500   1.070   2.026 -0.6869 -0.8661  0.0355
16402SOL     OW52097   1.161   4.642   5.894  0.0921 -0.6606  0.1928
16402SOL    HW152098   1.186   4.706   5.961  0.3343 -0.4564 -0.0883
16402SOL    HW252099   1.107   4.578   5.941 -1.6674  0.7105  0.1025
16403SOL     OW52100   4.051   1.974   2.755  0.5142 -0.4251  0.2686
16403SOL    HW152101   4.103   1.894   2.749 -0.4458 -1.1946  1.4890
16403SOL    HW252102   3.976   1.950   2.810 -1.7195  0.3319 -2.1969
16404SOL     OW52103   0.061   3.957   6.243 -0.7250 -0.2483 -0.4277
16404SOL    HW152104   0.139   4.011   6.237 -0.9021 -0.0510 -1.0815
16404SOL    HW252105   0.001   3.994   6.178 -0.7842 -1.3170 -1.0214
16405SOL     OW52106   8.678   8.534   0.626 -0.3928  0.2511  0.0421
16405SOL    HW152107   8.746   8.552   0.561 -1.6769 -0.3031 -1.5040
16405SOL    HW252108   8.619   8.609   0.621 -0.5978  0.1180  0.4379
16406SOL     OW52109   8.642   5.867   0.935 -1.2137 -0.6359 -0.2466
16406SOL    HW152110   8.653   5.815   1.015 -0.4163 -2.6710 -1.5817
16406SOL    HW252111   8.699   5.942   0.947  1.2539 -2.4283 -0.0628
16407SOL     OW52112   7.328   7.349   9.172 -0.1973 -0.3762 -0.0198
16407SOL    HW152113   7.355   7.308   9.090  0.6287  0.8052 -0.3657
16407SOL    HW252114   7.389   7.422   9.184 -1.9585  1.1291  0.2538
16408SOL     OW52115   7.234   7.428   8.792 -0.2315  0.5698  0.0245
16408SOL    HW152116   7.318   7.469   8.772 -0.7093  1.4989 -0.1125
16408SOL    HW252117   7.176   7.500   8.815 -1.3273  0.0901 -1.0631
16409SOL     OW52118   3.117   4.962   3.424 -0.4980 -0.0954 -0.3835
16409SOL    HW152119   3.062   4.944   3.500 -0.5126 -0.4007 -0.4649
16409SOL    HW252120   3.195   4.908   3.438  0.6180  1.7022  0.6568
16410SOL     OW52121   9.532   0.073   5.742  0.3844 -0.1119  0.1302
16410SOL    HW152122   9.541   0.154   5.793 -0.7428  0.3586 -0.3877
16410SOL    HW252123   9.487   0.099   5.662 -2.2522 -1.5915  0.9749
16411SOL     OW52124   0.431   2.782   0.021  0.3447  0.2086  0.2246
16411SOL    HW152125   0.378   2.837  -0.037  0.9376 -0.4801 -1.0305
16411SOL    HW252126   0.427   2.825   0.106 -0.9514  1.0029 -0.2065
16412SOL     OW52127   6.636   1.328   6.653  0.6114 -0.2742  0.1561
16412SOL    HW152128   6.630   1.279   6.571  1.2351  0.3948 -0.3038
16412SOL    HW252129   6.596   1.413   6.634 -0.4361 -0.5765  0.9390
16413SOL     OW52130   8.268   8.282   4.195 -0.1511 -0.1093 -0.2646
16413SOL    HW152131   8.206   8.323   4.136 -0.2063  2.1108  1.2081
16413SOL    HW252132   8.216   8.259   4.273  0.0488 -2.3337 -0.7238
16414SOL     OW52133   7.413   0.019   2.205  0.8161  0.7060  0.2688
16414SOL    HW152134   7.386   0.109   2.189 -0.8147 -0.1675 -2.4708
16414SOL    HW252135   7.503   0.015   2.173  0.5175  1.1038 -0.6234
16415SOL     OW52136   9.597   7.465   7.830  0.2544  0.6050 -0.6391
16415SOL    HW152137   9.549   7.394   7.788 -0.3412  1.5688 -1.6417
16415SOL    HW252138   9.605   7.438   7.921 -1.4218 -0.0015 -0.6337
16416SOL     OW52139   7.168   4.034   0.618 -0.5171 -0.2840  0.1124
16416SOL    HW152140   7.245   3.978   0.625 -0.5794 -0.4924 -0.8276
16416SOL    HW252141   7.200   4.114   0.576 -1.1739 -1.1436 -2.1406
16417SOL     OW52142   2.763   9.580   5.156 -0.3392 -0.3371 -0.0398
16417SOL    HW152143   2.785   9.622   5.074 -0.7988 -0.2103 -0.1042
16417SOL    HW252144   2.841   9.530   5.180  0.2282  0.5731  0.0559
16418SOL     OW52145   2.160   3.091   3.814  0.2161 -0.0434  0.2914
16418SOL    HW152146   2.249   3.056   3.806  0.3124 -0.1024  1.5304
16418SOL    HW252147   2.151   3.148   3.737  1.4666  0.2653  0.3468
16419SOL     OW52148   4.059   0.348   9.514 -0.0911  0.5275  0.1657
16419SOL    HW152149   4.067   0.254   9.501  0.2287  0.2311  2.1676
16419SOL    HW252150   4.149   0.380   9.508 -0.3459  1.0232 -2.1709
16420SOL     OW52151   0.933   8.837   5.016  0.1757  0.5872 -0.4680
16420SOL    HW152152   1.028   8.851   5.018 -0.0706  2.5992  1.0603
16420SOL    HW252153   0.918   8.785   4.938  2.6453 -0.7352 -0.1626
16421SOL     OW52154   8.855   7.744   1.071 -0.6182 -0.4931 -0.9698
16421SOL    HW152155   8.799   7.818   1.046  0.8224  0.4790 -1.4745
16421SOL    HW252156   8.806   7.698   1.139 -1.2594  1.3399 -0.1283
16422SOL     OW52157   5.754   7.579   3.161 -0.2300  0.5174  0.1774
16422SOL    HW152158   5.748   7.609   3.252 -1.3343  0.2847  0.2000
16422SOL    HW252159   5.683   7.624   3.116 -0.9839 -0.9100 -0.1116
16423SOL     OW52160   0.563   4.551   9.619 -0.2384  0.0020 -0.1059
16423SOL    HW152161   0.482   4.511   9.589 -1.0612  1.3370  0.2413
16423SOL    HW252162   0.604   4.485   9.675 -1.5825 -0.3337  0.5269
16424SOL     OW52163   2.868   5.828   2.940 -0.0978 -0.1007  0.0578
16424SOL    HW152164   2.954   5.849   2.976 -0.4165  0.0069  0.7772
16424SOL    HW252165   2.869   5.862   2.851  0.3381  0.5681  0.3180
16425SOL     OW52166   3.827   1.267   5.086  0.1867  0.0894  0.0459
16425SOL    HW152167   3.797   1.349   5.048 -1.0036 -0.6444 -0.6663
16425SOL    HW252168   3.901   1.292   5.143  0.8266  1.4430 -1.3145
16426SOL     OW52169   6.624   3.991   3.026  0.2857  0.1886  0.0749
16426SOL    HW152170   6.710   4.027   3.047  0.0763  1.5594 -1.2465
16426SOL    HW252171   6.637   3.896   3.030  1.4441  0.3663  1.4148
16427SOL     OW52172   3.347   7.844   2.515 -0.1431 -0.0557  0.2000
16427SOL    HW152173   3.350   7.781   2.586  1.4800  0.0769  0.2994
16427SOL    HW252174   3.393   7.921   2.550  0.4875  0.0877 -0.8914
16428SOL     OW52175   5.644   7.525   5.579 -0.3390 -0.2990  0.3671
16428SOL    HW152176   5.566   7.511   5.633 -1.2637 -0.3766 -0.9440
16428SOL    HW252177   5.637   7.461   5.509  0.3178  0.4476 -0.4059
16429SOL     OW52178   7.345   8.910   3.194 -0.0265 -0.5702 -0.0842
16429SOL    HW152179   7.407   8.952   3.134 -0.4017 -0.5196 -0.4405
16429SOL    HW252180   7.316   8.832   3.147 -0.0105 -0.7504  0.2050
16430SOL     OW52181   8.436   3.687   3.233 -0.1801  0.4593  0.6602
16430SOL    HW152182   8.497   3.669   3.305 -0.2213  1.2129  0.8951
16430SOL    HW252183   8.471   3.765   3.191  0.2233 -0.3575 -0.5833
16431SOL     OW52184   5.580   2.588   6.399  0.2229  0.2569  0.3850
16431SOL    HW152185   5.533   2.648   6.458 -0.5118  0.8482 -0.7622
16431SOL    HW252186   5.650   2.553   6.453 -1.7023 -0.9241  2.3047
16432SOL     OW52187   1.042   2.865   3.604 -0.5152 -0.1890 -0.5119
16432SOL    HW152188   0.991   2.910   3.537  0.0875  1.7393  0.2603
16432SOL    HW252189   1.015   2.906   3.686 -1.1643 -2.4313  0.4881
16433SOL     OW52190   6.197   4.475   4.679  0.3592  0.1365  0.1650
16433SOL    HW152191   6.255   4.400   4.667 -0.1271 -0.3373  0.6889
16433SOL    HW252192   6.194   4.517   4.594 -0.4354 -1.2278 -0.5039
16434SOL     OW52193   1.395   5.848   1.035  0.7641  0.2778  0.6909
16434SOL    HW152194   1.416   5.764   0.995 -0.6199  2.0340 -4.4316
16434SOL    HW252195   1.304   5.838   1.064  1.6263 -0.8429  3.4035
16435SOL     OW52196   9.228   6.148   1.601 -0.4184 -0.0708  0.0134
16435SOL    HW152197   9.174   6.156   1.680 -0.6279 -1.4399  0.0396
16435SOL    HW252198   9.176   6.191   1.532 -0.3292  0.9503  0.5553
16436SOL     OW52199   0.873   8.230   8.555 -0.5464 -0.6744 -0.1274
16436SOL    HW152200   0.781   8.208   8.544 -0.8359  0.4723 -0.1923
16436SOL    HW252201   0.872   8.321   8.585  0.5658 -0.6193 -0.2041
16437SOL     OW52202   2.721   5.703   6.361 -0.3854 -0.5425 -0.0656
16437SOL    HW152203   2.737   5.797   6.353 -1.1767 -0.3421  0.6274
16437SOL    HW252204   2.626   5.694   6.359 -0.3105 -1.3684 -0.4914
16438SOL     OW52205   1.714   0.338   9.231 -0.0221 -0.3106  0.0592
16438SOL    HW152206   1.731   0.282   9.306  0.1128  0.8131  0.8957
16438SOL    HW252207   1.630   0.379   9.249 -0.5739 -0.9399 -0.9889
16439SOL     OW52208   4.052   8.091   3.984 -0.3787  0.0137  0.0238
16439SOL    HW152209   4.001   8.165   4.016  2.7734  1.5038  2.0813
16439SOL    HW252210   4.071   8.113   3.893 -0.1481  1.3842  0.3817
16440SOL     OW52211   7.300   2.673   3.258  0.2448  0.2253  0.2693
16440SOL    HW152212   7.335   2.700   3.343  0.0505  3.0987 -0.4524
16440SOL    HW252213   7.372   2.690   3.197 -0.5473  0.9637 -0.4901
16441SOL     OW52214   5.644   3.110   4.945  0.1284  0.5950  0.5039
16441SOL    HW152215   5.737   3.091   4.933  0.1816 -1.1382  2.9294
16441SOL    HW252216   5.640   3.206   4.949  2.0015  0.6907  1.3936
16442SOL     OW52217   2.453   0.986   2.941  0.2202 -0.1752  0.4199
16442SOL    HW152218   2.389   0.993   3.011 -0.4022  0.2675 -0.1697
16442SOL    HW252219   2.409   1.023   2.864  0.1116 -2.5074 -0.7324
16443SOL     OW52220   8.386   1.222   2.188  0.1636 -0.0168  0.8609
16443SOL    HW152221   8.319   1.288   2.172  0.6324  0.4724  0.8794
16443SOL    HW252222   8.344   1.158   2.245 -1.2633 -1.3202 -1.5008
16444SOL     OW52223   8.070   5.700   3.752  0.1450 -0.2288  0.8585
16444SOL    HW152224   8.103   5.610   3.748 -0.4198 -0.4046 -0.6234
16444SOL    HW252225   8.070   5.729   3.661 -0.8708  0.8360  1.1720
16445SOL     OW52226   5.953   8.142   1.004  0.2285 -0.8804  0.1570
16445SOL    HW152227   5.975   8.235   1.003  0.4985 -0.9317  0.7870
16445SOL    HW252228   5.892   8.131   0.931 -0.2748 -0.0931  0.4350
16446SOL     OW52229   4.404   2.000   4.033 -0.3986 -0.1130 -0.0689
16446SOL    HW152230   4.322   1.995   3.985 -0.1088 -2.8048 -0.4288
16446SOL    HW252231   4.458   2.061   3.983 -0.7676 -1.3950 -2.1105
16447SOL     OW52232   2.482   3.068   6.547  1.1042  0.7064  0.1806
16447SOL    HW152233   2.539   3.048   6.473  1.5795  2.6020 -0.0010
16447SOL    HW252234   2.541   3.077   6.621  0.7920  0.4289  0.4677
16448SOL     OW52235   2.027   6.963   1.919 -0.1967  0.0842 -0.3080
16448SOL    HW152236   2.032   6.976   2.013 -1.3470  0.8618 -0.3252
16448SOL    HW252237   2.064   6.876   1.904  0.7657  0.2913  0.7495
16449SOL     OW52238   7.628   8.077   9.252 -0.0490  0.6451  0.3838
16449SOL    HW152239   7.703   8.091   9.195  0.6660  1.2512  1.4323
16449SOL    HW252240   7.625   8.156   9.306 -0.6407  0.0494  1.2427
16450SOL     OW52241   5.467   6.554   0.163  0.2295  0.4206 -0.2157
16450SOL    HW152242   5.556   6.567   0.195  0.6578  0.6634 -1.4295
16450SOL    HW252243   5.412   6.553   0.242  1.1407  1.6431  0.4603
16451SOL     OW52244   1.122   1.331   5.397 -0.3343 -0.1513 -0.5467
16451SOL    HW152245   1.176   1.255   5.417 -0.5710 -0.3563 -0.6920
16451SOL    HW252246   1.036   1.296   5.378 -1.0045  0.2925  1.3912
16452SOL     OW52247   3.406   5.326   4.722 -0.3791  0.4585  0.4301
16452SOL    HW152248   3.409   5.335   4.818 -0.1960 -0.7404  0.5546
16452SOL    HW252249   3.497   5.311   4.697 -0.6018 -0.7135  0.2530
16453SOL     OW52250   8.660   8.398   9.048 -0.5068 -0.0849 -0.4331
16453SOL    HW152251   8.602   8.444   8.988 -0.3928 -0.3984 -0.7896
16453SOL    HW252252   8.747   8.433   9.029 -0.7561  1.6188  1.2547
16454SOL     OW52253   7.995   0.013   9.619  0.3996 -0.1340 -0.2624
16454SOL    HW152254   8.044  -0.057   9.575 -0.1848 -0.1509 -0.9061
16454SOL    HW252255   8.062   0.076   9.646  1.1208 -1.5949  1.6424
16455SOL     OW52256   2.496   4.198   1.816 -0.0602  0.7842  0.2784
16455SOL    HW152257   2.564   4.224   1.878 -1.0392  2.2604  0.7729
16455SOL    HW252258   2.468   4.280   1.775 -0.7925  0.0697 -0.7132
16456SOL     OW52259   8.172   4.996   6.153 -0.6067  0.5766  0.4841
16456SOL    HW152260   8.169   4.907   6.118  0.3718  0.3569  0.9337
16456SOL    HW252261   8.080   5.022   6.159 -0.9081 -0.4142  0.3802
16457SOL     OW52262   8.228   8.678   4.091  0.1202 -0.5333  0.0158
16457SOL    HW152263   8.279   8.734   4.032  0.6607 -2.2238 -1.2103
16457SOL    HW252264   8.222   8.728   4.172  2.5171  0.3415 -0.2608
16458SOL     OW52265   3.314   9.450   2.879  0.1165 -0.1529  0.2438
16458SOL    HW152266   3.339   9.462   2.787 -0.6085 -0.9421 -0.0793
16458SOL    HW252267   3.224   9.483   2.884  1.0631  2.4995  1.3431
16459SOL     OW52268   1.235   7.057   1.119  0.4119  0.1708  0.0042
16459SOL    HW152269   1.243   7.011   1.202 -1.3017  1.0800  0.7176
16459SOL    HW252270   1.302   7.124   1.122 -1.1307  1.7600  1.7797
16460SOL     OW52271   0.606   3.904   4.272  0.5265  0.1766 -0.7063
16460SOL    HW152272   0.683   3.959   4.260  0.5640  0.9141  2.1847
16460SOL    HW252273   0.532   3.961   4.251  0.6153  1.0270  1.1423
16461SOL     OW52274   3.585   2.292   8.673 -0.1995 -0.4779  0.3257
16461SOL    HW152275   3.503   2.338   8.659  0.0893 -0.0142  0.1413
16461SOL    HW252276   3.571   2.242   8.754 -0.1575  0.7665  1.1258
16462SOL     OW52277   8.232   3.860   0.709 -0.3047 -0.1099  0.1229
16462SOL    HW152278   8.253   3.919   0.637  0.8858 -0.0471  0.5046
16462SOL    HW252279   8.283   3.781   0.692 -2.3226 -1.3330 -0.7052
16463SOL     OW52280   8.107   6.490   8.839  0.1259  0.8740 -0.1276
16463SOL    HW152281   8.194   6.499   8.879 -0.4229  2.4439  0.8149
16463SOL    HW252282   8.070   6.578   8.843 -1.4553  0.2675 -0.6739
16464SOL     OW52283   1.185   0.551   0.455  0.1218 -0.8201 -0.4898
16464SOL    HW152284   1.127   0.493   0.405 -2.1886 -0.2173  1.3187
16464SOL    HW252285   1.137   0.633   0.461  1.1689 -0.2737  1.0707
16465SOL     OW52286   1.247   5.581   8.535 -0.0790  0.0969  0.2166
16465SOL    HW152287   1.162   5.587   8.492  0.3547 -1.9290 -1.0700
16465SOL    HW252288   1.295   5.516   8.484  1.6267 -0.0904  1.9449
16466SOL     OW52289   5.920   4.859   6.002 -0.2251 -0.1576  0.0160
16466SOL    HW152290   5.930   4.766   5.985 -2.3938 -0.0585 -2.3502
16466SOL    HW252291   5.867   4.864   6.082  2.3831 -0.7939  1.9294
16467SOL     OW52292   3.252   0.438   8.466 -0.2093 -0.4790 -0.3929
16467SOL    HW152293   3.330   0.447   8.410 -0.6443  1.0793 -0.8018
16467SOL    HW252294   3.225   0.528   8.483 -1.8815 -0.9968 -0.1831
16468SOL     OW52295   1.570   9.208   7.598  0.2846 -0.5906 -0.0423
16468SOL    HW152296   1.545   9.163   7.517 -0.2939  1.9069 -1.3357
16468SOL    HW252297   1.662   9.185   7.610  0.7132 -0.1469 -2.0717
16469SOL     OW52298   6.994   3.944   5.792 -0.0514  0.6583 -0.3117
16469SOL    HW152299   6.998   3.848   5.790  2.2506  0.6826  0.0994
16469SOL    HW252300   6.930   3.964   5.860  0.3296 -0.5985  0.4502
16470SOL     OW52301   8.313   4.843   7.989  0.0581  0.3011 -0.1678
16470SOL    HW152302   8.233   4.891   7.970 -0.3724 -0.5205 -0.4744
16470SOL    HW252303   8.372   4.908   8.026 -1.6869  0.4065  2.7997
16471SOL     OW52304   9.202   1.687   0.404  0.1195 -0.0340 -0.4770
16471SOL    HW152305   9.285   1.696   0.451 -0.8872  0.9027  1.2357
16471SOL    HW252306   9.205   1.599   0.367  0.4059 -1.5196  2.7096
16472SOL     OW52307   8.715   6.962   6.516  0.1090 -0.0248 -0.3201
16472SOL    HW152308   8.644   6.922   6.566 -0.1438  0.1506 -0.5342
16472SOL    HW252309   8.673   6.991   6.435 -0.0613  2.0473  0.4607
16473SOL     OW52310   0.309   5.306   0.391  0.7956  0.7396  0.4266
16473SOL    HW152311   0.253   5.312   0.313  0.2003 -0.3314  0.7505
16473SOL    HW252312   0.382   5.364   0.372  0.1369  1.3003 -0.4918
16474SOL     OW52313   6.182   6.951   6.458  0.5148  0.0114  0.1940
16474SOL    HW152314   6.125   7.005   6.404  0.0561 -1.0291 -0.3911
16474SOL    HW252315   6.216   6.885   6.398  2.7088  0.8428  0.4016
16475SOL     OW52316   0.782   5.034   0.427 -0.1579  0.2002 -0.7050
16475SOL    HW152317   0.818   5.101   0.485  1.1110 -0.1481 -1.0523
16475SOL    HW252318   0.698   5.070   0.398  0.6255  1.8151 -1.1302
16476SOL     OW52319   1.623   4.099   5.446  0.0212 -0.2073  0.2451
16476SOL    HW152320   1.578   4.126   5.366 -1.9958 -2.4397  0.5195
16476SOL    HW252321   1.556   4.055   5.498  2.0127 -1.6670  1.7323
16477SOL     OW52322   1.584   3.607   3.484 -0.0555  0.1078 -0.3287
16477SOL    HW152323   1.609   3.656   3.405 -1.8434 -0.3149 -1.1982
16477SOL    HW252324   1.555   3.674   3.545  2.5924  0.5778  0.5613
16478SOL     OW52325   1.057   4.677   6.707  0.5055 -0.2028  0.2034
16478SOL    HW152326   1.000   4.637   6.773  0.2031  0.0844  0.1157
16478SOL    HW252327   1.140   4.691   6.753  0.1486  0.4328  0.6633
16479SOL     OW52328   4.915   9.393   7.025 -0.3740  0.2424 -0.5107
16479SOL    HW152329   4.824   9.366   7.039 -0.0909 -0.7882 -0.6080
16479SOL    HW252330   4.930   9.461   7.091 -1.8612  1.9643 -1.8566
16480SOL     OW52331   2.205   7.301   2.627  0.1132 -0.0014  0.4349
16480SOL    HW152332   2.192   7.371   2.692  0.0369 -1.0895  1.6472
16480SOL    HW252333   2.259   7.340   2.559  1.1750  0.8632  1.7337
16481SOL     OW52334   4.267   5.088   0.195 -0.1912 -0.4010 -0.2657
16481SOL    HW152335   4.271   5.089   0.290  0.3454  1.1577 -0.2796
16481SOL    HW252336   4.201   5.022   0.174 -0.9135 -0.1733  1.2067
16482SOL     OW52337   2.274   7.215   2.138  0.4662  0.3249 -0.6786
16482SOL    HW152338   2.220   7.274   2.085  0.9674  1.5714  0.1727
16482SOL    HW252339   2.263   7.129   2.096 -1.0369  0.8200 -1.3682
16483SOL     OW52340   4.327   4.596   6.845 -0.3417 -0.0221 -0.3594
16483SOL    HW152341   4.411   4.609   6.800 -0.7256  0.6778 -0.9111
16483SOL    HW252342   4.314   4.501   6.844  0.7406 -0.1949  0.3116
16484SOL     OW52343   5.152   6.206   1.539  0.0585  0.3920 -0.2583
16484SOL    HW152344   5.061   6.227   1.562  0.2806  2.3186 -0.9422
16484SOL    HW252345   5.188   6.166   1.618 -1.3070 -0.2344  0.0939
16485SOL     OW52346   9.584   0.023   2.009 -0.3344 -0.1251 -0.3030
16485SOL    HW152347   9.581  -0.018   2.095  0.7350  0.3501 -0.0179
16485SOL    HW252348   9.527  -0.031   1.954  1.6976 -2.5427 -0.1875
16486SOL     OW52349   4.171   4.591   0.209 -0.2499 -0.0918  0.1383
16486SOL    HW152350   4.191   4.683   0.227  2.2407  0.1133 -2.8238
16486SOL    HW252351   4.243   4.543   0.247 -1.0318 -0.7725  0.8007
16487SOL     OW52352   1.427   1.351   2.755 -0.0845 -0.0925  0.2124
16487SOL    HW152353   1.417   1.376   2.663  2.3774 -0.0488 -0.1204
16487SOL    HW252354   1.365   1.406   2.803 -1.6932 -0.3986 -1.4272
16488SOL     OW52355   7.349   3.145   5.595  0.5201  0.7275  0.1147
16488SOL    HW152356   7.320   3.180   5.511  2.1241  0.6027 -0.5444
16488SOL    HW252357   7.342   3.050   5.585 -0.7745  0.7427  0.7207
16489SOL     OW52358   6.407   4.386   8.448  0.3029 -0.2046 -0.1315
16489SOL    HW152359   6.353   4.464   8.437 -0.0225  0.0955  2.8594
16489SOL    HW252360   6.490   4.419   8.484  0.0309 -1.2306  1.5131
16490SOL     OW52361   9.204   5.675   3.785  0.2468  0.1810 -0.5173
16490SOL    HW152362   9.232   5.606   3.845  0.6813 -0.5073 -1.5010
16490SOL    HW252363   9.189   5.751   3.842  1.4060 -0.2358  0.3810
16491SOL     OW52364   6.756   9.469   0.523  0.5608  0.5893  0.0270
16491SOL    HW152365   6.687   9.512   0.472 -0.6341  0.0902  1.1790
16491SOL    HW252366   6.825   9.535   0.531 -0.4294  1.6377  0.1449
16492SOL     OW52367   4.113   2.755   5.789 -0.1778  0.5142 -0.5066
16492SOL    HW152368   4.169   2.821   5.749 -1.1183  1.5171 -0.2203
16492SOL    HW252369   4.151   2.671   5.762  1.4950  1.1497 -0.2516
16493SOL     OW52370   1.014   1.191   8.592 -0.0685  0.6267 -0.8621
16493SOL    HW152371   1.090   1.249   8.582  0.8361 -0.3507  0.1624
16493SOL    HW252372   0.973   1.219   8.674  0.2350 -0.0188 -0.4860
16494SOL     OW52373   7.611   1.969   0.892  0.0914 -0.2009 -0.7418
16494SOL    HW152374   7.688   1.932   0.848 -0.1575  0.9615 -2.1996
16494SOL    HW252375   7.571   1.894   0.937  1.4792 -1.0209 -0.8224
16495SOL     OW52376   2.765   5.232   2.016  0.2533 -0.2478  0.0406
16495SOL    HW152377   2.752   5.141   2.043 -1.6252 -0.5114 -1.5481
16495SOL    HW252378   2.759   5.230   1.920 -1.2302  1.7257  0.0403
16496SOL     OW52379   5.656   5.042   0.269  0.2572 -0.5522  0.0396
16496SOL    HW152380   5.581   5.006   0.316 -0.4437  2.3036  1.3126
16496SOL    HW252381   5.630   5.041   0.177 -1.1903  0.0068  0.4146
16497SOL     OW52382   5.352   5.029   6.322  0.0417  0.3380 -0.3916
16497SOL    HW152383   5.365   5.061   6.232 -0.3641  2.1823  0.1705
16497SOL    HW252384   5.436   4.990   6.346  0.8274  1.6916 -0.8566
16498SOL     OW52385   1.127   0.773   3.467  0.3218 -0.5279  0.0765
16498SOL    HW152386   1.064   0.781   3.538  0.9905 -1.3314  0.7674
16498SOL    HW252387   1.183   0.700   3.492  1.5736  0.2075 -0.4960
16499SOL     OW52388   6.543   4.819   8.742 -0.4579  0.1610 -0.0671
16499SOL    HW152389   6.573   4.741   8.790  1.4643 -0.5431 -2.2212
16499SOL    HW252390   6.514   4.879   8.810 -0.1478 -1.6837  1.8104
16500SOL     OW52391   9.043   8.237   4.977  0.3743 -0.1052 -0.0364
16500SOL    HW152392   9.032   8.259   5.070  1.4352 -1.5119  0.4616
16500SOL    HW252393   9.058   8.142   4.977  2.7384  0.2007 -1.4103
16501SOL     OW52394   5.128   3.651   0.415  0.1741 -0.1208 -0.2150
16501SOL    HW152395   5.085   3.678   0.335 -0.3779  0.5530  0.2983
16501SOL    HW252396   5.084   3.700   0.484  0.6041 -0.7230  0.5078
16502SOL     OW52397   6.026   3.995   0.723  0.4324 -0.2331 -0.1066
16502SOL    HW152398   6.016   3.991   0.818  0.5547 -3.2543 -0.1068
16502SOL    HW252399   6.113   4.033   0.710  0.6789 -0.3492  1.0483
16503SOL     OW52400   6.405   0.135   0.647  0.5849  0.0418  0.8662
16503SOL    HW152401   6.422   0.222   0.685  0.4539  0.9172 -0.9665
16503SOL    HW252402   6.444   0.140   0.559 -3.4304 -0.0726 -1.1150
16504SOL     OW52403   6.984   4.986   0.302  0.1027 -0.2881 -0.2544
16504SOL    HW152404   7.006   4.913   0.360  2.5989  0.2711 -0.3591
16504SOL    HW252405   7.008   4.956   0.215  0.5832  0.4152 -0.3744
16505SOL     OW52406   2.027   0.297   8.633  0.1447 -0.0053 -0.3592
16505SOL    HW152407   2.092   0.240   8.675 -1.3652 -0.7212  1.1545
16505SOL    HW252408   2.078   0.354   8.576  2.3154  0.5755  1.9909
16506SOL     OW52409   4.508   7.510   9.478  0.2495  0.5863 -0.0272
16506SOL    HW152410   4.505   7.553   9.393  0.9216  1.9713  0.6168
16506SOL    HW252411   4.417   7.496   9.502  0.0118  1.7597 -0.2147
16507SOL     OW52412   4.179   1.255   5.718  0.2161 -0.1509 -0.3794
16507SOL    HW152413   4.237   1.286   5.649  1.6835 -0.8159  0.5123
16507SOL    HW252414   4.163   1.163   5.697 -0.7055  0.0701 -0.7196
16508SOL     OW52415   9.586   2.401   6.678 -0.0167 -0.5824 -0.2855
16508SOL    HW152416   9.521   2.451   6.629  0.8586 -0.0499 -0.9291
16508SOL    HW252417   9.669   2.420   6.634  0.4660 -1.8833  0.0176
16509SOL     OW52418   2.412   4.999   5.573 -0.1749 -0.2329 -0.1399
16509SOL    HW152419   2.377   4.978   5.487 -0.2035 -0.4574 -0.0717
16509SOL    HW252420   2.404   4.919   5.624  0.6600 -0.3649 -0.2007
16510SOL     OW52421   0.333   9.061   9.031  0.0762  0.0945  0.3156
16510SOL    HW152422   0.245   9.066   8.996 -0.0140 -0.3427  0.4622
16510SOL    HW252423   0.325   9.093   9.121  0.2407  0.8848  0.0578
16511SOL     OW52424   3.875   7.779   7.764  0.3872 -0.2225  0.0135
16511SOL    HW152425   3.871   7.875   7.769 -1.0462 -0.1782 -1.3667
16511SOL    HW252426   3.809   7.749   7.826  0.6528 -0.3170  0.2520
16512SOL     OW52427   0.820   4.536   7.525 -0.6578  0.2655  0.1042
16512SOL    HW152428   0.840   4.616   7.573 -1.3514  0.0722  0.7196
16512SOL    HW252429   0.748   4.560   7.467  0.4505  0.6180 -1.2058
16513SOL     OW52430   4.812   6.248   3.324  0.4657 -0.2109  0.1263
16513SOL    HW152431   4.891   6.292   3.355  0.6824 -0.1072 -0.5447
16513SOL    HW252432   4.799   6.282   3.235  1.2594 -2.2600 -0.8478
16514SOL     OW52433   3.364   0.474   1.100 -0.0141 -0.0818 -0.1793
16514SOL    HW152434   3.381   0.380   1.088  0.4904  0.0172 -0.2313
16514SOL    HW252435   3.433   0.504   1.159  0.2766  0.4133 -0.7604
16515SOL     OW52436   3.481   7.761   9.185  0.1643  0.4265  0.1449
16515SOL    HW152437   3.568   7.727   9.166  0.8080  1.4160  1.1969
16515SOL    HW252438   3.439   7.769   9.099  0.1506 -2.4386 -0.1981
16516SOL     OW52439   6.599   7.545   6.864  0.0702 -0.1447  0.3504
16516SOL    HW152440   6.585   7.542   6.770 -0.4015  0.8172  0.3752
16516SOL    HW252441   6.663   7.616   6.877  0.4999 -0.5925  0.7183
16517SOL     OW52442   6.782   4.346   3.677  0.2952 -0.1725  0.1134
16517SOL    HW152443   6.850   4.412   3.661 -1.5438  1.7104 -0.5815
16517SOL    HW252444   6.754   4.361   3.767 -1.1915  1.1692 -0.5144
16518SOL     OW52445   1.561   7.819   6.166  0.2090  0.1643 -0.4033
16518SOL    HW152446   1.618   7.808   6.090  2.3706  1.2238  0.9465
16518SOL    HW252447   1.538   7.911   6.166 -0.5817 -0.0282 -0.3049
16519SOL     OW52448   9.230   7.518   6.411 -0.0217  0.0269 -0.5149
16519SOL    HW152449   9.271   7.484   6.490 -2.9972 -0.0748  1.1202
16519SOL    HW252450   9.264   7.608   6.404 -0.3842  0.3738  1.4672
16520SOL     OW52451   5.126   6.601   8.220 -0.3747  0.1376 -0.0454
16520SOL    HW152452   5.101   6.519   8.263 -1.5892 -0.6257 -2.0593
16520SOL    HW252453   5.219   6.590   8.201 -0.0592  0.0745  1.4221
16521SOL     OW52454   0.935   4.752   4.688 -0.1736  0.2051  0.0131
16521SOL    HW152455   0.917   4.786   4.600 -2.3516  0.3598  0.4659
16521SOL    HW252456   0.867   4.792   4.743  1.2962  0.3164  1.8414
16522SOL     OW52457   8.981   8.451   0.514 -0.0483  0.2149  0.6418
16522SOL    HW152458   8.971   8.385   0.582  0.4182 -0.5285  0.0125
16522SOL    HW252459   9.012   8.402   0.437  0.6295  1.2119  0.2534
16523SOL     OW52460   0.385   5.347   2.478  0.0522  0.6625 -0.0482
16523SOL    HW152461   0.462   5.313   2.432  0.7548  1.5679  0.4317
16523SOL    HW252462   0.379   5.439   2.451  0.0997  1.0396  1.1512
16524SOL     OW52463   4.159   6.356   1.397  0.1623 -0.5114  0.1911
16524SOL    HW152464   4.171   6.358   1.302 -1.0150  3.6996 -0.0908
16524SOL    HW252465   4.243   6.326   1.431  0.6733 -1.9524 -2.1292
16525SOL     OW52466   2.959   9.484   7.331 -0.2689  0.2414 -0.1881
16525SOL    HW152467   2.946   9.468   7.425 -1.0403 -0.5120 -0.4138
16525SOL    HW252468   3.012   9.563   7.328 -1.3842  1.0656  0.8587
16526SOL     OW52469   8.531   8.910   1.884  0.0637  0.6926  0.1738
16526SOL    HW152470   8.603   8.848   1.889 -0.0811  0.4377 -0.7613
16526SOL    HW252471   8.544   8.956   1.801  0.4770  2.3090  1.0935
16527SOL     OW52472   6.171   6.199   1.070  0.1299  0.4444  0.5222
16527SOL    HW152473   6.166   6.130   1.137  1.3577  0.0887  0.2655
16527SOL    HW252474   6.261   6.231   1.075 -0.4499  2.1497  0.7282
16528SOL     OW52475   7.230   5.250   7.199  0.2801  0.1933  0.1116
16528SOL    HW152476   7.162   5.246   7.132  0.8345  1.0832 -0.5278
16528SOL    HW252477   7.214   5.173   7.254 -0.5012 -0.2667 -0.7331
16529SOL     OW52478   3.753   0.919   3.182  0.1072  0.1428  0.1029
16529SOL    HW152479   3.814   0.858   3.141 -0.1037 -1.6077  2.2270
16529SOL    HW252480   3.667   0.879   3.168  0.1635 -1.8119  3.9796
16530SOL     OW52481   3.370   3.260   1.709  0.2862  0.4013 -0.5633
16530SOL    HW152482   3.304   3.191   1.714 -0.9624  1.3279 -2.7627
16530SOL    HW252483   3.397   3.261   1.617  1.6500  1.6040 -0.1895
16531SOL     OW52484   3.083   2.755   9.000 -0.8747 -0.1233 -0.2979
16531SOL    HW152485   3.142   2.777   9.071 -0.3985  0.8157 -0.9684
16531SOL    HW252486   3.118   2.800   8.923 -2.2568  0.1943 -0.7891
16532SOL     OW52487   8.215   4.712   4.142  0.7448 -0.3084 -0.4362
16532SOL    HW152488   8.245   4.666   4.220  2.7086 -0.8485 -1.4313
16532SOL    HW252489   8.152   4.653   4.102 -0.8091  0.2659  1.0312
16533SOL     OW52490   2.936   0.026   3.597 -0.3449  0.2955  0.8215
16533SOL    HW152491   2.956   0.100   3.540 -1.1346 -0.1408 -0.0450
16533SOL    HW252492   2.860   0.055   3.648 -0.3566  0.2603  0.8239
16534SOL     OW52493   9.043   4.133   6.197 -0.2970  0.1263  0.0521
16534SOL    HW152494   8.979   4.067   6.172 -0.2317  0.7230 -1.7894
16534SOL    HW252495   9.058   4.117   6.291 -0.7786 -2.0061 -0.1902
16535SOL     OW52496   9.602   9.123   7.963 -0.1306 -0.9785 -0.1718
16535SOL    HW152497   9.627   9.078   8.043  0.6943  0.0269  0.1718
16535SOL    HW252498   9.518   9.164   7.984 -0.0685 -0.9766  0.0809
16536SOL     OW52499   5.708   3.832   3.221 -0.3257  0.2879 -0.0919
16536SOL    HW152500   5.693   3.755   3.167 -2.8814 -1.1711  2.4146
16536SOL    HW252501   5.796   3.820   3.256 -0.8349 -1.7985  0.6040
16537SOL     OW52502   4.957   5.771   5.793  0.4157  0.6339  0.2863
16537SOL    HW152503   4.944   5.676   5.793 -1.6295  0.8733  0.3333
16537SOL    HW252504   5.043   5.784   5.754  1.4381 -1.3136  1.7341
16538SOL     OW52505   0.160   3.828   1.519  0.4640 -0.6410  0.6041
16538SOL    HW152506   0.116   3.896   1.571  1.4424  0.8534 -0.4273
16538SOL    HW252507   0.101   3.813   1.445  0.4574 -0.5752  0.5958
16539SOL     OW52508   9.309   4.553   8.466  0.3124  0.2776 -0.2771
16539SOL    HW152509   9.331   4.465   8.434 -0.2198 -0.0759  0.2937
16539SOL    HW252510   9.390   4.586   8.504 -0.1329 -1.1465  2.1251
16540SOL     OW52511   0.926   8.001   4.265  0.1794  0.1410 -0.7830
16540SOL    HW152512   0.895   8.084   4.301 -2.4770 -0.5468 -1.2117
16540SOL    HW252513   0.974   8.026   4.186 -0.8798  1.2859 -1.1041
16541SOL     OW52514   8.648   2.216   3.770  0.0063 -0.2930  0.0345
16541SOL    HW152515   8.656   2.178   3.682 -1.0981 -0.4798  0.0007
16541SOL    HW252516   8.729   2.193   3.814  0.5612 -0.2212 -0.9314
16542SOL     OW52517   2.805   0.299   1.598  0.0402 -0.3987  0.3221
16542SOL    HW152518   2.817   0.289   1.503 -0.8892  0.1159  0.1284
16542SOL    HW252519   2.711   0.319   1.607 -0.0554 -1.3033  1.4252
16543SOL     OW52520   8.836   5.082   0.660 -0.3937 -0.0979 -0.0057
16543SOL    HW152521   8.793   5.051   0.580  2.2927 -0.6437 -1.3543
16543SOL    HW252522   8.900   5.146   0.630  0.6443 -0.2677  1.7074
16544SOL     OW52523   7.303   8.141   3.858  0.1842  0.3166 -0.1251
16544SOL    HW152524   7.399   8.136   3.863  0.1057  0.0583  1.5509
16544SOL    HW252525   7.284   8.235   3.865  0.3338  0.4962 -1.6773
16545SOL     OW52526   6.895   9.522   3.405  0.2564  0.4511  0.2539
16545SOL    HW152527   6.963   9.570   3.357  0.2674  0.6268  0.4422
16545SOL    HW252528   6.929   9.433   3.411  0.2870  0.4460 -0.0026
16546SOL     OW52529   3.850   2.092   3.109 -0.3781 -0.3047 -0.0116
16546SOL    HW152530   3.796   2.171   3.106  1.4035  1.0480  1.3329
16546SOL    HW252531   3.853   2.068   3.202  0.4008 -1.0140 -0.2045
16547SOL     OW52532   9.148   4.561   6.733  0.0884 -0.4153  0.0944
16547SOL    HW152533   9.114   4.538   6.647 -1.1658 -1.2237  0.7780
16547SOL    HW252534   9.072   4.597   6.780  0.9966  1.0297  0.5236
16548SOL     OW52535   5.225   8.481   0.710  0.0582 -0.4151  0.2029
16548SOL    HW152536   5.278   8.490   0.630 -1.6916 -1.0034 -1.1058
16548SOL    HW252537   5.149   8.538   0.694 -0.5979 -0.9804  1.2016
16549SOL     OW52538   0.919   7.351   0.838  0.0580  0.0845  0.6449
16549SOL    HW152539   0.866   7.330   0.915  0.4020 -2.1240  0.3283
16549SOL    HW252540   1.009   7.353   0.872  0.0753  0.7554  0.5834
16550SOL     OW52541   6.792   0.475   4.025 -0.9728  0.1142  0.3563
16550SOL    HW152542   6.761   0.534   4.093 -0.3896 -0.0496  0.7717
16550SOL    HW252543   6.728   0.404   4.022 -1.1917  0.3064  0.4810
16551SOL     OW52544   7.387   3.620   7.891 -0.3357 -0.5238 -0.4938
16551SOL    HW152545   7.466   3.670   7.910  0.1845 -1.1708 -0.9165
16551SOL    HW252546   7.320   3.687   7.877 -0.0274  0.0204  0.5178
16552SOL     OW52547   7.320   0.141   9.358  0.4043 -0.5196  0.7282
16552SOL    HW152548   7.350   0.106   9.442  1.1934 -1.1129  0.2147
16552SOL    HW252549   7.329   0.236   9.368 -1.2824 -0.4325  1.9539
16553SOL     OW52550   6.403   7.386   3.293 -0.0541 -0.4221  0.0727
16553SOL    HW152551   6.364   7.431   3.368 -0.6311  1.1907 -1.1402
16553SOL    HW252552   6.497   7.401   3.303 -0.2602  1.8258 -0.6850
16554SOL     OW52553   1.753   4.311   2.521 -0.1247  0.1452 -0.5062
16554SOL    HW152554   1.818   4.303   2.591  0.0225 -2.4814 -0.8468
16554SOL    HW252555   1.676   4.349   2.563  0.3129 -0.4119  0.8399
16555SOL     OW52556   2.748   0.366   4.407  0.0568  0.1589  0.1496
16555SOL    HW152557   2.746   0.277   4.441  0.4673 -0.1930 -0.7440
16555SOL    HW252558   2.708   0.361   4.321  0.1359  0.8301  0.0636
16556SOL     OW52559   6.325   3.655   3.639 -0.2598 -0.8062  0.1650
16556SOL    HW152560   6.332   3.652   3.544  2.0150  0.9233  0.1987
16556SOL    HW252561   6.322   3.563   3.666 -0.2269 -1.3346 -1.5248
16557SOL     OW52562   3.331   8.478   1.002 -0.1834  0.6013  0.3082
16557SOL    HW152563   3.415   8.436   1.020 -0.2004  0.2941 -0.3046
16557SOL    HW252564   3.271   8.441   1.066 -0.8912 -2.5097 -1.9284
16558SOL     OW52565   9.214   5.265   6.679  0.1271 -0.0071 -0.4190
16558SOL    HW152566   9.281   5.247   6.613  0.2723  1.8745 -0.8481
16558SOL    HW252567   9.211   5.360   6.685 -1.5191 -0.0789  0.6418
16559SOL     OW52568   6.270   2.649   4.107 -0.1823 -0.2251 -0.0984
16559SOL    HW152569   6.350   2.627   4.155  0.5507  1.8117 -0.2693
16559SOL    HW252570   6.248   2.738   4.136  0.1559  1.0167 -3.2373
16560SOL     OW52571   8.985   4.511   6.478  0.1534 -0.0219  0.2850
16560SOL    HW152572   9.009   4.487   6.389 -3.4023 -0.0111 -0.8387
16560SOL    HW252573   8.935   4.592   6.468 -0.3752 -0.0520  2.2987
16561SOL     OW52574   8.380   6.934   3.358 -0.4928 -0.2492  0.2431
16561SOL    HW152575   8.466   6.972   3.374 -0.9179  0.1719  1.6175
16561SOL    HW252576   8.347   6.912   3.445 -2.1562  0.4409 -0.1867
16562SOL     OW52577   5.033   6.132   9.395  0.3452 -0.0827  0.3386
16562SOL    HW152578   5.087   6.089   9.461  0.2388  1.3949  1.4322
16562SOL    HW252579   4.963   6.173   9.444 -0.5005 -0.0533 -0.8405
16563SOL     OW52580   2.074   3.183   5.290 -0.0400 -0.0024  0.1300
16563SOL    HW152581   2.099   3.190   5.197 -1.2093 -1.2640 -0.3094
16563SOL    HW252582   1.984   3.216   5.293  0.1616  0.4867  0.9148
16564SOL     OW52583   6.899   4.940   1.119 -0.0430 -0.0805 -0.0206
16564SOL    HW152584   6.859   4.927   1.033 -2.2262  1.3122  0.7180
16564SOL    HW252585   6.863   4.870   1.173  0.8013 -0.5407 -0.0267
16565SOL     OW52586   6.978   7.649   5.123 -0.3523 -0.4851 -0.1927
16565SOL    HW152587   6.937   7.577   5.171  0.6594 -0.8029  0.2116
16565SOL    HW252588   7.036   7.606   5.060  1.1111 -0.0415  0.8044
16566SOL     OW52589   8.849   0.071   0.550  0.1065  0.2211  0.1119
16566SOL    HW152590   8.793  -0.004   0.566  0.7159 -0.1964  0.3135
16566SOL    HW252591   8.888   0.091   0.635  2.0546 -0.9537 -0.4476
16567SOL     OW52592   8.306   8.398   4.768  0.4329  0.1166  0.3659
16567SOL    HW152593   8.360   8.321   4.787 -0.1851  0.1573  2.4454
16567SOL    HW252594   8.229   8.363   4.723  1.3945 -0.1124 -1.2073
16568SOL     OW52595   5.030   0.289   2.634 -0.0578  0.3053  0.0050
16568SOL    HW152596   5.044   0.321   2.545 -1.8718  0.6364 -0.2018
16568SOL    HW252597   5.012   0.368   2.685  0.5940  0.0808  0.5919
16569SOL     OW52598   0.843   0.209   6.087  0.1520  0.4484 -0.0910
16569SOL    HW152599   0.792   0.275   6.133  0.6589  1.7973 -1.3710
16569SOL    HW252600   0.787   0.181   6.015  0.3783  0.3158 -0.2167
16570SOL     OW52601   4.917   7.988   2.100  0.1782  0.4934  0.0332
16570SOL    HW152602   4.997   7.995   2.049 -0.6349 -0.3928 -1.4320
16570SOL    HW252603   4.865   8.064   2.075 -0.1448  0.1562 -0.3354
16571SOL     OW52604   5.373   8.553   8.586  0.2092  0.0041 -0.0269
16571SOL    HW152605   5.336   8.478   8.538 -1.1747 -0.5986  1.8591
16571SOL    HW252606   5.374   8.624   8.522 -3.7672 -0.1111 -0.4706
16572SOL     OW52607   7.032   6.761   4.891 -0.2528 -0.6802  0.0685
16572SOL    HW152608   6.998   6.697   4.829 -5.7492  0.4656  1.3479
16572SOL    HW252609   7.026   6.716   4.976  0.2140  0.0960  0.5204
16573SOL     OW52610   7.084   4.342   2.225 -0.5075  0.2215 -0.2239
16573SOL    HW152611   7.009   4.287   2.246 -0.5941  0.4357  0.0222
16573SOL    HW252612   7.123   4.365   2.310  0.8020 -1.2220 -0.3837
16574SOL     OW52613   6.785   4.143   6.533  0.1214 -0.0780 -0.2141
16574SOL    HW152614   6.875   4.171   6.517  0.4051 -0.5337  0.5438
16574SOL    HW252615   6.731   4.216   6.503  0.6950 -0.1370 -1.4602
16575SOL     OW52616   5.376   2.436   9.043 -0.3789 -0.2090  0.1733
16575SOL    HW152617   5.444   2.371   9.061  0.7350  0.5273 -1.2576
16575SOL    HW252618   5.381   2.452   8.949 -1.8250  0.6650  0.2022
16576SOL     OW52619   9.510   5.818   4.551  0.7124  0.1867  0.0444
16576SOL    HW152620   9.515   5.856   4.638  1.2176  0.4138 -0.0815
16576SOL    HW252621   9.587   5.850   4.506  0.0230  0.7436 -0.7676
16577SOL     OW52622   9.166   7.094   2.304 -0.3482 -1.1818 -0.3025
16577SOL    HW152623   9.082   7.140   2.308  0.1122 -0.3604 -0.0070
16577SOL    HW252624   9.159   7.026   2.372 -0.1416 -0.0227  0.9250
16578SOL     OW52625   8.222   5.320   9.244  0.5553 -0.7251  0.2736
16578SOL    HW152626   8.182   5.353   9.164  0.9179 -2.3305 -0.6170
16578SOL    HW252627   8.273   5.244   9.216  1.0204 -1.0923  1.9725
16579SOL     OW52628   8.333   2.503   7.023 -0.6657 -0.0858 -0.2710
16579SOL    HW152629   8.357   2.511   7.115 -1.3857 -0.3517 -0.0491
16579SOL    HW252630   8.248   2.548   7.017 -1.2017 -1.1105 -0.5428
16580SOL     OW52631   9.352   5.006   0.883  0.4914  0.3992  0.2453
16580SOL    HW152632   9.388   4.919   0.867  2.5944  1.2657 -0.0309
16580SOL    HW252633   9.324   5.004   0.974 -0.4315 -0.8487 -0.0336
16581SOL     OW52634   1.479   0.244   3.296 -0.1393  0.1707  0.4667
16581SOL    HW152635   1.538   0.222   3.224  0.6261  0.4064  1.0136
16581SOL    HW252636   1.431   0.320   3.264  0.3240  0.3856  0.2709
16582SOL     OW52637   6.973   2.826   6.269  0.0313  0.1750  0.3160
16582SOL    HW152638   6.977   2.861   6.358 -0.0898  3.9514 -0.9710
16582SOL    HW252639   7.062   2.833   6.236 -0.6925  3.5310 -1.3022
16583SOL     OW52640   4.562   9.137   2.583  0.1440 -0.0650 -0.0912
16583SOL    HW152641   4.518   9.054   2.565  0.4606 -0.2869  0.1481
16583SOL    HW252642   4.592   9.130   2.673 -0.5635  0.6490  0.2161
16584SOL     OW52643   7.989   4.864   6.488  0.4251 -0.2005 -0.1366
16584SOL    HW152644   7.968   4.834   6.576 -1.3884 -1.9122 -1.0798
16584SOL    HW252645   8.066   4.920   6.499 -0.0120 -0.0263  2.5573
16585SOL     OW52646   0.240   6.860   7.769  0.2852 -0.1100  0.2857
16585SOL    HW152647   0.170   6.861   7.704  2.1170 -2.2012 -1.8949
16585SOL    HW252648   0.269   6.951   7.773 -0.7976  0.3146 -0.7825
16586SOL     OW52649   4.521   4.160   7.390 -0.2760 -0.5665 -0.2671
16586SOL    HW152650   4.454   4.203   7.443  0.1079  0.8248 -0.8766
16586SOL    HW252651   4.556   4.229   7.334 -1.2350 -2.1005 -2.9867
16587SOL     OW52652   4.881   0.555   3.017  0.0507 -0.0672  0.0717
16587SOL    HW152653   4.941   0.622   2.986 -0.6550 -0.0082 -1.2268
16587SOL    HW252654   4.830   0.598   3.086 -0.7525  0.9134 -1.1056
16588SOL     OW52655   3.578   8.645   9.612  0.1439 -0.1430  0.5336
16588SOL    HW152656   3.501   8.626   9.666  0.0916  0.5778  0.7246
16588SOL    HW252657   3.545   8.698   9.540  0.2737 -0.8241 -0.0324
16589SOL     OW52658   1.868   3.813   5.426  0.1647  0.0357  0.7160
16589SOL    HW152659   1.904   3.778   5.344 -0.3158 -0.4421  0.7075
16589SOL    HW252660   1.832   3.737   5.471 -0.4832  0.4468  0.9033
16590SOL     OW52661   1.721   2.820   5.169  0.1608  0.0482 -0.4612
16590SOL    HW152662   1.734   2.901   5.219 -0.3521 -0.2213  0.1146
16590SOL    HW252663   1.770   2.754   5.219  0.7808  0.0446 -1.0620
16591SOL     OW52664   2.020   9.414   5.392  0.8279 -0.1865 -0.1130
16591SOL    HW152665   2.082   9.390   5.460  0.9877 -0.0432 -0.2048
16591SOL    HW252666   2.069   9.403   5.310  1.9448  3.1966 -0.0849
16592SOL     OW52667   8.187   8.434   9.220  0.3543  0.1966  0.0850
16592SOL    HW152668   8.162   8.515   9.176  0.7081  1.0140  1.3746
16592SOL    HW252669   8.248   8.460   9.288 -0.2121 -1.0434  1.1173
16593SOL     OW52670   0.502   3.382   8.922 -0.3992 -0.4697  0.0858
16593SOL    HW152671   0.458   3.326   8.985  2.4349  0.0949  2.8690
16593SOL    HW252672   0.559   3.438   8.975  4.6381 -2.0008 -2.9836
16594SOL     OW52673   4.896   2.282   1.110 -0.0975  0.5083  0.1404
16594SOL    HW152674   4.875   2.373   1.093 -2.8089 -0.0520  0.0401
16594SOL    HW252675   4.919   2.246   1.025  2.1854  1.3012  0.3553
16595SOL     OW52676   2.537   4.633   5.344 -0.3299 -0.1036  0.0753
16595SOL    HW152677   2.501   4.635   5.255  0.2067  2.1678 -0.1496
16595SOL    HW252678   2.623   4.592   5.334 -0.9068 -1.3040 -0.1561
16596SOL     OW52679   3.116   1.789   7.678 -0.3718  0.0808 -0.4574
16596SOL    HW152680   3.093   1.868   7.629  0.6833  0.9366  0.3794
16596SOL    HW252681   3.068   1.797   7.760  0.2026  0.1630 -0.1245
16597SOL     OW52682   8.614   4.526   6.841 -0.0852 -0.2524 -0.1187
16597SOL    HW152683   8.605   4.600   6.781  1.2658  0.3036  0.3317
16597SOL    HW252684   8.527   4.519   6.882 -0.5793  0.3102 -1.0263
16598SOL     OW52685   9.582   6.085   2.824 -0.4188  0.2303  0.6601
16598SOL    HW152686   9.670   6.094   2.861 -0.1461  0.4735 -0.0391
16598SOL    HW252687   9.574   6.158   2.763 -0.0591 -1.3117 -1.3438
16599SOL     OW52688   6.378   8.825   5.353 -0.1243  0.7109 -0.1113
16599SOL    HW152689   6.304   8.879   5.378 -1.5583 -0.9723 -0.5146
16599SOL    HW252690   6.352   8.736   5.378  0.7781 -0.2484 -2.3711
16600SOL     OW52691   6.027   8.709   5.698  0.0601  0.1037 -0.1322
16600SOL    HW152692   5.949   8.720   5.752 -0.3548 -0.8706 -0.5142
16600SOL    HW252693   6.085   8.781   5.725 -0.6314  0.3595  0.7241
16601SOL     OW52694   2.458   1.800   1.817  0.7435  0.0169 -0.1403
16601SOL    HW152695   2.522   1.740   1.855  1.1122  0.8317  0.5622
16601SOL    HW252696   2.377   1.782   1.863  1.4329  1.7503  1.9371
16602SOL     OW52697   2.591   8.667   6.284  0.3624  0.8395  0.0664
16602SOL    HW152698   2.579   8.668   6.379  0.3539  1.0467  0.0630
16602SOL    HW252699   2.524   8.726   6.250 -0.3300 -0.0523 -0.1471
16603SOL     OW52700   9.133   7.124   5.619  0.0856 -0.3619 -0.7223
16603SOL    HW152701   9.043   7.092   5.628 -0.2972  0.7013 -0.6589
16603SOL    HW252702   9.126   7.197   5.558  1.0122 -0.6819 -1.2227
16604SOL     OW52703   6.352   5.140   7.473 -0.3027  0.8408  0.3226
16604SOL    HW152704   6.370   5.091   7.393 -2.0222 -0.3146  0.5786
16604SOL    HW252705   6.307   5.219   7.444 -1.0980  0.3323  0.1341
16605SOL     OW52706   3.300   2.524   8.214  0.2105 -0.3263 -0.2167
16605SOL    HW152707   3.255   2.441   8.232 -0.3812  0.0666  0.1465
16605SOL    HW252708   3.383   2.498   8.175  1.3679 -1.2504  2.5859
16606SOL     OW52709   3.178   8.861   9.362 -0.7738  0.0095  0.4806
16606SOL    HW152710   3.120   8.800   9.317  0.3531 -2.1356  1.7471
16606SOL    HW252711   3.119   8.926   9.400 -2.0577 -0.4205 -0.6987
16607SOL     OW52712   0.211   1.249   4.328  0.0242  0.0108 -0.0780
16607SOL    HW152713   0.203   1.266   4.422  0.5912  0.4144 -0.0993
16607SOL    HW252714   0.229   1.156   4.321 -1.4149 -0.3075  0.1369
16608SOL     OW52715   1.591   8.446   4.327 -0.5266  0.0587  0.5845
16608SOL    HW152716   1.634   8.524   4.361 -3.1312  1.7645  0.3109
16608SOL    HW252717   1.619   8.442   4.236  1.7917 -1.0147  1.2961
16609SOL     OW52718   5.684   8.388   9.627 -0.2943  0.3676  0.1911
16609SOL    HW152719   5.607   8.434   9.595 -0.5785 -0.7994 -0.8526
16609SOL    HW252720   5.674   8.389   9.723 -0.2196  2.5383  0.2072
16610SOL     OW52721   9.485   6.767   5.376 -0.2520  0.3862 -0.2879
16610SOL    HW152722   9.553   6.700   5.368 -0.6429  0.1114 -1.6070
16610SOL    HW252723   9.412   6.733   5.323 -0.2578  2.1017 -1.4307
16611SOL     OW52724   5.002   3.174   2.265 -0.3987  0.4590 -0.3468
16611SOL    HW152725   5.092   3.156   2.293 -0.7138 -2.2131 -0.7839
16611SOL    HW252726   4.955   3.195   2.345  0.1072 -0.5309  0.2138
16612SOL     OW52727   9.554   1.955   2.923  0.3202 -0.1648  0.3027
16612SOL    HW152728   9.516   2.043   2.927  0.3056 -0.1339 -0.3610
16612SOL    HW252729   9.496   1.908   2.862  0.7432 -0.4193  0.0972
16613SOL     OW52730   1.059   0.799   0.423 -0.1337 -0.4328  0.3946
16613SOL    HW152731   1.008   0.829   0.348  0.2940 -0.6919 -0.0007
16613SOL    HW252732   1.137   0.855   0.423  1.0105 -1.9335 -0.7507
16614SOL     OW52733   0.056   7.510   4.133  0.1604 -0.0270  0.1112
16614SOL    HW152734   0.042   7.500   4.039  0.5137 -0.1525  0.0733
16614SOL    HW252735   0.041   7.422   4.169 -0.3868  0.1060  0.2270
16615SOL     OW52736   5.985   6.289   8.033  0.0823  0.0995 -0.2636
16615SOL    HW152737   5.951   6.266   8.119 -0.7998  2.5050  0.1170
16615SOL    HW252738   5.939   6.230   7.973  1.3884 -2.2607  0.8929
16616SOL     OW52739   5.507   8.242   7.601 -0.2330 -0.0900  0.8552
16616SOL    HW152740   5.437   8.203   7.653  1.1303  0.3622  3.1718
16616SOL    HW252741   5.570   8.171   7.588  0.3648  0.2857  1.6034
16617SOL     OW52742   7.166   0.261   0.658 -0.5536 -0.1795 -0.4582
16617SOL    HW152743   7.088   0.224   0.699  0.3045 -0.5796  0.8775
16617SOL    HW252744   7.224   0.186   0.645 -0.1310  0.2077 -0.8247
16618SOL     OW52745   1.473   1.310   6.450 -0.1717 -1.0655 -0.1584
16618SOL    HW152746   1.387   1.269   6.440 -0.3493 -0.6587 -0.3450
16618SOL    HW252747   1.472   1.345   6.539  0.1099 -1.7519  0.1209
16619SOL     OW52748   3.005   2.417   3.282 -0.2447 -0.2130 -0.2273
16619SOL    HW152749   3.064   2.361   3.231 -1.0786 -1.4664  0.1520
16619SOL    HW252750   3.017   2.504   3.243  3.1814  0.0333  0.9738
16620SOL     OW52751   1.101   6.101   0.543 -0.2275  0.0130 -0.2563
16620SOL    HW152752   1.151   6.033   0.499 -0.9247 -1.0754  0.5914
16620SOL    HW252753   1.025   6.056   0.579 -1.7100  1.5516 -1.2783
16621SOL     OW52754   2.848   2.064   9.179  0.7025 -0.1695  0.2564
16621SOL    HW152755   2.909   2.082   9.250  1.8629 -0.2847 -0.6909
16621SOL    HW252756   2.836   2.148   9.135  0.3637 -0.2008  0.2791
16622SOL     OW52757   3.818   1.652   0.197 -0.0996 -0.5353 -0.1156
16622SOL    HW152758   3.907   1.653   0.232 -1.1650  1.7545  2.8780
16622SOL    HW252759   3.830   1.652   0.102  3.0117 -2.2914  0.1393
16623SOL     OW52760   0.201   1.831   4.733  0.2060  0.3468  0.0033
16623SOL    HW152761   0.131   1.887   4.699  0.8377  1.1146 -0.0467
16623SOL    HW252762   0.226   1.871   4.816  0.8399  0.2892 -0.1548
16624SOL     OW52763   6.578   6.416   6.391 -0.3571 -0.6426 -0.1320
16624SOL    HW152764   6.554   6.404   6.482  1.4156  0.6581  0.5530
16624SOL    HW252765   6.634   6.494   6.390 -1.1457 -0.0030 -2.4713
16625SOL     OW52766   3.268   9.144   7.637  0.2662  0.3287 -0.7596
16625SOL    HW152767   3.218   9.168   7.715  0.9602  0.8549 -0.4670
16625SOL    HW252768   3.315   9.224   7.613  0.4645  0.0264 -1.4137
16626SOL     OW52769   8.274   3.325   6.964 -0.0464  0.4896 -0.1989
16626SOL    HW152770   8.318   3.340   6.881 -1.8236  0.7351 -1.1594
16626SOL    HW252771   8.209   3.257   6.945  1.6146 -1.8486  1.8059
16627SOL     OW52772   8.070   0.091   6.374 -0.3219  0.2028 -0.2579
16627SOL    HW152773   7.987   0.054   6.345 -0.1790 -0.0074 -0.4061
16627SOL    HW252774   8.063   0.095   6.470 -0.9437  1.2558 -0.3403
16628SOL     OW52775   8.644   3.800   9.234  0.0969 -0.2884  0.1971
16628SOL    HW152776   8.569   3.797   9.293  0.1694  0.1997  0.3167
16628SOL    HW252777   8.701   3.729   9.264  0.2502  0.1105  0.8658
16629SOL     OW52778   9.286   9.568   5.888  0.1476 -0.3933 -0.2115
16629SOL    HW152779   9.277   9.592   5.796  1.5014 -1.0203 -0.5338
16629SOL    HW252780   9.292   9.473   5.888  1.5898 -0.3287  0.3507
16630SOL     OW52781   1.729   6.305   4.021  0.5277 -0.5679 -0.1490
16630SOL    HW152782   1.690   6.374   3.968  1.5073 -0.5919 -0.9132
16630SOL    HW252783   1.823   6.310   4.003  0.6336 -1.9872 -0.1067
16631SOL     OW52784   5.727   1.285   0.240 -0.1548 -0.5232 -0.4039
16631SOL    HW152785   5.676   1.215   0.280 -0.2883 -0.2101 -0.0181
16631SOL    HW252786   5.763   1.334   0.314  1.3741 -1.2102 -0.6585
16632SOL     OW52787   2.845   1.768   9.498  0.2608 -0.0833  0.5289
16632SOL    HW152788   2.789   1.845   9.505  0.4401  0.0594  0.3829
16632SOL    HW252789   2.866   1.745   9.588  0.0528 -0.0750  0.5800
16633SOL     OW52790   8.384   6.434   8.581  0.1256 -0.1980 -0.0591
16633SOL    HW152791   8.359   6.402   8.494 -1.5569  1.1135 -0.1382
16633SOL    HW252792   8.340   6.519   8.588 -0.3889 -0.5789  2.3522
16634SOL     OW52793   8.260   7.260   1.585 -0.4329  0.3253 -0.1202
16634SOL    HW152794   8.176   7.281   1.628 -0.4179 -0.7227  0.4754
16634SOL    HW252795   8.248   7.170   1.554  0.5881  0.0418  0.2783
16635SOL     OW52796   6.056   9.265   4.882 -0.6842  0.5748  0.1867
16635SOL    HW152797   6.061   9.174   4.853  0.7569  0.3900  0.8746
16635SOL    HW252798   5.963   9.287   4.879 -0.8407 -0.1301 -2.3029
16636SOL     OW52799   2.527   1.768   4.728  0.3047  0.0023 -0.3580
16636SOL    HW152800   2.509   1.768   4.821 -0.7152 -0.3987 -0.5428
16636SOL    HW252801   2.443   1.747   4.687  0.6858  0.4012 -1.3744
16637SOL     OW52802   6.090   1.966   1.479  0.1188 -0.5776  0.3433
16637SOL    HW152803   6.167   1.984   1.425 -0.1554 -0.3714  0.0167
16637SOL    HW252804   6.039   1.903   1.427 -0.0695 -0.4981  0.4339
16638SOL     OW52805   3.266   0.222   2.201  0.4310  0.0414  0.3826
16638SOL    HW152806   3.332   0.172   2.152  0.1168 -0.0571  0.0605
16638SOL    HW252807   3.194   0.234   2.140 -0.9614 -2.0859  1.4865
16639SOL     OW52808   4.581   5.549   4.975  0.6222  0.1780  0.2674
16639SOL    HW152809   4.509   5.489   4.993  1.3436 -0.4947  1.0192
16639SOL    HW252810   4.578   5.613   5.046  2.7972 -1.8390  2.3751
16640SOL     OW52811   1.058   9.603   8.415 -0.3414 -0.2178 -0.3151
16640SOL    HW152812   1.126   9.670   8.411 -0.6803  0.1349 -0.2820
16640SOL    HW252813   0.987   9.638   8.360 -1.3300  0.3942  1.2862
16641SOL     OW52814   2.355   2.290   6.721 -0.5523  0.2530 -0.0819
16641SOL    HW152815   2.353   2.381   6.750 -0.0321  0.3253 -0.2556
16641SOL    HW252816   2.338   2.295   6.627 -2.7983 -0.0236  0.2499
16642SOL     OW52817   8.085   2.466   8.266  0.2417  0.0375  0.1670
16642SOL    HW152818   8.133   2.449   8.347  2.2633  0.8149 -0.8036
16642SOL    HW252819   8.021   2.534   8.290 -1.3412 -1.8929  1.7766
16643SOL     OW52820   0.100   4.895   7.217  0.1345 -0.3299 -0.4081
16643SOL    HW152821   0.150   4.898   7.136 -2.2488  0.3160 -1.9675
16643SOL    HW252822   0.011   4.918   7.191 -0.4387  1.6298  2.6580
16644SOL     OW52823   6.357   6.677   1.924  0.2024  0.4336 -0.6493
16644SOL    HW152824   6.430   6.716   1.972  0.7449  1.1961 -2.0330
16644SOL    HW252825   6.318   6.614   1.985  1.8239  0.2290  0.2087
16645SOL     OW52826   6.933   2.837   8.827 -0.0291  0.4092 -0.1330
16645SOL    HW152827   6.995   2.906   8.805  0.9159  0.1651  1.5460
16645SOL    HW252828   6.986   2.757   8.831 -0.7662 -0.0966 -0.2784
16646SOL     OW52829   7.667   2.432   8.138 -0.2769 -0.3170 -0.0153
16646SOL    HW152830   7.636   2.343   8.155 -0.3805 -0.1547  0.7187
16646SOL    HW252831   7.647   2.479   8.219 -1.4773  0.7207 -0.8805
16647SOL     OW52832   3.182   0.282   3.932  0.2542 -0.1986  0.1870
16647SOL    HW152833   3.119   0.288   3.859 -1.0968 -1.4247  1.1839
16647SOL    HW252834   3.245   0.352   3.915 -0.7333  0.3547 -1.4798
16648SOL     OW52835   8.487   0.110   7.589 -0.1779 -0.3500  0.0947
16648SOL    HW152836   8.579   0.088   7.576  0.1939  2.0698 -2.5682
16648SOL    HW252837   8.489   0.194   7.636 -1.0425 -0.6027  0.5933
16649SOL     OW52838   4.063   7.998   7.270  0.0425  0.0135 -0.4133
16649SOL    HW152839   4.039   7.926   7.329 -2.2214 -0.5692 -1.9347
16649SOL    HW252840   4.068   8.074   7.328  0.0941 -0.9171  0.8679
16650SOL     OW52841   1.324   9.331   0.125 -0.4802  0.4527 -0.2152
16650SOL    HW152842   1.281   9.258   0.170  0.8132  0.3800  0.9664
16650SOL    HW252843   1.352   9.294   0.042  0.4158 -0.5114  0.4856
16651SOL     OW52844   5.066   5.540   1.217 -0.0593 -0.0300  0.1295
16651SOL    HW152845   5.065   5.515   1.309 -0.6598 -0.1104  0.1111
16651SOL    HW252846   5.031   5.629   1.215  1.7976  0.7294  0.1610
16652SOL     OW52847   7.155   2.946   1.603 -0.2742  0.4403  0.3428
16652SOL    HW152848   7.183   2.991   1.683  0.5853  1.6421 -0.5929
16652SOL    HW252849   7.087   2.886   1.632 -1.3444  2.2190  1.7067
16653SOL     OW52850   7.294   7.643   7.789 -0.0630 -0.1433 -0.1753
16653SOL    HW152851   7.349   7.575   7.828 -0.7576 -0.6940 -0.1401
16653SOL    HW252852   7.316   7.642   7.696  1.1615  0.7617  0.0856
16654SOL     OW52853   8.882   6.847   5.010 -0.0621 -0.3969  0.2695
16654SOL    HW152854   8.953   6.875   5.068  0.0337 -3.5334  1.8658
16654SOL    HW252855   8.844   6.929   4.978  1.8597  1.4470  2.3344
16655SOL     OW52856   2.450   4.396   5.075 -0.3262  0.9438 -0.0964
16655SOL    HW152857   2.453   4.492   5.079 -1.9740  1.0735 -1.1018
16655SOL    HW252858   2.399   4.370   5.152 -0.7579  0.9525 -0.3770
16656SOL     OW52859   1.099   4.418   7.575  0.0145  0.6778 -0.3766
16656SOL    HW152860   1.042   4.459   7.510  2.0529  1.1857 -1.9806
16656SOL    HW252861   1.088   4.471   7.654 -0.2605  1.9691 -1.2501
16657SOL     OW52862   1.852   8.082   2.407 -0.7777 -0.1251  0.1230
16657SOL    HW152863   1.853   7.993   2.370 -1.0288 -0.8134  1.6874
16657SOL    HW252864   1.761   8.095   2.436 -0.1152 -0.6707  2.7788
16658SOL     OW52865   7.404   2.366   9.411 -0.1443 -0.1140  0.3485
16658SOL    HW152866   7.414   2.359   9.316 -0.6765  3.6465 -0.1589
16658SOL    HW252867   7.311   2.347   9.426 -0.3852  0.6338 -0.1233
16659SOL     OW52868   1.633   0.417   8.655  0.8896 -0.1940  0.1742
16659SOL    HW152869   1.701   0.424   8.588  1.0328  0.8506  0.4199
16659SOL    HW252870   1.558   0.379   8.609  0.9062  0.7381 -0.6495
16660SOL     OW52871   7.969   7.278   5.966 -0.1357  0.1277  0.1910
16660SOL    HW152872   7.991   7.311   5.880 -1.1827  0.6137  0.0926
16660SOL    HW252873   8.052   7.247   6.002  0.0000 -2.2970 -1.9015
16661SOL     OW52874   7.700   3.416   5.213  0.3710  0.2055 -0.1509
16661SOL    HW152875   7.715   3.507   5.187 -1.5650  0.4452 -0.5715
16661SOL    HW252876   7.690   3.369   5.130  1.1448 -0.3774  0.0699
16662SOL     OW52877   1.470   5.252   7.339  0.5866 -0.6511  0.2592
16662SOL    HW152878   1.550   5.304   7.334  1.1217 -1.3860  0.8123
16662SOL    HW252879   1.496   5.174   7.389 -0.6292 -0.6252  0.9598
16663SOL     OW52880   3.745   4.362   1.673  0.2769 -0.4130 -0.3406
16663SOL    HW152881   3.777   4.445   1.639 -0.3259 -0.2598 -0.5373
16663SOL    HW252882   3.788   4.353   1.758  0.5428 -0.0251 -0.4310
16664SOL     OW52883   2.063   3.948   4.329  0.1770 -0.1680 -0.1137
16664SOL    HW152884   2.151   3.987   4.322 -0.5431  1.4891 -0.5482
16664SOL    HW252885   2.064   3.902   4.412  0.9580  1.2484  0.7093
16665SOL     OW52886   1.273   8.326   8.508 -0.4938  0.1856  0.2175
16665SOL    HW152887   1.322   8.378   8.444  0.0714 -0.6599 -0.0570
16665SOL    HW252888   1.225   8.390   8.560  0.3334  0.9926  0.0086
16666SOL     OW52889   4.051   8.330   5.609  0.0821 -0.3506 -0.2162
16666SOL    HW152890   4.015   8.283   5.534 -2.0390 -0.1611  0.6117
16666SOL    HW252891   4.019   8.282   5.686  2.2025 -0.5412  0.5962
16667SOL     OW52892   1.403   4.508   3.241 -0.8568 -0.4320 -0.0715
16667SOL    HW152893   1.375   4.578   3.300 -0.1844  0.0324 -0.2836
16667SOL    HW252894   1.462   4.551   3.180  1.6166 -1.6117  1.3181
16668SOL     OW52895   9.027   2.662   4.151 -0.1492  0.4821 -0.5979
16668SOL    HW152896   8.991   2.737   4.104  0.7391  0.4301 -1.3906
16668SOL    HW252897   8.964   2.646   4.222 -0.8361  1.3761 -0.9799
16669SOL     OW52898   7.335   5.624   2.416  0.0669 -0.6582 -0.4377
16669SOL    HW152899   7.329   5.695   2.480  0.6011 -0.1257 -0.9658
16669SOL    HW252900   7.378   5.553   2.464  0.6543 -0.1901 -0.2569
16670SOL     OW52901   9.010   7.069   6.694  0.3005 -0.1696 -0.3615
16670SOL    HW152902   9.053   6.998   6.742  1.2732  0.8107  0.2526
16670SOL    HW252903   8.946   7.105   6.755  0.4050  0.0294 -0.3672
16671SOL     OW52904   7.548   1.458   5.500 -0.0250 -0.2142  0.4317
16671SOL    HW152905   7.576   1.512   5.574 -0.5271  0.3712  0.2047
16671SOL    HW252906   7.483   1.512   5.454  1.1846 -0.0543 -1.1623
16672SOL     OW52907   4.116   2.713   3.272  0.8767  1.2870  0.0491
16672SOL    HW152908   4.061   2.684   3.199 -0.2566  0.6922  1.0981
16672SOL    HW252909   4.055   2.761   3.329  0.6506 -1.8689  2.7390
16673SOL     OW52910   2.672   4.170   2.205  0.6423  0.4663 -0.1484
16673SOL    HW152911   2.700   4.237   2.267  0.7635 -0.6278  1.0019
16673SOL    HW252912   2.640   4.220   2.129 -0.0070  1.8527  0.9886
16674SOL     OW52913   1.983   1.931   0.141  0.1936 -0.2925 -0.0577
16674SOL    HW152914   1.957   1.986   0.066 -1.3182  0.1038  0.7058
16674SOL    HW252915   1.901   1.888   0.167  0.6301 -0.1950  1.5402
16675SOL     OW52916   8.151   6.207   1.017 -0.5104  0.0140 -0.1683
16675SOL    HW152917   8.139   6.193   0.923 -2.6355  0.7906 -0.0812
16675SOL    HW252918   8.227   6.264   1.024  0.0420 -0.5470 -1.3636
16676SOL     OW52919   5.914   4.633   3.530 -0.2057  0.5988  0.4303
16676SOL    HW152920   5.990   4.644   3.587  1.0597 -0.9839 -0.8723
16676SOL    HW252921   5.839   4.633   3.590  0.8975  0.9390  1.8642
16677SOL     OW52922   8.845   2.436   6.813  0.2550 -0.5484  0.5802
16677SOL    HW152923   8.907   2.497   6.774  0.8428 -0.4151  1.6798
16677SOL    HW252924   8.784   2.491   6.862 -0.2513 -0.7363  0.1720
16678SOL     OW52925   6.923   9.144   2.754  0.0443 -0.2743  0.3010
16678SOL    HW152926   6.955   9.215   2.698 -1.9795 -0.9704 -1.9476
16678SOL    HW252927   6.943   9.064   2.704 -0.2724 -1.0665  1.4101
16679SOL     OW52928   8.209   5.826   6.867 -0.1623  0.1633 -0.1278
16679SOL    HW152929   8.266   5.873   6.806 -1.5497  1.9278 -0.1464
16679SOL    HW252930   8.161   5.764   6.812  0.8632 -0.5322 -0.2817
16680SOL     OW52931   6.200   7.454   7.435 -0.2382  0.1069  0.1211
16680SOL    HW152932   6.236   7.508   7.364 -0.5640  0.3864  0.1620
16680SOL    HW252933   6.265   7.457   7.504  1.2354 -2.1405 -1.0470
16681SOL     OW52934   8.408   3.868   7.541  0.3673  0.0890  0.0743
16681SOL    HW152935   8.452   3.945   7.578 -1.1904  0.6805  0.7808
16681SOL    HW252936   8.401   3.887   7.448  1.3911  0.0688 -0.0250
16682SOL     OW52937   6.464   8.403   8.543 -0.1099 -0.1651  0.0359
16682SOL    HW152938   6.535   8.343   8.568 -0.3898 -1.1642 -1.4132
16682SOL    HW252939   6.395   8.387   8.607  0.4084 -0.2696  0.5761
16683SOL     OW52940   7.566   0.805   0.819 -0.2672  0.1472 -0.5083
16683SOL    HW152941   7.508   0.747   0.770 -1.9275  1.4825 -0.2386
16683SOL    HW252942   7.629   0.747   0.861 -1.1779 -1.3439 -1.1146
16684SOL     OW52943   3.607   0.199   5.302 -0.1042  0.3006 -0.1493
16684SOL    HW152944   3.600   0.178   5.209  2.3184  2.6045 -0.9957
16684SOL    HW252945   3.695   0.170   5.327 -0.9616 -0.9138  1.6684
16685SOL     OW52946   0.005   2.749   7.603 -0.8136 -0.4250  0.2414
16685SOL    HW152947   0.057   2.746   7.522 -2.4614 -0.2641 -0.8784
16685SOL    HW252948  -0.080   2.786   7.575 -1.1346  0.4417  2.2176
16686SOL     OW52949   3.772   0.415   8.234  0.0664 -0.2801  0.5669
16686SOL    HW152950   3.778   0.386   8.325  1.3420 -1.5123  0.1118
16686SOL    HW252951   3.698   0.365   8.198 -0.8977  0.7210  1.0680
16687SOL     OW52952   9.178   8.538   6.314  0.2495  0.6948 -0.0084
16687SOL    HW152953   9.262   8.522   6.271  0.0503  0.3254 -0.2616
16687SOL    HW252954   9.165   8.462   6.370  0.0562  0.7270 -0.0108
16688SOL     OW52955   1.062   9.280   7.878  0.6606  0.4016  0.1797
16688SOL    HW152956   1.063   9.357   7.821  1.9639  0.1700 -0.1467
16688SOL    HW252957   1.093   9.313   7.963  0.7038  0.3488  0.1847
16689SOL     OW52958   8.690   0.139   4.725  0.2016  0.4132  0.0631
16689SOL    HW152959   8.609   0.106   4.686 -0.8298  1.3978  1.2808
16689SOL    HW252960   8.682   0.234   4.720  0.8147  0.5328  1.0896
16690SOL     OW52961   3.838   6.735   7.172  0.2019 -0.1427  0.1388
16690SOL    HW152962   3.800   6.647   7.181  1.0837 -0.4892  0.5670
16690SOL    HW252963   3.794   6.787   7.240 -1.8311  0.3109 -1.4298
16691SOL     OW52964   8.986   0.384   2.167 -0.4183  0.0453 -0.4657
16691SOL    HW152965   9.068   0.366   2.213 -0.2537 -1.5651 -1.3194
16691SOL    HW252966   8.923   0.401   2.237  0.2842 -0.2957  0.2632
16692SOL     OW52967   4.684   0.525   6.279  0.0752  0.1496  0.0775
16692SOL    HW152968   4.742   0.584   6.231  1.1620 -0.9996 -0.0865
16692SOL    HW252969   4.596   0.554   6.257  0.5524  2.2667  0.7275
16693SOL     OW52970   8.336   9.326   4.240 -1.5902  0.2161 -0.4375
16693SOL    HW152971   8.391   9.400   4.268 -0.2040 -1.2493  0.8974
16693SOL    HW252972   8.369   9.304   4.153 -0.6477 -0.0625 -0.0236
16694SOL     OW52973   1.528   0.036   2.095  0.3969 -0.4612 -0.9375
16694SOL    HW152974   1.451   0.091   2.080  0.2432 -0.6635 -0.8973
16694SOL    HW252975   1.511  -0.042   2.043  0.4834 -0.5926 -0.7690
16695SOL     OW52976   2.358   3.873   2.591 -0.1395 -0.1285  0.6068
16695SOL    HW152977   2.432   3.879   2.651  0.0668 -0.8889  0.4443
16695SOL    HW252978   2.387   3.919   2.512 -0.9516  2.1709  1.5602
16696SOL     OW52979   6.941   1.147   6.552 -0.3665 -0.3250  0.3670
16696SOL    HW152980   7.036   1.158   6.564 -0.5044  0.7348  0.5335
16696SOL    HW252981   6.910   1.111   6.635 -0.0446 -1.1993  0.1269
16697SOL     OW52982   6.559   4.376   5.841 -0.1310  0.0300 -0.4998
16697SOL    HW152983   6.542   4.428   5.762 -1.5741  1.5294  0.7243
16697SOL    HW252984   6.631   4.422   5.885  1.2179 -1.2531 -1.2786
16698SOL     OW52985   9.616   1.530   8.836 -0.8200  0.2775  0.6261
16698SOL    HW152986   9.636   1.617   8.799  3.0493 -0.6378  0.1882
16698SOL    HW252987   9.600   1.547   8.929  1.4959  1.3830  0.8971
16699SOL     OW52988   0.807   0.678   3.428 -0.2783 -0.3508 -0.1704
16699SOL    HW152989   0.863   0.611   3.467 -0.7390 -0.9078 -0.4443
16699SOL    HW252990   0.798   0.745   3.495  0.3941 -0.4428  0.0176
16700SOL     OW52991   4.599   8.243   3.434 -0.3414 -0.6081  0.3355
16700SOL    HW152992   4.666   8.182   3.466  0.6414  0.3007  0.0943
16700SOL    HW252993   4.603   8.317   3.495  0.3253  0.3569 -0.8245
16701SOL     OW52994   6.481   1.777   6.561  0.4999  0.5285 -0.4861
16701SOL    HW152995   6.452   1.797   6.471  0.1553 -1.3787 -0.8507
16701SOL    HW252996   6.459   1.684   6.572 -0.1048  0.9053  1.8351
16702SOL     OW52997   8.885   0.657   5.646  0.5581  0.2766  0.7658
16702SOL    HW152998   8.970   0.676   5.607  1.2954 -0.4416  1.9673
16702SOL    HW252999   8.861   0.738   5.691  0.0032  0.8926 -0.5780
16703SOL     OW53000   5.907   3.603   7.483 -0.0977 -0.0894 -0.2439
16703SOL    HW153001   5.922   3.508   7.481  3.2441  0.2944  0.6330
16703SOL    HW253002   5.900   3.628   7.391 -3.8179 -1.4040 -0.4787
16704SOL     OW53003   7.572   1.709   0.953 -0.8484  0.0567  0.0214
16704SOL    HW153004   7.590   1.652   0.879  2.0094  0.9124 -0.0665
16704SOL    HW253005   7.595   1.657   1.030 -1.1609  0.0967  0.1455
16705SOL     OW53006   4.408   6.672   3.578 -0.6088 -0.1423 -0.4373
16705SOL    HW153007   4.397   6.691   3.485 -1.7501 -2.0080 -0.7235
16705SOL    HW253008   4.321   6.683   3.616 -0.2818 -0.0220  0.2983
16706SOL     OW53009   4.953   0.761   7.112  0.3750  0.2086 -0.0096
16706SOL    HW153010   5.009   0.776   7.188 -0.0879 -1.0818  0.6134
16706SOL    HW253011   4.948   0.666   7.104 -1.3523  0.3007 -0.3255
16707SOL     OW53012   0.533   6.482   4.949 -0.1635 -0.0694 -0.5040
16707SOL    HW153013   0.580   6.406   4.915  1.4382 -0.3480  2.0613
16707SOL    HW253014   0.442   6.452   4.959 -0.0403 -0.8700 -1.6160
16708SOL     OW53015   4.359   4.612   7.134 -0.5886  0.6226  0.1564
16708SOL    HW153016   4.338   4.619   7.041  0.8271  1.7116 -0.1230
16708SOL    HW253017   4.433   4.673   7.146 -0.5971  0.3231  1.9382
16709SOL     OW53018   0.988   2.762   1.978  0.3101  0.2857 -0.3596
16709SOL    HW153019   0.912   2.712   2.007  0.7954 -0.1981  0.1270
16709SOL    HW253020   0.974   2.850   2.012  0.8085 -0.2428  1.3285
16710SOL     OW53021   6.974   9.309   7.808 -0.0220  0.5730 -0.0163
16710SOL    HW153022   6.936   9.332   7.892  0.4668  0.6585  0.1828
16710SOL    HW253023   7.026   9.385   7.783 -1.3066  1.1318 -1.0819
16711SOL     OW53024   6.913   0.531   7.279 -0.1389 -0.2033 -0.0179
16711SOL    HW153025   6.902   0.620   7.312  0.1705 -0.5775  1.1320
16711SOL    HW253026   6.847   0.523   7.209  0.2409  1.1128 -0.5637
16712SOL     OW53027   1.087   0.156   1.531 -0.1688 -0.1173  0.3704
16712SOL    HW153028   1.158   0.118   1.583 -0.3312  0.3889  0.9815
16712SOL    HW253029   1.072   0.242   1.572 -1.7161 -0.5683  0.8039
16713SOL     OW53030   1.836   3.296   6.035 -0.0467  0.5067 -0.3205
16713SOL    HW153031   1.905   3.250   6.083 -1.3827 -0.5848  0.5899
16713SOL    HW253032   1.818   3.240   5.960 -1.7960 -0.6237  0.8825
16714SOL     OW53033   9.491   3.754   0.500  0.5106  0.1047 -0.1106
16714SOL    HW153034   9.399   3.781   0.509  0.3924 -0.0821 -0.7180
16714SOL    HW253035   9.497   3.719   0.411  1.4319  1.1684 -0.4941
16715SOL     OW53036   7.167   5.635   4.170  0.1096  0.8381  0.1035
16715SOL    HW153037   7.227   5.674   4.105 -0.5341  0.7275 -0.5743
16715SOL    HW253038   7.108   5.707   4.193  0.6577  1.0271  0.9885
16716SOL     OW53039   6.400   5.767   2.552  0.2158 -0.0302  0.0799
16716SOL    HW153040   6.479   5.815   2.577 -0.9139  2.0535 -0.1873
16716SOL    HW253041   6.409   5.753   2.458  0.4985 -0.2980  0.1426
16717SOL     OW53042   6.047   0.975   0.280 -0.6728 -0.1412 -0.4142
16717SOL    HW153043   6.064   0.985   0.373 -2.3790 -0.3227 -0.0481
16717SOL    HW253044   5.990   0.898   0.274 -0.4144 -0.2598 -1.6310
16718SOL     OW53045   8.952   2.034   9.483 -0.4741 -0.2773  0.4099
16718SOL    HW153046   8.893   2.106   9.461 -0.3234 -0.2565  0.0650
16718SOL    HW253047   8.906   1.955   9.454  0.2670 -0.1582 -1.1875
16719SOL     OW53048   3.747   1.834   4.767 -0.7292  0.1265  0.4121
16719SOL    HW153049   3.767   1.884   4.688  1.1654  0.9659  1.3500
16719SOL    HW253050   3.737   1.744   4.736 -0.0297  0.4380 -0.7942
16720SOL     OW53051   1.148   5.034   7.772 -0.1901  0.4198 -0.0260
16720SOL    HW153052   1.117   5.124   7.779 -1.7939 -0.0387 -0.7676
16720SOL    HW253053   1.093   4.985   7.833  0.2689 -0.1568 -0.0616
16721SOL     OW53054   8.025   1.710   9.053 -0.2609  0.5366  0.5948
16721SOL    HW153055   8.022   1.631   9.000  3.2170 -0.6140  1.8701
16721SOL    HW253056   7.933   1.735   9.064 -1.5336 -3.3722  0.2379
16722SOL     OW53057   5.915   0.303   3.159 -0.0502 -0.3452  0.2467
16722SOL    HW153058   5.890   0.214   3.135  0.4931 -0.5632  0.4665
16722SOL    HW253059   5.960   0.337   3.081 -0.8113 -0.0355 -0.0647
16723SOL     OW53060   7.328   2.661   5.579  0.0184  0.0557  0.1937
16723SOL    HW153061   7.242   2.623   5.562 -0.3502  0.7802  0.4036
16723SOL    HW253062   7.341   2.653   5.673  0.3162 -0.3227  0.1237
16724SOL     OW53063   6.097   7.961   4.183  0.5021 -0.5776 -0.2232
16724SOL    HW153064   6.081   8.017   4.108 -0.1032 -0.1462  0.2166
16724SOL    HW253065   6.121   7.876   4.146 -0.7708 -0.6511 -0.9054
16725SOL     OW53066   7.994   3.871   1.875  0.6272 -0.5342 -0.4509
16725SOL    HW153067   8.026   3.919   1.952 -0.6587  0.4480 -0.4986
16725SOL    HW253068   8.006   3.932   1.802 -1.4278 -0.0605 -0.4450
16726SOL     OW53069   9.502   0.134   1.368  0.2552 -0.2930 -1.0809
16726SOL    HW153070   9.495   0.151   1.462  1.3128 -2.4136 -0.5331
16726SOL    HW253071   9.544   0.212   1.332 -1.0927  0.9805 -0.0012
16727SOL     OW53072   1.022   0.624   6.256  0.2711  0.5186  0.0829
16727SOL    HW153073   1.083   0.622   6.183  0.2797 -0.1111  0.1020
16727SOL    HW253074   1.035   0.540   6.301 -0.9947  0.1289 -0.2276
16728SOL     OW53075   0.085   4.557   6.185  0.2630  0.0051 -0.5119
16728SOL    HW153076   0.160   4.577   6.241  1.4779 -0.6614 -1.8462
16728SOL    HW253077   0.009   4.562   6.244  1.2389  1.5656  0.6732
16729SOL     OW53078   3.239   0.849   2.536  0.0996  0.5811  0.0499
16729SOL    HW153079   3.271   0.859   2.626  1.3898 -0.0642 -0.3022
16729SOL    HW253080   3.279   0.921   2.488  1.7169 -0.6528 -0.5487
16730SOL     OW53081   7.872   2.467   1.192 -0.1995 -0.1309  0.1269
16730SOL    HW153082   7.899   2.535   1.253  0.6153 -1.4042  1.2508
16730SOL    HW253083   7.949   2.411   1.183 -1.0634 -1.3275 -0.1559
16731SOL     OW53084   1.374   1.091   1.397  0.1172 -1.0296  0.0031
16731SOL    HW153085   1.287   1.120   1.367 -0.2923 -1.8336  0.3713
16731SOL    HW253086   1.433   1.116   1.326 -0.1083  1.1460  0.5000
16732SOL     OW53087   1.449   9.343   6.756 -0.3624  0.0210 -0.0405
16732SOL    HW153088   1.378   9.372   6.813  0.5501  1.8188  0.2424
16732SOL    HW253089   1.436   9.248   6.748 -2.4696  0.2224  0.4035
16733SOL     OW53090   9.222   7.801   6.306  0.2060  0.4110 -0.5279
16733SOL    HW153091   9.173   7.781   6.226  0.1406 -1.6695 -0.0380
16733SOL    HW253092   9.155   7.808   6.374  0.4272 -1.1030 -0.1040
16734SOL     OW53093   9.293   6.353   5.296  0.1236  0.1726  0.0066
16734SOL    HW153094   9.207   6.320   5.322  0.4102 -0.1800  0.5230
16734SOL    HW253095   9.355   6.309   5.354  0.8436 -0.9559 -1.5542
16735SOL     OW53096   2.051   7.896   8.368  0.1431 -0.1485  0.2565
16735SOL    HW153097   2.131   7.858   8.331  0.5564  0.8443  0.1214
16735SOL    HW253098   1.981   7.858   8.314  0.5365 -0.7632  0.1573
16736SOL     OW53099   5.884   1.080   6.362  0.0434 -0.1278 -0.2530
16736SOL    HW153100   5.877   1.166   6.321  0.0518  0.4979  1.0027
16736SOL    HW253101   5.978   1.065   6.370  0.0479  0.2670  0.5416
16737SOL     OW53102   5.734   5.885   8.238 -0.4416  0.7046 -0.3497
16737SOL    HW153103   5.821   5.902   8.201  0.6855 -3.2952  0.0007
16737SOL    HW253104   5.752   5.853   8.326 -2.6024  2.9153  1.0055
16738SOL     OW53105   4.499   8.027   2.296  0.7163 -0.1956 -0.3353
16738SOL    HW153106   4.530   8.117   2.310  0.6889 -0.1242 -0.7172
16738SOL    HW253107   4.505   8.014   2.201 -3.0314  0.7735 -0.8630
16739SOL     OW53108   0.014   1.961   4.585 -0.2088 -0.7089  0.2857
16739SOL    HW153109  -0.012   1.979   4.495  0.2574  0.9670  0.4609
16739SOL    HW253110  -0.052   2.005   4.639  1.3090  1.1575  0.7244
16740SOL     OW53111   5.830   0.746   4.050  0.2576  0.0967 -0.0812
16740SOL    HW153112   5.877   0.663   4.048  1.5296  0.7321  1.4379
16740SOL    HW253113   5.894   0.811   4.021 -0.6359  0.6005 -0.9780
16741SOL     OW53114   7.069   2.281   4.763 -0.2675 -0.0210 -0.1084
16741SOL    HW153115   7.020   2.250   4.688 -0.3580  0.7335 -0.3675
16741SOL    HW253116   7.104   2.366   4.736 -1.0883  0.7130  1.0074
16742SOL     OW53117   8.905   6.591   7.387  0.2576  0.0369  0.1750
16742SOL    HW153118   8.942   6.510   7.354 -1.2546 -0.0270 -1.5676
16742SOL    HW253119   8.872   6.570   7.474  1.9106 -0.5637  0.6813
16743SOL     OW53120   8.463   1.168   4.176  0.4067 -0.3525 -0.1875
16743SOL    HW153121   8.400   1.214   4.231  1.3453  0.5691  0.1770
16743SOL    HW253122   8.494   1.095   4.230 -0.0590 -0.5695 -0.2167
16744SOL     OW53123   2.664   4.774   7.224  0.1788  0.2840  0.2370
16744SOL    HW153124   2.667   4.690   7.178 -0.4418 -0.1834  1.0264
16744SOL    HW253125   2.755   4.793   7.245  0.2630 -0.5654  0.6947
16745SOL     OW53126   5.485   1.539   4.959  0.1111 -0.4717  0.0007
16745SOL    HW153127   5.576   1.569   4.954  0.0517 -0.4615 -1.4740
16745SOL    HW253128   5.466   1.537   5.053  0.9443  1.6007  0.2785
16746SOL     OW53129   0.661   4.375   0.202  0.2649  0.3031 -0.3444
16746SOL    HW153130   0.593   4.308   0.204 -0.4975  1.0627 -0.4409
16746SOL    HW253131   0.724   4.348   0.269 -2.0684  1.6178  2.5793
16747SOL     OW53132   6.012   0.726   2.443 -0.7008  0.0067  0.3107
16747SOL    HW153133   6.093   0.678   2.427 -0.7051  0.2692 -0.5835
16747SOL    HW253134   6.025   0.810   2.398 -0.3787  1.1896  2.4809
16748SOL     OW53135   5.172   9.230   1.821 -0.0488  0.2356 -0.0012
16748SOL    HW153136   5.149   9.214   1.729  0.3535  0.6463 -0.1811
16748SOL    HW253137   5.268   9.229   1.821 -0.0484 -0.7337  0.5944
16749SOL     OW53138   2.087   8.619   2.100  0.3523  0.5168 -1.2741
16749SOL    HW153139   2.113   8.536   2.140  1.6836  0.4399 -2.2393
16749SOL    HW253140   2.125   8.617   2.012 -2.6032  0.6304 -2.6613
16750SOL     OW53141   7.516   4.935   9.057 -0.5585 -0.3412  0.1118
16750SOL    HW153142   7.481   4.901   9.139 -2.3863  1.0646 -0.0014
16750SOL    HW253143   7.507   4.863   8.994 -4.5039  0.2058 -0.1914
16751SOL     OW53144   0.244   7.992   4.971  0.0992  0.2159 -0.3166
16751SOL    HW153145   0.224   7.898   4.965  0.4310  0.2184 -1.7492
16751SOL    HW253146   0.214   8.017   5.059 -1.1477 -0.9620 -0.3719
16752SOL     OW53147   4.990   2.414   6.387 -0.6880 -0.1977 -0.2422
16752SOL    HW153148   4.901   2.450   6.394 -0.0629  1.1370  2.3661
16752SOL    HW253149   5.028   2.430   6.474  2.6205  0.7213 -1.7213
16753SOL     OW53150   5.352   7.339   4.304 -0.0273  0.7005 -0.3824
16753SOL    HW153151   5.333   7.371   4.215  2.9012  1.4347 -0.8357
16753SOL    HW253152   5.305   7.256   4.310 -1.1644  1.1428 -2.2115
16754SOL     OW53153   9.336   6.133   4.643 -0.2982  0.5188  0.5934
16754SOL    HW153154   9.365   6.050   4.678 -0.7646  0.0744 -0.0446
16754SOL    HW253155   9.411   6.192   4.654  0.6199 -0.4172 -0.3976
16755SOL     OW53156   3.501   8.303   5.129  0.2870  0.2993  0.3015
16755SOL    HW153157   3.569   8.283   5.065 -0.1825 -0.9616  0.1632
16755SOL    HW253158   3.450   8.222   5.136  0.4221  0.3401  2.3940
16756SOL     OW53159   0.239   6.552   5.232 -0.2160 -0.1241  0.0974
16756SOL    HW153160   0.197   6.553   5.318  0.9711 -0.6957  0.7062
16756SOL    HW253161   0.190   6.487   5.182 -1.3070  0.6584  0.1205
16757SOL     OW53162   6.867   9.270   8.390 -0.5759  0.1813  0.2729
16757SOL    HW153163   6.959   9.274   8.418 -0.0439 -1.1293 -1.1721
16757SOL    HW253164   6.817   9.287   8.470  0.8998 -1.2317  1.5612
16758SOL     OW53165   4.712   1.551   2.078 -0.3607  0.3200 -0.0140
16758SOL    HW153166   4.697   1.527   1.986  1.7425 -0.1416 -0.2907
16758SOL    HW253167   4.721   1.468   2.124 -1.8342  0.5422  0.7301
16759SOL     OW53168   9.283   3.287   2.251  0.6565 -0.1365  0.0159
16759SOL    HW153169   9.246   3.241   2.326 -0.0508 -0.7638 -0.6983
16759SOL    HW253170   9.260   3.233   2.176  2.5066 -0.2127 -0.5436
16760SOL     OW53171   4.046   7.373   0.616  0.1586 -0.1688  0.2787
16760SOL    HW153172   4.065   7.458   0.656 -0.9770 -0.1290  0.7737
16760SOL    HW253173   4.110   7.313   0.655  0.0703  0.1857  0.9809
16761SOL     OW53174   7.280   6.174   1.532  0.0411  0.0190 -0.3946
16761SOL    HW153175   7.262   6.219   1.450 -0.6349 -1.3663 -1.0555
16761SOL    HW253176   7.243   6.231   1.600  1.1011  1.4408 -0.9763
16762SOL     OW53177   7.904   4.484   6.947 -0.1475  0.1711 -0.4497
16762SOL    HW153178   7.923   4.456   6.857 -0.2148 -1.1326 -0.0862
16762SOL    HW253179   7.930   4.409   7.001 -0.0447  0.9595  0.6319
16763SOL     OW53180   8.612   0.227   5.290 -0.4001 -0.1408  0.2225
16763SOL    HW153181   8.575   0.278   5.362  1.6334 -0.4421  1.5389
16763SOL    HW253182   8.598   0.136   5.316 -0.1202 -0.2534 -0.0212
16764SOL     OW53183   0.973   0.834   3.674  0.4231 -0.1041  0.4178
16764SOL    HW153184   0.988   0.817   3.766  0.0521  1.7868  0.8720
16764SOL    HW253185   0.892   0.885   3.671  1.6325  1.9247 -0.6870
16765SOL     OW53186   2.047   3.298   8.892  0.3810  0.0572 -0.3908
16765SOL    HW153187   2.063   3.235   8.963  0.5200 -0.5410 -0.9364
16765SOL    HW253188   1.966   3.341   8.915  1.2489  1.0381  0.9528
16766SOL     OW53189   9.510   6.042   6.734 -0.2575  0.2308  0.5795
16766SOL    HW153190   9.421   6.078   6.729 -0.5088 -0.0521  2.2074
16766SOL    HW253191   9.566   6.119   6.745 -0.7729  0.3145  3.8288
16767SOL     OW53192   0.182   2.603   2.688 -0.1950  0.0502 -0.2102
16767SOL    HW153193   0.189   2.518   2.730  1.9498  0.5166  0.4836
16767SOL    HW253194   0.264   2.647   2.708 -1.7359  2.8118  0.5654
16768SOL     OW53195   6.731   4.531   6.828 -0.3621 -0.4040 -0.5437
16768SOL    HW153196   6.772   4.498   6.748  1.1901  0.8008 -0.3032
16768SOL    HW253197   6.716   4.624   6.811 -1.0278 -0.3685  0.1811
16769SOL     OW53198   9.308   3.378   7.080  0.0987  0.1622  0.1645
16769SOL    HW153199   9.398   3.349   7.070  0.3562  0.4001  1.6203
16769SOL    HW253200   9.313   3.473   7.080 -0.1347  0.1763  0.4132
16770SOL     OW53201   5.331   1.741   3.609  0.1415  0.2373 -0.1688
16770SOL    HW153202   5.396   1.708   3.546 -1.1057 -0.9640 -0.8796
16770SOL    HW253203   5.268   1.789   3.555 -1.0077 -0.9045  0.1070
16771SOL     OW53204   6.346   0.179   1.764 -0.4786 -0.2693 -0.2233
16771SOL    HW153205   6.308   0.149   1.682 -0.7616 -0.8935  0.1317
16771SOL    HW253206   6.291   0.253   1.790  0.5078  0.9104 -1.3438
16772SOL     OW53207   2.197   8.086   6.280  0.6743  0.1130 -0.6780
16772SOL    HW153208   2.170   7.999   6.250  0.6098  0.0016 -0.3088
16772SOL    HW253209   2.282   8.100   6.239  0.1962  0.3488 -1.6243
16773SOL     OW53210   6.595   0.397   2.596  0.1701 -0.6568  0.0145
16773SOL    HW153211   6.672   0.359   2.637 -0.3822  0.0523  1.8207
16773SOL    HW253212   6.618   0.490   2.583 -0.9838  0.0418  2.3919
16774SOL     OW53213   2.531   3.770   5.582  0.1601 -0.1701  0.0661
16774SOL    HW153214   2.458   3.765   5.645  0.4302 -1.4441  0.2950
16774SOL    HW253215   2.602   3.812   5.631  0.4337 -1.3293  0.7129
16775SOL     OW53216   0.199   7.428   3.617  0.3645 -0.0270 -0.0186
16775SOL    HW153217   0.257   7.499   3.591 -1.1904  1.7224  1.0214
16775SOL    HW253218   0.112   7.456   3.588 -0.3389 -1.3521  0.7136
16776SOL     OW53219   8.859   9.276   1.422  0.9248 -0.2408  0.3428
16776SOL    HW153220   8.876   9.333   1.347  1.2341 -1.7032 -0.7264
16776SOL    HW253221   8.944   9.266   1.465  0.6794  0.8963  1.1449
16777SOL     OW53222   7.419   8.138   7.007 -0.2049  0.3154  0.0984
16777SOL    HW153223   7.415   8.142   6.912  1.3958  1.0197  0.0223
16777SOL    HW253224   7.421   8.229   7.035  0.5614  0.1277  0.7098
16778SOL     OW53225   1.155   7.021   2.857 -0.4694 -0.3729  0.5412
16778SOL    HW153226   1.197   7.087   2.803 -0.6992 -1.9479 -1.6969
16778SOL    HW253227   1.225   6.989   2.915  0.1730  0.2953  0.1536
16779SOL     OW53228   8.442   7.620   0.145 -0.1762 -0.0001 -0.1951
16779SOL    HW153229   8.470   7.564   0.072  0.5508  0.0359  0.0540
16779SOL    HW253230   8.371   7.571   0.186 -0.4554 -0.1161 -0.7949
16780SOL     OW53231   2.925   6.899   0.738 -0.2125 -0.1392  0.2111
16780SOL    HW153232   2.889   6.812   0.719  0.7054 -0.7860  1.2765
16780SOL    HW253233   2.855   6.945   0.783 -0.9072 -0.1062 -0.8708
16781SOL     OW53234   2.012   6.852   3.166  0.5132  0.2095 -0.0948
16781SOL    HW153235   1.998   6.782   3.230 -1.5736  0.1960 -0.4827
16781SOL    HW253236   2.043   6.807   3.087 -3.2496 -0.8068 -1.2147
16782SOL     OW53237   0.879   3.227   7.468 -0.4543 -0.0296 -0.4586
16782SOL    HW153238   0.848   3.159   7.409  0.0502  0.8119 -1.7179
16782SOL    HW253239   0.913   3.296   7.411  0.8143  0.4534  0.8052
16783SOL     OW53240   0.967   7.340   1.495  0.1023  0.1016 -0.4619
16783SOL    HW153241   0.891   7.283   1.508  0.7025 -0.5254  0.4521
16783SOL    HW253242   0.956   7.409   1.560  2.0045 -1.8605  2.1857
16784SOL     OW53243   5.610   2.265   2.878 -0.7524 -1.3068  0.5153
16784SOL    HW153244   5.614   2.182   2.831  0.4910  0.2173 -2.3176
16784SOL    HW253245   5.521   2.298   2.861  0.0628 -0.1744 -2.1135
16785SOL     OW53246   2.628   8.860   4.379 -0.2239  0.1556  0.8826
16785SOL    HW153247   2.644   8.813   4.297  0.1555  1.0500  0.4285
16785SOL    HW253248   2.546   8.907   4.365  1.0472  2.2612  0.0633
16786SOL     OW53249   8.457   1.610   1.112  0.2479 -0.5090  0.6026
16786SOL    HW153250   8.471   1.702   1.136 -0.5733  0.2426 -1.5501
16786SOL    HW253251   8.489   1.604   1.022 -1.0404 -1.9618  0.1985
16787SOL     OW53252   1.803   4.506   1.003  0.2731 -0.0929 -0.1195
16787SOL    HW153253   1.723   4.483   0.956 -1.1466 -0.0231  2.1147
16787SOL    HW253254   1.776   4.571   1.067  1.8544 -0.9115  1.4865
16788SOL     OW53255   4.206   0.986   3.396 -0.4978  0.4253  0.0598
16788SOL    HW153256   4.147   1.047   3.352  0.9302  2.1288  0.4066
16788SOL    HW253257   4.151   0.941   3.460 -1.5712  1.4445 -0.1136
16789SOL     OW53258   5.666   5.258   3.481  0.2808  0.0815  0.1590
16789SOL    HW153259   5.715   5.327   3.524 -1.1655  1.3065 -0.0613
16789SOL    HW253260   5.575   5.273   3.506 -0.4246 -0.0807 -2.0495
16790SOL     OW53261   5.032   3.625   3.707 -0.0557 -0.7926 -0.1766
16790SOL    HW153262   5.107   3.660   3.658  0.3912 -1.0259  0.3275
16790SOL    HW253263   5.009   3.545   3.660  1.5923 -2.0602  1.0553
16791SOL     OW53264   7.180   2.544   4.952  0.3719 -0.2419  0.0278
16791SOL    HW153265   7.253   2.598   4.924  1.8688 -2.7977 -1.4089
16791SOL    HW253266   7.217   2.487   5.020 -0.3266 -1.3779 -0.5079
16792SOL     OW53267   1.061   3.051   6.924  0.5370 -0.2767  0.0332
16792SOL    HW153268   1.072   3.135   6.968  0.5135  1.4559 -3.0092
16792SOL    HW253269   0.969   3.027   6.940  0.0465  1.1778 -0.4855
16793SOL     OW53270   4.337   2.812   0.044 -0.5860  0.0539 -0.1217
16793SOL    HW153271   4.387   2.881   0.086 -3.2350  2.8462 -1.1628
16793SOL    HW253272   4.357   2.821  -0.049 -0.3513 -1.1921 -0.2143
16794SOL     OW53273   1.146   7.845   1.500  0.4789 -0.0879 -0.1718
16794SOL    HW153274   1.160   7.824   1.407  1.1007 -0.1062 -0.0737
16794SOL    HW253275   1.171   7.937   1.507 -0.3569  0.1499 -0.1876
16795SOL     OW53276   8.058   8.567   8.123  0.2425  0.0418 -0.4258
16795SOL    HW153277   8.012   8.622   8.186 -0.3342  0.0240 -0.8182
16795SOL    HW253278   8.063   8.620   8.043  0.0836 -0.2999 -0.6677
16796SOL     OW53279   7.424   5.454   0.162 -0.5774 -0.8536 -0.1735
16796SOL    HW153280   7.513   5.462   0.130 -0.2069 -0.1014  0.9887
16796SOL    HW253281   7.431   5.396   0.238 -0.7686  0.6027  0.9994
16797SOL     OW53282   4.936   7.406   2.798 -0.0233 -0.7206  0.4943
16797SOL    HW153283   4.907   7.403   2.707  1.1959  0.2945  0.0450
16797SOL    HW253284   5.028   7.432   2.794 -0.8305  3.0219  2.1117
16798SOL     OW53285   0.708   2.111   8.903 -0.0069 -0.2226  0.3251
16798SOL    HW153286   0.797   2.077   8.917 -0.9359 -2.5121  1.2654
16798SOL    HW253287   0.651   2.036   8.923 -2.0924  0.5063 -2.3196
16799SOL     OW53288   7.033   3.407   3.461 -0.0154  0.0915 -0.1031
16799SOL    HW153289   7.113   3.358   3.480 -0.1479 -0.6982 -1.4531
16799SOL    HW253290   6.963   3.354   3.500  0.1912  1.6524  2.6284
16800SOL     OW53291   9.471   8.895   5.670  0.0191  0.7217  0.2458
16800SOL    HW153292   9.521   8.847   5.604  0.5349  1.0082  0.4248
16800SOL    HW253293   9.383   8.859   5.663 -0.2253  1.5288 -1.3802
16801SOL     OW53294   5.546   8.460   5.758 -0.8720 -0.4736  0.4567
16801SOL    HW153295   5.508   8.376   5.733 -0.7262 -0.8822  1.5611
16801SOL    HW253296   5.587   8.493   5.678 -1.9126 -0.9060 -0.2692
16802SOL     OW53297   7.873   1.798   3.526  0.1921 -0.2442 -0.1295
16802SOL    HW153298   7.829   1.756   3.600 -0.5810 -1.6884 -1.3491
16802SOL    HW253299   7.960   1.820   3.560 -0.2817 -0.4720  1.3267
16803SOL     OW53300   3.827   9.092   8.557  0.3881 -0.1625  0.1938
16803SOL    HW153301   3.873   9.149   8.619 -0.1496 -0.2392  0.6738
16803SOL    HW253302   3.859   9.118   8.471  0.1828  0.8414  0.4124
16804SOL     OW53303   0.959   1.940   4.236 -0.0178 -0.2691 -0.3292
16804SOL    HW153304   0.937   1.859   4.283  2.1354  0.2323  1.7323
16804SOL    HW253305   1.026   1.913   4.173  1.0432 -0.0492  0.6824
16805SOL     OW53306   1.801   1.295   6.943 -0.3498 -0.1288 -0.0784
16805SOL    HW153307   1.779   1.207   6.914 -2.5130  0.3076  0.0876
16805SOL    HW253308   1.805   1.289   7.039 -1.6611  0.1486  0.0170
16806SOL     OW53309   1.147   5.473   8.782  0.3061 -0.0407 -0.2820
16806SOL    HW153310   1.199   5.468   8.701  1.0655  0.2072  0.1796
16806SOL    HW253311   1.205   5.438   8.849 -0.0842  0.3726  0.2708
16807SOL     OW53312   4.704   7.949   1.191 -0.1596 -0.3834  0.8656
16807SOL    HW153313   4.683   7.911   1.276  1.0676 -1.5584  0.6708
16807SOL    HW253314   4.689   7.878   1.128  0.8042 -0.1395  0.3368
16808SOL     OW53315   8.827   8.858   7.750  0.4406  0.5226 -0.0104
16808SOL    HW153316   8.884   8.839   7.824 -0.0570  1.9522  0.7876
16808SOL    HW253317   8.883   8.905   7.688  0.4030  1.0185  0.3220
16809SOL     OW53318   8.052   6.768   3.190 -0.8303  0.7039 -0.2267
16809SOL    HW153319   7.973   6.772   3.137 -0.8537 -1.2027 -0.4068
16809SOL    HW253320   8.069   6.674   3.201  2.3875  0.9719 -1.6743
16810SOL     OW53321   5.445   8.942   6.826  0.0269 -0.9213  0.0413
16810SOL    HW153322   5.404   8.858   6.848  1.0559 -1.8631 -1.3925
16810SOL    HW253323   5.537   8.931   6.849  0.6626 -1.1121 -2.3289
16811SOL     OW53324   5.749   8.689   2.671  0.6564 -0.0323 -0.0547
16811SOL    HW153325   5.665   8.729   2.691  0.7000 -0.2422  0.5677
16811SOL    HW253326   5.728   8.598   2.649  0.8778 -0.6687  2.0825
16812SOL     OW53327   6.233   6.751   6.668  0.4127 -0.1190 -0.0968
16812SOL    HW153328   6.229   6.813   6.596  2.7400 -0.8163 -0.9351
16812SOL    HW253329   6.246   6.804   6.746 -0.3519  0.5622 -0.4305
16813SOL     OW53330   4.870   9.506   7.284  0.0473  0.0065  0.5870
16813SOL    HW153331   4.789   9.468   7.249 -0.5515  0.9037  0.9593
16813SOL    HW253332   4.840   9.576   7.343  1.0576  2.4848 -1.6121
16814SOL     OW53333   9.141   2.638   8.245  0.2598  0.2308 -0.1736
16814SOL    HW153334   9.184   2.648   8.161 -1.1893  2.2800 -0.7666
16814SOL    HW253335   9.071   2.575   8.230  1.5241 -1.3218  0.1981
16815SOL     OW53336   3.573   1.850   9.418  0.6310 -0.7096  0.0829
16815SOL    HW153337   3.615   1.910   9.356 -2.7227 -0.0201 -1.7533
16815SOL    HW253338   3.511   1.905   9.466 -2.3547 -2.4611 -1.4668
16816SOL     OW53339   0.502   0.100   5.719  0.2835 -0.0203 -0.0979
16816SOL    HW153340   0.501   0.095   5.623 -0.1742 -1.7819 -0.0459
16816SOL    HW253341   0.411   0.113   5.743  0.5428  1.7112  0.1037
16817SOL     OW53342   8.162   5.372   3.988 -0.2718  0.0952  0.1008
16817SOL    HW153343   8.172   5.293   4.041  0.9151 -1.0178 -1.6876
16817SOL    HW253344   8.212   5.439   4.035  0.4945 -0.7772  0.5695
16818SOL     OW53345   0.312   7.151   1.690  0.1651  0.1303 -0.0077
16818SOL    HW153346   0.317   7.152   1.786 -1.5421 -0.2596  0.1288
16818SOL    HW253347   0.261   7.073   1.670  2.1811 -0.9236 -1.3919
16819SOL     OW53348   3.523   3.057   3.887 -0.1985  0.0283 -0.0049
16819SOL    HW153349   3.440   3.099   3.910  0.1635  1.4384 -1.1406
16819SOL    HW253350   3.499   2.991   3.823 -0.6989 -1.1735  1.3601
16820SOL     OW53351   4.524   7.614   9.217 -0.2400 -0.0964 -0.0647
16820SOL    HW153352   4.612   7.645   9.238 -0.1414 -0.0562 -0.5240
16820SOL    HW253353   4.500   7.660   9.137 -0.9459  0.3841  0.4095
16821SOL     OW53354   1.137   6.122   1.635 -0.1948  0.1554 -0.7093
16821SOL    HW153355   1.137   6.190   1.567 -0.1640 -0.0546 -0.9236
16821SOL    HW253356   1.229   6.101   1.648 -0.2500 -0.6074 -1.4286
16822SOL     OW53357   8.158   8.693   5.000  0.7017 -0.1531 -0.0630
16822SOL    HW153358   8.250   8.699   4.974  0.6110  1.7337 -0.0925
16822SOL    HW253359   8.152   8.610   5.047  2.5695  0.0049  0.5404
16823SOL     OW53360   0.640   0.809   7.185 -0.3569 -0.0454  0.2510
16823SOL    HW153361   0.621   0.775   7.098  2.9491 -0.1221 -0.5736
16823SOL    HW253362   0.575   0.878   7.199 -2.1907 -1.3276 -1.3933
16824SOL     OW53363   1.967   8.905   2.324  0.2977  0.0213  0.2784
16824SOL    HW153364   2.037   8.844   2.302  0.1097  0.1556 -0.7341
16824SOL    HW253365   1.914   8.859   2.389  1.4749  0.0342  1.2939
16825SOL     OW53366   0.699   3.259   8.721 -0.3201 -0.6003 -0.3221
16825SOL    HW153367   0.679   3.181   8.669  0.6016 -0.5285 -0.8219
16825SOL    HW253368   0.641   3.254   8.797 -0.3039 -1.7458 -0.3731
16826SOL     OW53369   9.032   9.502   7.306  0.1428 -0.5747  0.4189
16826SOL    HW153370   9.054   9.592   7.281  0.4120 -0.4015  1.2369
16826SOL    HW253371   8.973   9.512   7.381  0.6993 -1.0775  0.9388
16827SOL     OW53372   7.581   0.594   7.611  0.2154 -0.0211  1.0353
16827SOL    HW153373   7.523   0.529   7.651 -0.9345  0.3796  0.1036
16827SOL    HW253374   7.663   0.548   7.596 -0.4084 -1.1081  0.8688
16828SOL     OW53375   5.871   7.873   3.306  0.2221 -0.0785  0.3892
16828SOL    HW153376   5.832   7.790   3.334 -0.1845  0.1916  0.6397
16828SOL    HW253377   5.965   7.862   3.321  0.1826 -0.5420  0.2940
16829SOL     OW53378   8.544   1.458   8.836  0.5600 -0.8924  0.6280
16829SOL    HW153379   8.575   1.407   8.761 -0.2702  1.3168 -1.3741
16829SOL    HW253380   8.452   1.434   8.845  0.7002 -1.2761  1.0630
16830SOL     OW53381   1.025   6.941   4.902 -0.1712  0.4175 -0.6903
16830SOL    HW153382   1.091   6.873   4.890  0.2280  0.2507  1.8734
16830SOL    HW253383   0.971   6.911   4.975 -0.3550  2.5364  0.1395
16831SOL     OW53384   3.580   0.744   5.169 -0.0612 -0.0052 -0.1348
16831SOL    HW153385   3.543   0.718   5.085 -0.5338 -0.3096  0.1590
16831SOL    HW253386   3.622   0.829   5.152 -0.1502 -0.0668 -0.6720
16832SOL     OW53387   7.400   0.505   1.457  0.6358 -1.1282  0.1835
16832SOL    HW153388   7.426   0.428   1.509  0.3959 -0.2504  1.6634
16832SOL    HW253389   7.354   0.561   1.519  1.2758  0.4609 -0.7189
16833SOL     OW53390   3.000   0.017   8.294  0.0261  0.3503 -0.2667
16833SOL    HW153391   2.918  -0.007   8.252 -0.2873  2.7369 -1.1499
16833SOL    HW253392   2.974   0.053   8.379  0.1394  1.0567 -0.5243
16834SOL     OW53393   6.438   9.109   2.925  0.0543 -0.5918  0.4674
16834SOL    HW153394   6.517   9.155   2.952  0.7720  0.0782 -2.3849
16834SOL    HW253395   6.461   9.016   2.930 -0.1847 -0.5786  2.8194
16835SOL     OW53396   6.534   5.118   7.913  0.2603  0.0469  0.0989
16835SOL    HW153397   6.528   5.213   7.920  1.4943  0.1701 -0.2386
16835SOL    HW253398   6.444   5.089   7.907 -0.1152  1.2980 -0.8807
16836SOL     OW53399   0.851   6.056   1.972 -0.1190 -0.2398  0.3108
16836SOL    HW153400   0.778   6.038   1.913  0.0253 -0.1530  0.1036
16836SOL    HW253401   0.925   6.011   1.933  0.4683  1.4940 -0.7166
16837SOL     OW53402   8.724   8.093   6.568 -0.2213  0.3351 -0.5836
16837SOL    HW153403   8.719   8.061   6.479  1.2913 -0.5066 -0.3910
16837SOL    HW253404   8.813   8.126   6.577 -0.3865  0.5148  0.5853
16838SOL     OW53405   6.097   0.419   3.317  0.0978  0.2663  0.0301
16838SOL    HW153406   6.045   0.368   3.254  0.9037 -0.6703  0.0956
16838SOL    HW253407   6.058   0.506   3.316 -0.7715 -0.1183 -0.7395
16839SOL     OW53408   6.800   1.278   4.282 -0.9123  0.6057  0.1619
16839SOL    HW153409   6.726   1.231   4.244 -0.4233  0.4508 -0.6340
16839SOL    HW253410   6.841   1.216   4.342  0.4687 -0.4835 -1.8007
16840SOL     OW53411   9.074   5.549   3.095 -0.5674  0.7255 -0.9152
16840SOL    HW153412   9.102   5.478   3.154  0.4457  1.7940 -0.0624
16840SOL    HW253413   8.994   5.516   3.055  0.0969 -1.0840 -0.8690
16841SOL     OW53414   4.620   1.224   4.756 -0.0209 -0.3808  0.5417
16841SOL    HW153415   4.663   1.185   4.680  1.1544  1.4177  0.2494
16841SOL    HW253416   4.685   1.218   4.826 -0.9983 -1.7759  1.3978
16842SOL     OW53417   4.003   7.320   4.307  0.6091 -0.1760 -0.4506
16842SOL    HW153418   4.074   7.359   4.359 -0.4565  2.0233 -0.5004
16842SOL    HW253419   3.931   7.311   4.369 -0.4924  1.9399 -1.3228
16843SOL     OW53420   1.767   0.615   0.603 -0.1964 -0.5817  0.0505
16843SOL    HW153421   1.715   0.553   0.654 -2.0298 -0.0351 -1.0545
16843SOL    HW253422   1.743   0.597   0.512 -0.0269  1.0529 -0.3593
16844SOL     OW53423   9.276   3.701   0.819  0.3846 -0.2412  0.2066
16844SOL    HW153424   9.264   3.698   0.724  0.6146  0.8828  0.1212
16844SOL    HW253425   9.274   3.795   0.840  0.1931 -0.4861  1.3319
16845SOL     OW53426   3.702   9.110   1.432 -0.0275  0.1644 -0.1385
16845SOL    HW153427   3.668   9.133   1.346 -2.8201  2.2697  1.3726
16845SOL    HW253428   3.671   9.020   1.446 -1.0983  0.4416 -0.6271
16846SOL     OW53429   3.681   2.894   6.898  0.1415  0.0532 -0.2105
16846SOL    HW153430   3.591   2.894   6.932  0.4385  0.1917  0.6098
16846SOL    HW253431   3.732   2.850   6.966  0.9363  1.3015  0.0376
16847SOL     OW53432   5.150   7.056   8.347 -0.3413 -0.4950  0.7815
16847SOL    HW153433   5.153   7.005   8.428 -0.1446 -1.9832 -0.1318
16847SOL    HW253434   5.136   6.991   8.278 -0.3058  0.7184 -0.4107
16848SOL     OW53435   6.914   7.998   5.867 -0.3559  0.7275  0.2215
16848SOL    HW153436   6.914   7.937   5.940  1.0933  1.3520  0.7752
16848SOL    HW253437   6.997   7.983   5.822 -1.3564  0.1162 -1.5435
16849SOL     OW53438   5.199   3.055   3.119  0.1971 -0.5168 -0.5814
16849SOL    HW153439   5.246   3.013   3.190 -1.0395 -0.7913  0.1044
16849SOL    HW253440   5.189   2.987   3.052 -0.0837 -0.7428 -0.3098
16850SOL     OW53441   4.514   4.736   8.915  0.5517 -0.6094 -0.1894
16850SOL    HW153442   4.583   4.802   8.910  1.0845 -1.1030  0.4924
16850SOL    HW253443   4.454   4.768   8.982  0.5525 -0.5829 -0.2017
16851SOL     OW53444   4.674   6.797   4.382 -0.4229 -0.3770 -0.3892
16851SOL    HW153445   4.667   6.714   4.429  0.2194  0.7213  1.8387
16851SOL    HW253446   4.585   6.830   4.376 -0.3752  0.5311  2.3342
16852SOL     OW53447   5.367   2.420   2.749 -0.3628 -0.3261  0.4593
16852SOL    HW153448   5.324   2.342   2.785 -0.5781 -0.8392 -0.8576
16852SOL    HW253449   5.301   2.459   2.691  0.7558 -0.8617 -1.2371
16853SOL     OW53450   6.464   7.061   0.981  0.0679  0.0589 -0.1840
16853SOL    HW153451   6.451   7.020   1.067  0.7994  1.2159  0.5051
16853SOL    HW253452   6.475   6.987   0.921  0.4516 -0.7751  0.8701
16854SOL     OW53453   1.843   5.499   3.025  0.1028  0.1945 -0.3185
16854SOL    HW153454   1.750   5.506   3.003  0.3375 -0.2291 -1.5373
16854SOL    HW253455   1.872   5.419   2.980  1.3698  1.0764 -1.1306
16855SOL     OW53456   7.551   8.567   5.170 -0.6943 -0.5972  0.0242
16855SOL    HW153457   7.616   8.579   5.100  0.4835 -0.7001  1.0564
16855SOL    HW253458   7.533   8.473   5.169 -3.0240 -0.2390 -2.0948
16856SOL     OW53459   5.182   6.071   2.478  0.4010 -0.4695 -0.0298
16856SOL    HW153460   5.155   6.076   2.386 -1.3433 -2.6811  0.2794
16856SOL    HW253461   5.173   5.979   2.501  1.3804 -0.0713  2.2233
16857SOL     OW53462   9.294   1.899   7.601 -0.6752  0.5757 -0.4643
16857SOL    HW153463   9.351   1.903   7.524 -2.0402  0.8882 -1.5048
16857SOL    HW253464   9.314   1.980   7.649  0.8592 -0.0687  0.0459
16858SOL     OW53465   5.282   4.155   7.317  0.1473  0.7092  0.3443
16858SOL    HW153466   5.194   4.116   7.311  0.8800 -1.2546  1.2651
16858SOL    HW253467   5.267   4.243   7.350 -1.6333  1.3312 -1.8891
16859SOL     OW53468   9.318   8.640   0.006  0.0963  0.3307  0.5558
16859SOL    HW153469   9.329   8.735   0.006  2.1653  0.1599  1.1404
16859SOL    HW253470   9.408   8.606   0.015 -0.4109 -1.7078 -1.2116
16860SOL     OW53471   3.445   7.722   6.239  0.1874 -0.6191 -0.7572
16860SOL    HW153472   3.523   7.736   6.292  1.3542  0.6274 -2.6601
16860SOL    HW253473   3.390   7.799   6.256 -1.2135 -2.0122  1.4110
16861SOL     OW53474   4.496   6.309   5.631  0.1090  0.7563  0.4607
16861SOL    HW153475   4.496   6.254   5.554  1.5921  0.1775  0.8404
16861SOL    HW253476   4.555   6.265   5.692 -0.0993  1.8192  1.4637
16862SOL     OW53477   0.296   5.282   6.722 -0.6527 -0.0372 -0.9957
16862SOL    HW153478   0.337   5.259   6.639  0.4478 -2.0215  0.0215
16862SOL    HW253479   0.204   5.256   6.712 -0.4785 -0.4636 -1.5392
16863SOL     OW53480   8.773   0.663   5.388  0.2532 -0.3741  0.3070
16863SOL    HW153481   8.808   0.581   5.355 -1.9014 -1.6859  1.1383
16863SOL    HW253482   8.802   0.667   5.479  1.0163  0.2199  0.0553
16864SOL     OW53483   0.857   5.472   1.215  0.6047 -0.2700  0.1707
16864SOL    HW153484   0.910   5.446   1.290 -0.3147 -2.0120  0.2598
16864SOL    HW253485   0.893   5.423   1.142  0.4398  0.1381 -0.1880
16865SOL     OW53486   1.409   0.058   1.396  0.0480  0.5957 -0.5003
16865SOL    HW153487   1.369   0.001   1.331 -0.1991 -1.2000  1.1504
16865SOL    HW253488   1.350   0.134   1.401 -1.6902 -0.7222 -0.1208
16866SOL     OW53489   5.431   4.745   7.880 -0.1374  0.0719  0.5440
16866SOL    HW153490   5.449   4.736   7.786  2.6204  0.6650  0.9380
16866SOL    HW253491   5.478   4.825   7.906 -0.0107 -0.6119  2.6096
16867SOL     OW53492   0.064   2.823   8.702  0.5985 -0.0421  0.0853
16867SOL    HW153493  -0.018   2.804   8.748  0.2776  0.7613 -0.1385
16867SOL    HW253494   0.048   2.797   8.611  0.5147  0.3121 -0.0030
16868SOL     OW53495   7.246   7.500   5.509  0.8571  0.3781 -0.3324
16868SOL    HW153496   7.265   7.548   5.428  1.1594 -0.1302 -0.5684
16868SOL    HW253497   7.327   7.508   5.561  0.5342  1.0175  0.0814
16869SOL     OW53498   8.197   1.856   0.153  0.7969 -0.3740 -0.2550
16869SOL    HW153499   8.234   1.798   0.086  4.0421  0.0973  0.9392
16869SOL    HW253500   8.247   1.836   0.232 -0.7803  1.2521  1.2589
16870SOL     OW53501   4.234   0.396   0.548  0.2787 -0.2772 -0.3083
16870SOL    HW153502   4.175   0.423   0.477  2.0002  0.3598 -1.5639
16870SOL    HW253503   4.321   0.421   0.518  1.0706  0.2026  2.1395
16871SOL     OW53504   8.861   8.876   5.694  0.3362  0.2488  0.2904
16871SOL    HW153505   8.789   8.816   5.674  2.2707 -2.6186  1.2830
16871SOL    HW253506   8.842   8.908   5.782 -0.1934  0.2520  0.1777
16872SOL     OW53507   9.604   8.575   8.195 -0.4282  0.4874 -0.0181
16872SOL    HW153508   9.564   8.545   8.276 -1.3651  0.4848 -0.4638
16872SOL    HW253509   9.532   8.578   8.132 -0.0877  2.1872 -0.3946
16873SOL     OW53510   8.814   3.615   2.508  0.1791  0.1158 -0.0692
16873SOL    HW153511   8.796   3.607   2.601  0.3190  1.7853  0.1280
16873SOL    HW253512   8.795   3.706   2.487  1.4386  0.1202 -1.3876
16874SOL     OW53513   5.171   2.624   3.379  0.4190  0.0974 -0.1996
16874SOL    HW153514   5.208   2.547   3.424 -1.1363 -0.7484 -0.3074
16874SOL    HW253515   5.101   2.654   3.437 -2.0016 -1.3405 -2.1978
16875SOL     OW53516   0.815   4.157   0.670 -0.3647 -0.8782 -0.2839
16875SOL    HW153517   0.759   4.221   0.627  0.3753  0.5979  0.8893
16875SOL    HW253518   0.757   4.083   0.689 -1.7021  0.2448  0.0925
16876SOL     OW53519   6.959   8.263   3.104 -0.4412 -0.1403  0.6908
16876SOL    HW153520   6.917   8.199   3.046 -0.8699  0.1768  0.6471
16876SOL    HW253521   6.957   8.345   3.055 -0.4856  0.0508  1.0104
16877SOL     OW53522   1.060   0.328   1.891 -0.8360 -0.3670 -0.1628
16877SOL    HW153523   0.975   0.350   1.854 -0.3287  0.6092 -0.7852
16877SOL    HW253524   1.123   0.371   1.833  0.0230  0.2917  1.2041
16878SOL     OW53525   6.462   4.114   3.370 -0.2027 -0.0945  0.7725
16878SOL    HW153526   6.415   4.197   3.377  0.5386  0.4267 -0.1974
16878SOL    HW253527   6.554   4.138   3.377  0.0968 -0.6385 -0.8651
16879SOL     OW53528   6.625   1.805   5.750  0.3810  0.4890  0.8510
16879SOL    HW153529   6.596   1.889   5.714 -1.6116 -0.7593 -0.6647
16879SOL    HW253530   6.709   1.788   5.707 -0.6394  0.3400 -1.1880
16880SOL     OW53531   8.406   4.098   1.011  0.0424 -0.0131 -0.0051
16880SOL    HW153532   8.340   4.030   0.998  1.6651 -1.7260  0.3770
16880SOL    HW253533   8.483   4.067   0.962  0.5896  1.9554 -0.5067
16881SOL     OW53534   1.910   7.620   4.775 -0.0399  0.0484  0.0765
16881SOL    HW153535   1.824   7.638   4.738 -0.3394  0.3130  0.8798
16881SOL    HW253536   1.894   7.558   4.846  0.8256 -2.5331 -1.8086
16882SOL     OW53537   9.259   3.969   6.135 -0.0936 -0.2946 -0.5607
16882SOL    HW153538   9.265   3.918   6.216 -0.1576 -0.2127 -0.5040
16882SOL    HW253539   9.198   4.040   6.156  0.1047 -0.1131 -0.5937
16883SOL     OW53540   6.634   7.730   7.944 -0.1644  0.3825  0.0636
16883SOL    HW153541   6.602   7.667   8.008  0.8479  0.4492  0.6620
16883SOL    HW253542   6.639   7.681   7.861  0.4827 -0.3041  0.4918
16884SOL     OW53543   9.267   7.284   3.603 -0.5185 -0.2013  0.1771
16884SOL    HW153544   9.269   7.376   3.630  0.0484 -0.9677  3.1484
16884SOL    HW253545   9.351   7.249   3.632 -0.5793 -1.6124 -1.2402
16885SOL     OW53546   5.520   2.625   0.200  0.3531  0.5917 -0.1748
16885SOL    HW153547   5.438   2.655   0.161  0.1797  0.4433  0.0776
16885SOL    HW253548   5.581   2.698   0.185 -0.2429  1.3596  1.0024
16886SOL     OW53549   6.007   7.455   2.544  0.2448 -0.6336 -0.4630
16886SOL    HW153550   5.986   7.499   2.626 -1.3290 -0.3286 -0.9888
16886SOL    HW253551   5.991   7.362   2.562 -0.5607 -0.5211 -0.5253
16887SOL     OW53552   0.109   3.359   5.828 -0.0168 -0.0892  0.0411
16887SOL    HW153553   0.100   3.452   5.846 -2.1039  0.2221 -2.1424
16887SOL    HW253554   0.167   3.354   5.752 -0.8218 -0.4486 -0.5686
16888SOL     OW53555   7.255   8.159   7.418  0.4674  0.3844 -0.1677
16888SOL    HW153556   7.223   8.089   7.361  1.2738 -2.1046  2.2296
16888SOL    HW253557   7.316   8.115   7.478  1.9623  3.4047  0.7001
16889SOL     OW53558   0.313   2.832   4.812  0.7397  0.2806  0.1483
16889SOL    HW153559   0.264   2.914   4.820  2.0089  1.0498  0.2856
16889SOL    HW253560   0.374   2.847   4.739  0.5706 -0.7732 -0.2347
16890SOL     OW53561   0.945   9.027   0.980  0.1310 -0.5241 -0.2877
16890SOL    HW153562   0.920   9.027   1.072 -2.2869 -1.0007 -0.8801
16890SOL    HW253563   0.967   9.118   0.961  1.0982 -0.5010  0.8358
16891SOL     OW53564   8.017   4.780   2.336  0.3079 -0.6976 -0.4392
16891SOL    HW153565   7.965   4.725   2.396 -1.8879 -1.7960 -3.1516
16891SOL    HW253566   8.097   4.730   2.322 -0.1444 -1.5297 -0.1557
16892SOL     OW53567   1.312   6.218   3.282  0.7208  0.3826 -0.4929
16892SOL    HW153568   1.230   6.267   3.270  0.0233 -0.8506 -1.0213
16892SOL    HW253569   1.283   6.128   3.300  1.9588  0.1073  0.2108
16893SOL     OW53570   7.179   2.296   8.780 -0.6184 -0.5092  0.6300
16893SOL    HW153571   7.169   2.224   8.717 -2.1231  0.0555  0.1797
16893SOL    HW253572   7.090   2.312   8.812 -0.3788  1.4270  0.3978
16894SOL     OW53573   2.472   2.964   6.228  0.1468  0.6212 -0.7450
16894SOL    HW153574   2.410   3.030   6.259  0.4637  0.7639 -0.4127
16894SOL    HW253575   2.554   3.011   6.215  0.7584  0.0608  0.8032
16895SOL     OW53576   2.128   7.646   5.210 -0.0278 -0.0197 -0.0416
16895SOL    HW153577   2.038   7.617   5.226 -0.3388 -0.2281 -1.9083
16895SOL    HW253578   2.181   7.570   5.232 -0.4673 -0.4942 -0.5755
16896SOL     OW53579   3.968   2.540   4.858 -0.2641  0.2990 -0.0913
16896SOL    HW153580   3.910   2.558   4.932  0.1529 -0.4669  0.4361
16896SOL    HW253581   4.042   2.599   4.871  0.9810 -1.4970  1.4963
16897SOL     OW53582   4.957   7.603   4.949  0.0508 -0.3027  0.1694
16897SOL    HW153583   4.927   7.679   4.899  0.6625  0.9990  1.6991
16897SOL    HW253584   5.050   7.595   4.928  0.1196 -0.2609  0.4507
16898SOL     OW53585   7.378   4.782   5.216 -0.1901 -0.7665  0.4153
16898SOL    HW153586   7.407   4.746   5.132  1.3324 -0.6965  0.8711
16898SOL    HW253587   7.459   4.805   5.261 -1.0281  2.0953  0.6746
16899SOL     OW53588   2.547   8.190   0.936 -0.0987 -0.0901 -0.6606
16899SOL    HW153589   2.584   8.271   0.971  0.3853  0.4788 -2.3983
16899SOL    HW253590   2.614   8.157   0.876 -0.6705 -1.2896 -0.6646
16900SOL     OW53591   9.243   6.285   7.980 -0.2620  0.7020  0.1621
16900SOL    HW153592   9.331   6.298   8.014  0.5535 -1.0301 -1.1389
16900SOL    HW253593   9.239   6.339   7.901 -0.2926  0.6107  0.1010
16901SOL     OW53594   5.219   5.771   7.908  0.0935  0.5510  0.6141
16901SOL    HW153595   5.276   5.814   7.972 -0.3791 -0.6430  1.8921
16901SOL    HW253596   5.135   5.816   7.917 -0.0437  0.2169  1.0260
16902SOL     OW53597   5.772   1.123   7.332 -0.7210 -0.0559 -0.4209
16902SOL    HW153598   5.788   1.031   7.355 -0.0318  0.1495 -0.0314
16902SOL    HW253599   5.705   1.152   7.393  0.5399  0.2636  0.8654
16903SOL     OW53600   8.207   2.732   9.084  0.5615  0.1106  0.3594
16903SOL    HW153601   8.209   2.684   9.001 -0.2994  1.5607 -0.5480
16903SOL    HW253602   8.132   2.695   9.131 -1.1148  1.5673 -1.0297
16904SOL     OW53603   0.364   0.251   1.313 -0.4187 -0.2694 -0.0138
16904SOL    HW153604   0.298   0.287   1.373  1.2558 -0.3583  1.9944
16904SOL    HW253605   0.355   0.156   1.321  0.3180 -0.2862  0.7333
16905SOL     OW53606   9.558   8.861   1.218  0.1590  0.2514 -1.0179
16905SOL    HW153607   9.620   8.803   1.174  1.0545 -0.2390  0.7706
16905SOL    HW253608   9.528   8.810   1.294 -1.4301  0.9851 -1.1176
16906SOL     OW53609   4.558   6.139   2.452 -0.1402  0.1030  0.3058
16906SOL    HW153610   4.483   6.083   2.433 -1.8050  2.4065 -0.2925
16906SOL    HW253611   4.543   6.218   2.401  2.2133  1.0582  0.9513
16907SOL     OW53612   3.874   2.002   5.325  0.0949  0.2374  0.1960
16907SOL    HW153613   3.920   2.040   5.250 -0.9830  0.2726 -0.4711
16907SOL    HW253614   3.899   2.057   5.399  3.0955 -1.2107  0.3969
16908SOL     OW53615   8.031   0.154   2.200  0.3519  0.2374 -0.2396
16908SOL    HW153616   8.042   0.249   2.211 -0.3207  0.3642 -0.5759
16908SOL    HW253617   8.119   0.118   2.206  0.5193  0.7832  0.8707
16909SOL     OW53618   1.188   4.528   2.350 -0.2446  0.3896 -0.0236
16909SOL    HW153619   1.098   4.545   2.377 -0.2635  2.8412 -1.4221
16909SOL    HW253620   1.233   4.611   2.360  1.2964 -0.1972 -1.5022
16910SOL     OW53621   9.103   6.279   4.651  0.0669 -0.7437  0.2567
16910SOL    HW153622   9.094   6.318   4.564 -1.1193  2.4095  1.6562
16910SOL    HW253623   9.175   6.216   4.642 -0.9667 -1.6545 -3.2911
16911SOL     OW53624   1.977   0.803   4.050  0.4350 -0.1389  0.0953
16911SOL    HW153625   2.024   0.817   3.968  0.9035  0.1826  0.4119
16911SOL    HW253626   1.921   0.727   4.033  1.1144 -0.5661 -0.2775
16912SOL     OW53627   8.813   3.277   0.350 -0.7443 -0.3218 -0.0283
16912SOL    HW153628   8.868   3.337   0.300 -1.8095  0.9582  0.2646
16912SOL    HW253629   8.851   3.191   0.335 -0.0827  0.2220 -1.7308
16913SOL     OW53630   4.046   3.986   0.459 -0.0819  0.0513  0.6405
16913SOL    HW153631   4.050   4.066   0.407 -0.1021 -0.4025 -0.0820
16913SOL    HW253632   4.051   4.015   0.550 -1.3398  0.9626  0.4409
16914SOL     OW53633   4.881   8.543   6.568 -0.5616 -0.0070 -0.0744
16914SOL    HW153634   4.970   8.574   6.590 -0.3474  0.1225 -1.0817
16914SOL    HW253635   4.871   8.565   6.475 -1.5008 -0.3931 -0.0657
16915SOL     OW53636   7.725   9.610   3.809  0.0387  0.2591  0.2592
16915SOL    HW153637   7.651   9.578   3.757 -0.5406 -0.5155  1.5112
16915SOL    HW253638   7.802   9.571   3.767 -0.3033  0.5451 -0.6696
16916SOL     OW53639   1.155   5.142   0.376 -0.2234 -0.1896 -0.3942
16916SOL    HW153640   1.224   5.152   0.310  1.1992 -2.0060  0.7139
16916SOL    HW253641   1.075   5.131   0.326  0.6545 -0.3999 -1.7991
16917SOL     OW53642   0.331   3.791   4.394  0.3780  0.1511  0.2641
16917SOL    HW153643   0.274   3.867   4.389  0.5650  0.3001  0.3809
16917SOL    HW253644   0.274   3.719   4.419 -0.1906 -0.1528 -1.6779
16918SOL     OW53645   9.428   6.521   4.708 -0.2001  0.0235  0.0306
16918SOL    HW153646   9.386   6.456   4.765  1.7165 -0.9269  0.4226
16918SOL    HW253647   9.356   6.579   4.682 -1.5894 -1.0010  1.3722
16919SOL     OW53648   1.031   3.734   0.401 -0.1816  0.0558 -0.3540
16919SOL    HW153649   0.983   3.720   0.483  0.7624 -0.2952  0.1539
16919SOL    HW253650   1.093   3.804   0.421 -1.3199  1.4126 -1.3806
16920SOL     OW53651   2.376   7.934   3.920  0.4499 -0.0888  0.0317
16920SOL    HW153652   2.323   8.014   3.910 -0.6691 -0.9284 -1.1158
16920SOL    HW253653   2.323   7.878   3.977  1.5902  0.2430  1.4830
16921SOL     OW53654   6.132   1.891   3.814 -0.0045 -0.1593 -0.5098
16921SOL    HW153655   6.043   1.912   3.788 -0.0995  0.1634  0.0552
16921SOL    HW253656   6.185   1.965   3.785 -0.4233  1.2452  1.9771
16922SOL     OW53657   7.056   6.063   1.668  0.3093  0.2000 -0.5256
16922SOL    HW153658   7.146   6.090   1.649  0.0426  0.2499 -1.8145
16922SOL    HW253659   7.004   6.105   1.600 -0.7621  0.5626  0.4935
16923SOL     OW53660   8.346   5.966   6.671 -0.0610  0.4119 -0.0643
16923SOL    HW153661   8.441   5.970   6.673  0.0156 -0.8022 -0.1644
16923SOL    HW253662   8.325   5.936   6.583 -0.4459 -0.7465  0.3999
16924SOL     OW53663   2.745   5.520   2.680  0.1486 -0.4914  0.3520
16924SOL    HW153664   2.787   5.517   2.766 -0.1369  0.3975  0.5380
16924SOL    HW253665   2.814   5.493   2.619  0.8804  0.4968  0.6962
16925SOL     OW53666   2.377   4.930   1.066  0.1556 -0.1410 -0.2877
16925SOL    HW153667   2.446   4.973   1.116 -0.8844  2.1307 -0.6617
16925SOL    HW253668   2.307   4.915   1.129 -1.1047  2.6076 -0.8572
16926SOL     OW53669   5.668   2.342   8.043  0.1633 -0.6249 -0.1621
16926SOL    HW153670   5.623   2.394   8.109  0.0142  0.2608 -0.9380
16926SOL    HW253671   5.761   2.366   8.052 -0.2403  3.1900 -3.2567
16927SOL     OW53672   6.856   6.669   8.772  0.9341  0.1091 -1.3068
16927SOL    HW153673   6.882   6.734   8.837  2.2616 -2.1087  0.5288
16927SOL    HW253674   6.897   6.698   8.691  0.0540  2.4260 -0.9825
16928SOL     OW53675   7.352   7.720   7.205 -0.5663  0.4081 -0.0163
16928SOL    HW153676   7.292   7.782   7.247 -1.0169 -0.2755  0.3823
16928SOL    HW253677   7.380   7.764   7.125 -1.4354  0.8372 -0.1004
16929SOL     OW53678   2.942   2.629   4.991 -0.0412 -0.5777 -0.0160
16929SOL    HW153679   2.874   2.613   5.056 -1.2642  1.7521 -0.5963
16929SOL    HW253680   2.918   2.713   4.951  2.3311 -0.4338 -1.3527
16930SOL     OW53681   0.143   5.862   4.443  0.1272  0.1964 -0.3883
16930SOL    HW153682   0.190   5.930   4.491 -1.5666  0.6294  0.7659
16930SOL    HW253683   0.145   5.786   4.501 -0.2160  0.0910 -0.5087
16931SOL     OW53684   0.741   7.370   5.025 -0.4437 -0.4645 -0.2993
16931SOL    HW153685   0.723   7.366   4.931 -1.1900 -1.0135 -0.1415
16931SOL    HW253686   0.685   7.303   5.063  1.2041 -1.5410  0.3519
16932SOL     OW53687   0.554   6.721   8.348 -0.0250  0.1541  0.2950
16932SOL    HW153688   0.509   6.639   8.370  0.6953 -0.6309 -0.9508
16932SOL    HW253689   0.646   6.694   8.336  0.0470  0.9245 -1.1417
16933SOL     OW53690   0.812   5.991   1.564  0.0594  0.4558 -0.0763
16933SOL    HW153691   0.784   5.902   1.542 -3.2369  1.8531 -2.4177
16933SOL    HW253692   0.879   6.012   1.499 -0.5793  0.3243 -0.7876
16934SOL     OW53693   0.317   4.689   2.210 -0.5243 -0.0943 -0.2824
16934SOL    HW153694   0.349   4.638   2.285  2.8723 -0.9816 -2.1114
16934SOL    HW253695   0.247   4.635   2.174 -1.1880 -0.3820  1.3298
16935SOL     OW53696   0.550   0.012   1.772  0.0262  0.1837 -0.3777
16935SOL    HW153697   0.478  -0.042   1.739  0.0612  0.1057 -0.3278
16935SOL    HW253698   0.584  -0.037   1.848  1.1937 -0.5984 -1.3690
16936SOL     OW53699   4.804   2.131   3.647 -0.3549  0.0645  0.5344
16936SOL    HW153700   4.874   2.168   3.593  2.0156 -1.0172  2.6467
16936SOL    HW253701   4.749   2.205   3.669  0.4212  1.0657 -0.7517
16937SOL     OW53702   3.595   8.332   5.657 -0.0335 -0.4045  0.4154
16937SOL    HW153703   3.640   8.358   5.737 -0.8041 -0.3540  0.8498
16937SOL    HW253704   3.578   8.414   5.611  2.0726 -0.5621 -0.7552
16938SOL     OW53705   3.880   3.680   1.894 -0.0185  0.4174 -0.1852
16938SOL    HW153706   3.849   3.644   1.812 -2.3853  0.8441  0.4625
16938SOL    HW253707   3.887   3.774   1.878 -0.7360  0.5349  0.1495
16939SOL     OW53708   5.309   0.040   2.535 -0.5168 -0.1176 -0.4992
16939SOL    HW153709   5.303   0.089   2.453  1.2601 -0.3682 -0.8113
16939SOL    HW253710   5.296   0.106   2.604  2.0795  0.9132 -0.9036
16940SOL     OW53711   3.525   2.839   9.516  0.2806 -0.0265  0.0439
16940SOL    HW153712   3.546   2.785   9.592  0.7749 -0.9305 -0.7174
16940SOL    HW253713   3.477   2.780   9.457 -1.2230  0.9991  0.1763
16941SOL     OW53714   2.639   3.057   7.478  0.6709 -0.5918  0.3710
16941SOL    HW153715   2.572   3.123   7.459  0.4579 -0.6459  0.9209
16941SOL    HW253716   2.702   3.103   7.534 -0.4785 -1.3668  2.3947
16942SOL     OW53717   3.693   4.010   5.113 -0.3118  0.7808  0.2229
16942SOL    HW153718   3.610   3.973   5.140 -0.2252  0.3785 -0.0434
16942SOL    HW253719   3.753   3.990   5.184 -0.0565 -0.3753 -0.2957
16943SOL     OW53720   0.135   0.429   9.303  0.2231 -0.3770  0.3624
16943SOL    HW153721   0.220   0.392   9.279  0.8724  0.7511  0.8531
16943SOL    HW253722   0.077   0.405   9.231  1.3881  0.3156 -0.8471
16944SOL     OW53723   9.165   0.391   1.432 -0.0456  0.4525  0.3751
16944SOL    HW153724   9.175   0.320   1.496 -2.3472  1.1348  1.5864
16944SOL    HW253725   9.143   0.468   1.485  0.9794  1.7705 -1.0276
16945SOL     OW53726   9.383   3.383   5.641 -0.1333 -0.1431 -0.0351
16945SOL    HW153727   9.426   3.460   5.605 -0.6594 -0.3268 -1.0795
16945SOL    HW253728   9.394   3.315   5.575 -1.9083 -0.2251 -0.2942
16946SOL     OW53729   2.681   7.278   8.317 -0.1618 -0.3180  0.8982
16946SOL    HW153730   2.691   7.219   8.392 -2.4217 -0.1765  1.3782
16946SOL    HW253731   2.710   7.363   8.349 -0.6846 -0.3563  1.5015
16947SOL     OW53732   5.424   6.985   7.634 -0.2504  0.1495  0.0741
16947SOL    HW153733   5.346   7.019   7.589  1.1156  0.5201 -2.1609
16947SOL    HW253734   5.405   6.892   7.645 -1.3858  0.4018  0.4417
16948SOL     OW53735   6.289   3.275   7.019 -0.4067  0.0579 -0.1176
16948SOL    HW153736   6.201   3.295   6.987 -0.5018 -0.3625 -0.1191
16948SOL    HW253737   6.345   3.341   6.978 -0.5344 -0.4101 -1.0884
16949SOL     OW53738   4.465   6.269   8.694  0.7805  0.8510 -0.8178
16949SOL    HW153739   4.393   6.302   8.639  1.0675  1.3879 -0.8788
16949SOL    HW253740   4.448   6.307   8.781  0.1610 -0.2371 -0.4468
16950SOL     OW53741   1.949   8.853   1.426  0.0458 -0.3875 -0.1542
16950SOL    HW153742   1.935   8.799   1.504 -0.1544  0.3823  0.3553
16950SOL    HW253743   1.914   8.939   1.450 -0.2962 -0.2226 -1.1999
16951SOL     OW53744   9.415   3.722   3.463 -0.1915  0.2196  0.7973
16951SOL    HW153745   9.468   3.801   3.455  0.8205 -0.4402  0.7334
16951SOL    HW253746   9.422   3.697   3.555 -2.5792  1.5577  1.4259
16952SOL     OW53747   3.311   8.450   5.248 -0.3524 -0.3979  0.1231
16952SOL    HW153748   3.291   8.386   5.316 -0.1928  0.2941  0.8414
16952SOL    HW253749   3.379   8.409   5.195 -0.4126 -0.9117  0.4396
16953SOL     OW53750   9.103   0.168   2.446 -0.3932  0.2067  0.5376
16953SOL    HW153751   9.050   0.108   2.393  0.3347  1.5804 -1.9130
16953SOL    HW253752   9.149   0.111   2.508 -2.0379 -1.3812  0.3788
16954SOL     OW53753   8.393   2.936   4.465 -0.0718  0.0532  0.3940
16954SOL    HW153754   8.305   2.928   4.428 -1.0888 -0.4337  2.7503
16954SOL    HW253755   8.395   3.023   4.504 -0.0966 -0.4762  1.6492
16955SOL     OW53756   6.306   5.161   2.837  0.4398 -0.3595  0.1915
16955SOL    HW153757   6.288   5.224   2.907  0.5272  1.2356 -1.1575
16955SOL    HW253758   6.223   5.116   2.823  0.0970  0.1673  0.5064
16956SOL     OW53759   7.364   4.464   3.366 -0.0461 -0.3410 -0.3135
16956SOL    HW153760   7.407   4.380   3.349 -0.6961 -0.9467  0.8721
16956SOL    HW253761   7.312   4.480   3.288 -1.0073 -1.7657 -0.0110
16957SOL     OW53762   4.559   8.854   4.648 -0.0232  0.4450  0.5074
16957SOL    HW153763   4.505   8.931   4.663  1.8666  1.3806  3.1118
16957SOL    HW253764   4.594   8.866   4.559 -1.9425  1.1128 -0.1953
16958SOL     OW53765   7.367   8.747   4.142  0.8032 -0.3310  0.4861
16958SOL    HW153766   7.346   8.673   4.199 -0.1190 -0.4649 -0.0095
16958SOL    HW253767   7.415   8.708   4.069 -1.3624 -0.7952 -0.7755
16959SOL     OW53768   2.826   3.220   9.219  1.1232 -0.3988  0.2939
16959SOL    HW153769   2.790   3.230   9.131  0.7195 -3.1818  0.0725
16959SOL    HW253770   2.918   3.243   9.209  0.9545 -0.0790 -0.7144
16960SOL     OW53771   3.468   2.860   2.821  0.3282 -0.1185 -0.0116
16960SOL    HW153772   3.383   2.898   2.799 -0.1538 -1.8710 -1.4765
16960SOL    HW253773   3.466   2.773   2.782  3.0124 -0.0302 -0.6082
16961SOL     OW53774   2.453   0.861   5.996  0.0780 -0.6487 -0.3254
16961SOL    HW153775   2.389   0.853   6.066 -0.6626  0.5171 -0.8573
16961SOL    HW253776   2.464   0.771   5.964 -1.4374 -0.8355 -0.3636
16962SOL     OW53777   1.005   2.048   7.008 -0.0750  0.4173  0.1333
16962SOL    HW153778   0.955   2.044   6.926 -0.6509 -0.6976  0.5211
16962SOL    HW253779   0.982   2.134   7.045 -0.4688  0.5806 -0.4660
16963SOL     OW53780   8.286   7.662   0.714 -0.1956  0.0422  0.0284
16963SOL    HW153781   8.354   7.726   0.695 -1.1927  1.5235  1.1739
16963SOL    HW253782   8.262   7.679   0.806 -2.0962 -0.3832 -0.3359
16964SOL     OW53783   3.652   2.525   4.641  0.2133 -0.4926  0.6273
16964SOL    HW153784   3.625   2.502   4.730  0.1586 -0.1970  0.6880
16964SOL    HW253785   3.578   2.498   4.586  0.2132 -0.6015  0.6799
16965SOL     OW53786   7.235   7.361   4.622  0.2246 -0.1191  0.1066
16965SOL    HW153787   7.240   7.309   4.542 -0.2797 -1.0456  0.6521
16965SOL    HW253788   7.319   7.407   4.626  0.4958 -0.5304 -0.6407
16966SOL     OW53789   3.208   2.015   0.722 -0.8936 -0.4231 -0.1095
16966SOL    HW153790   3.260   1.956   0.776  1.4000  0.9584 -0.6933
16966SOL    HW253791   3.214   1.979   0.634  0.2003  0.4264 -0.4014
16967SOL     OW53792   8.363   6.524   2.854  0.1497  0.2101  0.5513
16967SOL    HW153793   8.378   6.556   2.942 -1.8695  2.0388  0.2989
16967SOL    HW253794   8.423   6.574   2.799 -0.5157  1.0895  0.5960
16968SOL     OW53795   2.342   5.907   5.357 -0.1368 -0.0570  0.2024
16968SOL    HW153796   2.264   5.882   5.407  1.4410 -1.7628  1.9506
16968SOL    HW253797   2.357   5.833   5.298  0.0701  0.3555 -0.2700
16969SOL     OW53798   1.769   0.186   4.295  0.2244 -0.0089  0.1022
16969SOL    HW153799   1.806   0.132   4.365  0.8672  1.9357  1.3409
16969SOL    HW253800   1.676   0.164   4.294  0.1399  0.1597  1.8155
16970SOL     OW53801   8.899   0.394   1.318  0.3477 -0.3190  0.1691
16970SOL    HW153802   8.902   0.327   1.249  0.8356  1.3830 -1.5672
16970SOL    HW253803   8.990   0.424   1.325  0.1623  0.0435  1.0259
16971SOL     OW53804   8.064   2.666   2.627  0.0195 -0.2844 -0.3430
16971SOL    HW153805   8.153   2.686   2.596 -0.7730  0.1852 -2.4725
16971SOL    HW253806   8.070   2.574   2.655  0.6491 -1.1022 -2.8599
16972SOL     OW53807   7.487   1.795   6.231  0.0588  0.0488  0.0508
16972SOL    HW153808   7.501   1.881   6.269  1.2251 -0.6167  1.1984
16972SOL    HW253809   7.408   1.805   6.177 -0.2251  1.6398  0.7116
16973SOL     OW53810   4.406   3.954   3.507 -0.1260 -0.2206 -0.3893
16973SOL    HW153811   4.493   3.993   3.498 -0.9320  1.7371 -0.1931
16973SOL    HW253812   4.386   3.918   3.421  0.3063  0.5712 -0.8237
16974SOL     OW53813   4.783   2.362   8.926  0.2882 -0.0796 -0.1744
16974SOL    HW153814   4.860   2.369   8.870  0.3945  1.8119  0.1405
16974SOL    HW253815   4.717   2.418   8.884  0.1208  0.7637  1.1361
16975SOL     OW53816   0.531   7.692   8.382 -0.3863 -0.1200 -0.6451
16975SOL    HW153817   0.578   7.658   8.305  0.0743 -1.3239  0.1362
16975SOL    HW253818   0.470   7.622   8.406 -1.7374  0.9265 -0.8914
16976SOL     OW53819   9.291   6.366   8.235  0.0045  0.1344  0.3915
16976SOL    HW153820   9.383   6.356   8.208 -0.1882 -0.6358  0.0005
16976SOL    HW253821   9.241   6.340   8.158 -0.5521  0.4916  0.6257
16977SOL     OW53822   5.833   1.243   4.010 -0.4883  0.0771  0.0597
16977SOL    HW153823   5.826   1.176   4.078  0.0794 -0.5911 -0.5370
16977SOL    HW253824   5.884   1.313   4.051 -0.6590 -0.0635  0.5173
16978SOL     OW53825   2.555   6.049   0.912  0.5882 -0.4679 -0.0306
16978SOL    HW153826   2.543   6.089   0.826 -1.2083 -2.6047 -0.8866
16978SOL    HW253827   2.494   6.096   0.969  2.3220  1.4612  0.3403
16979SOL     OW53828   9.035   2.970   4.783  0.2555  0.9578 -0.5156
16979SOL    HW153829   9.002   3.058   4.763 -0.6614  0.2541 -2.3035
16979SOL    HW253830   8.984   2.912   4.727  2.7039 -0.4658 -1.4053
16980SOL     OW53831   5.612   6.179   8.214 -0.9805  0.0096 -0.6019
16980SOL    HW153832   5.560   6.248   8.255 -0.4494 -0.5473  1.0894
16980SOL    HW253833   5.575   6.097   8.247 -0.0075 -0.4332 -0.5563
16981SOL     OW53834   6.091   2.878   9.629  0.4062  0.5831 -0.5928
16981SOL    HW153835   6.122   2.949   9.685 -0.7145  2.2991 -2.0661
16981SOL    HW253836   6.029   2.919   9.569  0.0393 -1.5666 -1.7971
16982SOL     OW53837   2.295   5.329   1.552  0.0607  0.0589 -0.4256
16982SOL    HW153838   2.357   5.336   1.625 -0.2731  0.4140 -0.1759
16982SOL    HW253839   2.351   5.322   1.475  0.4284  1.0706 -0.2726
16983SOL     OW53840   8.329   0.511   6.363 -0.2513  0.7124  0.2897
16983SOL    HW153841   8.260   0.469   6.414 -0.4996  1.0821  0.2638
16983SOL    HW253842   8.356   0.445   6.299 -2.0283  1.2266 -1.0802
16984SOL     OW53843   5.092   8.871   3.356 -0.0028 -0.0222  0.1225
16984SOL    HW153844   5.010   8.822   3.361  0.7187 -1.2943 -0.1253
16984SOL    HW253845   5.158   8.810   3.390  1.1562  0.2113 -1.6132
16985SOL     OW53846   8.606   1.505   3.310  0.1464  0.3914  0.1320
16985SOL    HW153847   8.597   1.598   3.330 -0.9582  0.1999  0.5815
16985SOL    HW253848   8.526   1.465   3.343 -0.2324 -0.4657 -1.7226
16986SOL     OW53849   4.570   2.931   1.435  0.1717 -0.3404  0.2219
16986SOL    HW153850   4.541   2.915   1.346  0.4626  1.3266 -0.1975
16986SOL    HW253851   4.663   2.951   1.427 -0.0389  0.9271  0.7452
16987SOL     OW53852   7.644   8.877   7.661  0.1984 -0.1846 -0.2691
16987SOL    HW153853   7.734   8.864   7.691 -0.5844 -0.9127  2.0052
16987SOL    HW253854   7.646   8.855   7.568  2.7592  1.9130 -0.8201
16988SOL     OW53855   8.120   5.574   8.259 -0.1680  0.0088  0.6077
16988SOL    HW153856   8.056   5.505   8.240  1.6901 -1.1216 -2.1382
16988SOL    HW253857   8.090   5.649   8.208 -0.1346 -0.0236  0.5404
16989SOL     OW53858   3.694   2.751   9.195 -0.2500  0.4036  0.5137
16989SOL    HW153859   3.664   2.662   9.178  2.4817 -0.6055  0.5697
16989SOL    HW253860   3.697   2.792   9.109 -0.6189  0.1615  0.3812
16990SOL     OW53861   4.335   9.615   3.720  0.3411  0.0434 -0.0508
16990SOL    HW153862   4.407   9.557   3.699  0.3116  0.0856 -0.2696
16990SOL    HW253863   4.271   9.559   3.764  0.2101 -0.1419 -0.4727
16991SOL     OW53864   5.820   4.173   5.014  0.0496  0.2851  0.4679
16991SOL    HW153865   5.872   4.117   5.072  1.6763  0.1367 -1.0705
16991SOL    HW253866   5.795   4.117   4.941  0.7037  1.2323 -0.5166
16992SOL     OW53867   8.010   2.692   9.626  0.2957  0.5569  0.2441
16992SOL    HW153868   7.946   2.622   9.616 -1.1053  1.8976 -0.6797
16992SOL    HW253869   8.047   2.705   9.539  1.7227 -0.0690  0.7282
16993SOL     OW53870   6.645   4.646   9.109 -0.2061 -0.3673 -0.2495
16993SOL    HW153871   6.719   4.597   9.143  0.5509  1.0775  0.2580
16993SOL    HW253872   6.640   4.621   9.017  1.3250 -0.0034 -0.4555
16994SOL     OW53873   5.058   5.978   7.735 -0.3622 -0.2146  0.7717
16994SOL    HW153874   5.012   5.954   7.816  1.0354 -3.7605  0.6873
16994SOL    HW253875   5.000   5.947   7.666  0.5343 -1.6175  0.6020
16995SOL     OW53876   8.990   4.597   8.170 -0.2977  0.3702  0.7107
16995SOL    HW153877   8.975   4.511   8.128 -0.8782  0.8203 -0.0477
16995SOL    HW253878   9.043   4.645   8.107  0.0141  0.5773  1.1290
16996SOL     OW53879   2.218   5.288   0.768  0.2825 -0.2688 -0.3956
16996SOL    HW153880   2.153   5.248   0.710  0.7510 -0.1341 -1.0263
16996SOL    HW253881   2.201   5.249   0.854  1.1967 -2.4273 -1.1213
16997SOL     OW53882   1.351   0.047   7.272  0.4019  0.0456  0.2705
16997SOL    HW153883   1.402   0.097   7.209 -0.9444  1.7943  0.4758
16997SOL    HW253884   1.363   0.095   7.355 -2.1443  1.0481  0.1550
16998SOL     OW53885   8.902   1.809   1.370 -0.1473 -0.2263 -0.3478
16998SOL    HW153886   8.992   1.841   1.379 -0.1794  0.3203 -1.7538
16998SOL    HW253887   8.849   1.888   1.365 -0.4761 -0.5030 -1.5827
16999SOL     OW53888   7.902   4.375   0.931  0.3156  0.1899  0.5036
16999SOL    HW153889   7.907   4.466   0.963  1.2034  0.3723 -0.1244
16999SOL    HW253890   7.873   4.325   1.007  0.4352  0.9161  1.0415
17000SOL     OW53891   2.791   3.225   8.624  0.6783 -0.2997  0.0912
17000SOL    HW153892   2.719   3.285   8.644  1.3875  0.7993 -0.5589
17000SOL    HW253893   2.836   3.213   8.708  1.1816  0.9658  0.0101
17001SOL     OW53894   1.930   8.858   3.819 -0.2344  0.1490 -0.3723
17001SOL    HW153895   1.959   8.824   3.904 -0.5532 -0.1333 -0.3734
17001SOL    HW253896   1.911   8.780   3.768 -3.1981  0.2738  0.3826
17002SOL     OW53897   8.320   2.935   4.757  0.2979  0.4835 -0.1163
17002SOL    HW153898   8.238   2.889   4.772  0.5348  0.2151  0.3781
17002SOL    HW253899   8.328   2.939   4.662 -0.2007  0.3646 -0.1681
17003SOL     OW53900   5.965   6.750   1.598 -0.6901  0.1419 -0.0023
17003SOL    HW153901   5.959   6.696   1.519 -1.2027 -0.0069  0.1401
17003SOL    HW253902   5.959   6.840   1.566 -1.1138  0.0752 -0.1134
17004SOL     OW53903   0.218   3.048   2.023 -0.4250 -0.4926  0.2505
17004SOL    HW153904   0.129   3.013   2.035 -1.5366  2.3656  1.4237
17004SOL    HW253905   0.209   3.141   2.043  2.9551 -0.1570  0.7549
17005SOL     OW53906   5.089   0.601   5.752  0.2114 -0.0270  0.5591
17005SOL    HW153907   5.010   0.598   5.697 -0.1959 -0.5042  1.1586
17005SOL    HW253908   5.161   0.590   5.691 -0.2209 -0.2248  0.0780
17006SOL     OW53909   5.630   4.672   5.025 -0.0921 -0.0112  0.7275
17006SOL    HW153910   5.627   4.716   4.940  0.8474  0.1123  0.7483
17006SOL    HW253911   5.572   4.596   5.014  0.5425 -0.3781 -0.2501
17007SOL     OW53912   4.239   6.527   6.041  0.1855  0.2588 -0.0872
17007SOL    HW153913   4.328   6.535   6.076 -0.4366  0.9785  1.4347
17007SOL    HW253914   4.188   6.590   6.092 -1.1178  0.1733 -1.2392
17008SOL     OW53915   8.248   0.367   8.762 -0.0444  0.2804  0.3007
17008SOL    HW153916   8.337   0.390   8.735 -0.4234  1.0905 -0.2685
17008SOL    HW253917   8.193   0.391   8.688 -0.8778  0.8085  1.0730
17009SOL     OW53918   5.756   7.852   7.364  0.5933  0.7522 -0.1176
17009SOL    HW153919   5.833   7.842   7.307  0.1142 -1.4345 -0.4640
17009SOL    HW253920   5.693   7.789   7.331 -0.8300  1.5012  1.0528
17010SOL     OW53921   0.640   4.885   6.456 -0.0340  0.6675  0.3576
17010SOL    HW153922   0.584   4.959   6.479 -1.1644 -0.5273  1.6302
17010SOL    HW253923   0.594   4.840   6.386  0.0602  0.5152  0.3922
17011SOL     OW53924   1.896   5.749   4.168  0.1544 -0.5951  0.0041
17011SOL    HW153925   1.844   5.763   4.248  1.1885  1.1979  0.4236
17011SOL    HW253926   1.840   5.779   4.097  0.4957  1.1582  0.4351
17012SOL     OW53927   3.537   9.600   1.083  0.5393  0.1889 -0.0247
17012SOL    HW153928   3.544   9.523   1.139 -1.1821  0.8285  1.1509
17012SOL    HW253929   3.625   9.638   1.082  1.0208 -0.8838  0.6956
17013SOL     OW53930   3.774   0.224   1.303  0.3382  0.2467  0.2616
17013SOL    HW153931   3.686   0.248   1.272 -0.0714  0.3266  1.4295
17013SOL    HW253932   3.791   0.284   1.375  1.1812 -0.0453  0.3148
17014SOL     OW53933   0.362   9.177   6.315 -0.2727  0.3948  0.0685
17014SOL    HW153934   0.338   9.265   6.286 -1.1478 -0.1076 -0.8004
17014SOL    HW253935   0.428   9.191   6.383  0.4372  1.6771 -0.8461
17015SOL     OW53936   4.614   8.580   4.490 -0.2191  0.4001  0.0624
17015SOL    HW153937   4.576   8.601   4.404  1.3333 -0.5144 -0.9073
17015SOL    HW253938   4.539   8.564   4.547 -1.3044 -0.6496 -1.5779
17016SOL     OW53939   1.058   4.915   1.003 -0.3333  0.0793  0.2712
17016SOL    HW153940   1.001   4.982   1.041 -1.3455 -0.0462 -0.9746
17016SOL    HW253941   1.031   4.909   0.911  2.4948  0.8927 -0.7238
17017SOL     OW53942   3.368   2.246   7.341 -0.0337  0.3247 -0.1028
17017SOL    HW153943   3.423   2.275   7.412 -0.2905  1.9628 -0.5433
17017SOL    HW253944   3.403   2.160   7.317  0.0250 -0.2762  1.9857
17018SOL     OW53945   6.786   5.409   4.227 -0.0189  0.3913 -0.5993
17018SOL    HW153946   6.796   5.358   4.308 -0.9671 -0.2809 -0.8914
17018SOL    HW253947   6.872   5.405   4.186 -0.3556 -2.1395 -1.2695
17019SOL     OW53948   3.718   3.264   1.513 -0.0540 -0.2554 -0.3520
17019SOL    HW153949   3.727   3.327   1.441 -0.5372  0.6709  0.3724
17019SOL    HW253950   3.684   3.316   1.586 -1.2902 -1.5246  0.0210
17020SOL     OW53951   1.344   3.759   2.473 -0.5232 -0.2146 -0.1858
17020SOL    HW153952   1.279   3.773   2.404  0.1156 -0.0271 -0.7675
17020SOL    HW253953   1.421   3.724   2.427  0.5352  1.5470  0.1619
17021SOL     OW53954   3.463   0.494   8.012  0.4394 -0.0480  0.0847
17021SOL    HW153955   3.434   0.403   8.004  2.0185 -0.4854 -1.2676
17021SOL    HW253956   3.465   0.510   8.106 -0.5956 -1.1563  0.3220
17022SOL     OW53957   1.971   0.247   1.123 -0.6650 -0.0918 -0.7332
17022SOL    HW153958   2.041   0.226   1.062  0.1302  0.0681  0.0934
17022SOL    HW253959   1.890   0.240   1.072  0.0481  1.3087 -2.1288
17023SOL     OW53960   2.980   4.919   7.638  0.7007  0.0984  0.2574
17023SOL    HW153961   3.030   4.996   7.664  0.5956  0.4273 -0.4770
17023SOL    HW253962   2.889   4.943   7.655  0.7053 -0.0653  0.5195
17024SOL     OW53963   8.101   6.130   9.329  0.2623 -0.3968 -0.1575
17024SOL    HW153964   8.028   6.157   9.273  0.5135 -0.2131 -0.4006
17024SOL    HW253965   8.066   6.056   9.380  0.0029 -0.5067 -0.4886
17025SOL     OW53966   7.898   6.903   9.184  0.4538  0.4678  0.0267
17025SOL    HW153967   7.828   6.905   9.119 -0.5139 -2.1639  0.8598
17025SOL    HW253968   7.931   6.813   9.182  2.1501  0.9946  1.3916
17026SOL     OW53969   8.905   4.869   3.866 -0.5709  0.5171 -0.3452
17026SOL    HW153970   8.939   4.910   3.786  1.1356  0.0127  0.0811
17026SOL    HW253971   8.880   4.942   3.921  0.6994  0.9692 -0.3320
17027SOL     OW53972   2.117   2.619   0.733  0.4532 -0.0020 -0.2993
17027SOL    HW153973   2.128   2.690   0.670  0.1727  0.0891 -0.2449
17027SOL    HW253974   2.106   2.541   0.679 -0.0204  0.1103 -0.3648
17028SOL     OW53975   6.515   4.254   9.277 -0.4576  0.0051  0.0905
17028SOL    HW153976   6.599   4.240   9.233 -0.0895 -0.3986  0.9112
17028SOL    HW253977   6.488   4.167   9.306 -0.5223  0.3169  0.9743
17029SOL     OW53978   1.913   0.645   6.720  0.0605 -0.1307 -0.6217
17029SOL    HW153979   1.839   0.690   6.680 -1.2046 -1.6664 -0.0964
17029SOL    HW253980   1.950   0.592   6.649 -0.2240 -0.4540 -0.5264
17030SOL     OW53981   1.400   5.875   0.642  0.2397  0.1492 -0.0855
17030SOL    HW153982   1.442   5.946   0.691  0.6907 -1.7480  2.5013
17030SOL    HW253983   1.471   5.813   0.624 -0.3573 -0.2252 -1.2277
17031SOL     OW53984   5.037   8.964   1.290  0.6680 -0.3450 -0.4634
17031SOL    HW153985   5.006   8.969   1.380 -0.9425 -0.9035 -0.9460
17031SOL    HW253986   4.959   8.940   1.240  1.7697 -1.1096 -1.8610
17032SOL     OW53987   4.536   5.849   4.338  0.0145  0.5745 -0.0212
17032SOL    HW153988   4.471   5.914   4.309  0.3727  0.9142 -0.0708
17032SOL    HW253989   4.498   5.765   4.313  0.2876  0.8485 -1.4609
17033SOL     OW53990   4.841   5.559   1.785  0.0636 -0.0199  0.5850
17033SOL    HW153991   4.929   5.523   1.782  0.0967  0.0863  0.2479
17033SOL    HW253992   4.853   5.654   1.778 -0.1228 -0.0552 -0.4036
17034SOL     OW53993   2.404   1.775   0.786  0.5842  0.4044 -0.2635
17034SOL    HW153994   2.448   1.798   0.703  0.6374 -2.1213 -1.0116
17034SOL    HW253995   2.317   1.745   0.759  0.4103  0.0702  0.6485
17035SOL     OW53996   9.236   1.382   8.234  0.4339 -0.2738 -0.1051
17035SOL    HW153997   9.222   1.372   8.140  0.2239  1.0468 -0.2252
17035SOL    HW253998   9.281   1.466   8.243  0.3015 -0.3069  0.9903
17036SOL     OW53999   0.554   9.342   0.831 -0.5648  0.0808  0.0330
17036SOL    HW154000   0.577   9.305   0.916  0.1476 -0.0588 -0.2203
17036SOL    HW254001   0.546   9.267   0.773 -0.1755  0.2410 -0.2302
17037SOL     OW54002   7.713   2.217   8.386 -0.1066  0.1490  0.4938
17037SOL    HW154003   7.759   2.298   8.366 -0.3382  0.3060  0.5946
17037SOL    HW254004   7.648   2.242   8.452  0.3489 -0.2752  1.1101
17038SOL     OW54005   7.386   0.343   8.183 -0.0389  0.3514  0.4408
17038SOL    HW154006   7.367   0.307   8.097  1.7505 -2.0158  0.9395
17038SOL    HW254007   7.312   0.401   8.202 -0.1894  1.4464 -2.8833
17039SOL     OW54008   2.399   1.094   8.896  0.0808 -0.3953  0.4145
17039SOL    HW154009   2.323   1.036   8.890  0.1760 -0.3502 -2.5364
17039SOL    HW254010   2.423   1.092   8.989 -2.0342 -2.3045  1.0145
17040SOL     OW54011   7.134   7.337   6.004 -0.1327  0.3681  0.3366
17040SOL    HW154012   7.081   7.280   6.061 -0.3598  0.6893  0.4527
17040SOL    HW254013   7.169   7.278   5.937  0.9062 -0.1885  1.3388
17041SOL     OW54014   2.931   5.106   8.266  0.5139 -0.4714 -0.1764
17041SOL    HW154015   2.864   5.161   8.307 -1.2736 -1.3249 -1.8306
17041SOL    HW254016   2.902   5.096   8.176  1.6397 -2.8036 -0.3357
17042SOL     OW54017   3.029   5.809   6.363 -0.7600  0.6759  0.1175
17042SOL    HW154018   3.120   5.839   6.361 -0.2673 -0.2864  3.2072
17042SOL    HW254019   3.034   5.717   6.389 -2.6411  0.9286  1.5694
17043SOL     OW54020   1.551   7.071   4.283 -0.4899  0.1749  0.2863
17043SOL    HW154021   1.589   7.093   4.368 -0.3783  0.1570  0.2410
17043SOL    HW254022   1.532   6.977   4.288 -1.3527  0.3607  0.6292
17044SOL     OW54023   9.298   3.705   1.388 -0.5653  0.7308  0.0949
17044SOL    HW154024   9.351   3.641   1.436 -1.4482  0.7152  1.0808
17044SOL    HW254025   9.230   3.731   1.450 -2.5766 -0.2923 -1.5820
17045SOL     OW54026   6.739   9.612   8.649  0.4116 -0.0760  0.1683
17045SOL    HW154027   6.758   9.518   8.643  0.2319 -0.0797 -0.3416
17045SOL    HW254028   6.821   9.654   8.624  0.2545 -0.0981 -0.4012
17046SOL     OW54029   6.737   5.327   3.943  0.0951 -0.2124  0.0855
17046SOL    HW154030   6.727   5.258   4.009  3.3490 -1.1269 -0.2149
17046SOL    HW254031   6.772   5.402   3.992  1.0769 -0.3912 -0.3167
17047SOL     OW54032   1.950   0.225   5.842 -0.0838  0.4331  0.0665
17047SOL    HW154033   1.945   0.195   5.933  0.3490  0.0612 -0.0277
17047SOL    HW254034   1.862   0.255   5.821  0.0218  1.3771  0.9014
17048SOL     OW54035   8.403   6.381   7.052 -0.5191 -0.0631 -0.3495
17048SOL    HW154036   8.489   6.373   7.092 -0.1104 -0.2215 -1.2409
17048SOL    HW254037   8.393   6.301   7.000 -1.5590 -0.4486  0.3966
17049SOL     OW54038   8.587   1.839   5.581 -0.0694  0.1858 -0.0968
17049SOL    HW154039   8.680   1.853   5.566 -0.2864  1.6510 -0.1875
17049SOL    HW254040   8.557   1.793   5.502  0.6563 -0.7365  0.1517
17050SOL     OW54041   1.288   1.010   0.395 -0.2471 -0.1004  0.0625
17050SOL    HW154042   1.273   1.088   0.448  0.3139  0.0551 -0.0058
17050SOL    HW254043   1.310   1.043   0.308 -1.1207 -0.3534 -0.2714
17051SOL     OW54044   6.520   2.326   3.683  0.3801  0.1347 -0.2807
17051SOL    HW154045   6.602   2.371   3.662  1.0754 -0.5758  0.7809
17051SOL    HW254046   6.516   2.326   3.779  0.0310 -1.3542 -0.2594
17052SOL     OW54047   1.347   2.870   3.596  0.5467 -0.9683  0.6733
17052SOL    HW154048   1.251   2.867   3.601  0.4526  0.6424  0.3056
17052SOL    HW254049   1.365   2.929   3.523  1.8402 -1.5481  0.4989
17053SOL     OW54050   1.057   0.689   1.475  0.5910 -0.1267  0.3382
17053SOL    HW154051   1.002   0.611   1.474  0.2576  0.1064 -0.1093
17053SOL    HW254052   1.130   0.669   1.417 -0.2512  0.4151 -0.9420
17054SOL     OW54053   2.203   1.656   7.446 -0.3038 -0.1927 -0.4780
17054SOL    HW154054   2.197   1.688   7.356 -0.1341 -1.6079 -1.0214
17054SOL    HW254055   2.113   1.641   7.473 -0.3342 -0.2723 -0.6195
17055SOL     OW54056   5.034   3.352   2.980 -0.0838 -0.7123  0.5015
17055SOL    HW154057   5.092   3.327   2.908  0.5643 -1.6340  1.3048
17055SOL    HW254058   4.993   3.269   3.007 -0.5431 -0.3351  0.9861
17056SOL     OW54059   9.263   6.458   2.094  0.2432 -0.1098 -0.3196
17056SOL    HW154060   9.284   6.546   2.125  0.4383 -0.7181  1.3836
17056SOL    HW254061   9.211   6.420   2.165  1.0157 -1.7008 -0.5659
17057SOL     OW54062   7.155   7.989   3.020 -1.0188  0.1489 -0.7617
17057SOL    HW154063   7.243   7.957   2.997 -0.7661 -0.7321  1.2800
17057SOL    HW254064   7.134   8.051   2.950  1.1936  0.3398 -1.3427
17058SOL     OW54065   9.254   2.274   8.479 -0.1469  0.1749  0.1465
17058SOL    HW154066   9.307   2.278   8.558  0.2111 -1.4518  0.0262
17058SOL    HW254067   9.201   2.353   8.481  1.2107  1.0942  1.0370
17059SOL     OW54068   8.753   0.058   7.591  0.8439  0.0482 -0.6947
17059SOL    HW154069   8.837   0.077   7.549  2.3586  0.6349  2.3120
17059SOL    HW254070   8.771   0.068   7.685 -2.7805  0.9049  0.0495
17060SOL     OW54071   0.850   0.507   1.338  0.2070  0.3211 -0.0038
17060SOL    HW154072   0.792   0.461   1.277 -0.1669  2.1867 -1.1270
17060SOL    HW254073   0.803   0.588   1.359  0.8415  0.2361  1.9235
17061SOL     OW54074   0.115   4.022   2.381 -0.2402  0.2872  0.1026
17061SOL    HW154075   0.165   4.095   2.418  0.7946 -0.2825 -0.1466
17061SOL    HW254076   0.140   3.946   2.433 -0.6021 -0.0716 -0.2396
17062SOL     OW54077   5.231   3.762   1.616  0.2967 -0.6142 -0.4692
17062SOL    HW154078   5.157   3.781   1.557  1.2253 -0.9632 -1.7892
17062SOL    HW254079   5.243   3.842   1.666 -0.6070 -0.3563 -0.6348
17063SOL     OW54080   7.909   8.414   1.356  0.1503  0.8211 -0.0438
17063SOL    HW154081   7.937   8.482   1.417  0.3747  1.0034 -0.3410
17063SOL    HW254082   7.983   8.353   1.351  0.0398  0.6802  0.0485
17064SOL     OW54083   2.825   0.186   4.110 -0.3243  0.1752 -0.1452
17064SOL    HW154084   2.767   0.188   4.186  0.0992  0.9195  0.1691
17064SOL    HW254085   2.864   0.273   4.107  1.2450 -0.4929  0.0123
17065SOL     OW54086   9.283   3.976   0.869 -0.6736  0.3877  0.0925
17065SOL    HW154087   9.329   3.994   0.951 -1.9021  0.5271  0.7756
17065SOL    HW254088   9.295   4.055   0.817 -0.1153  0.4054  0.2368
17066SOL     OW54089   0.870   2.394   8.508  0.6995  0.1778 -0.1372
17066SOL    HW154090   0.891   2.374   8.417  2.2028 -2.2558  0.6623
17066SOL    HW254091   0.783   2.357   8.522  0.9719 -0.5297 -0.2829
17067SOL     OW54092   0.088   6.434   5.624  0.0689  0.3809 -0.2712
17067SOL    HW154093   0.062   6.418   5.715  0.8471  2.1183  0.2832
17067SOL    HW254094   0.009   6.416   5.573 -0.0728 -1.7249  0.5887
17068SOL     OW54095   4.047   2.605   8.679 -0.2589  0.2616 -0.1781
17068SOL    HW154096   3.959   2.570   8.666  0.7563 -2.3428 -0.9335
17068SOL    HW254097   4.051   2.683   8.624 -1.5156 -0.7035 -1.7106
17069SOL     OW54098   2.434   4.789   2.455 -0.6867  0.0060 -0.6053
17069SOL    HW154099   2.515   4.750   2.422 -0.9773 -1.0570 -0.1054
17069SOL    HW254100   2.458   4.827   2.539 -0.8038 -0.7315 -0.2327
17070SOL     OW54101   4.366   2.286   0.973 -0.3814 -0.0133  0.0159
17070SOL    HW154102   4.343   2.341   0.898 -0.9732  0.5240  0.5756
17070SOL    HW254103   4.338   2.337   1.049  2.7657  0.7500  0.7903
17071SOL     OW54104   3.448   6.149   4.433 -0.5335 -0.1739  0.1601
17071SOL    HW154105   3.409   6.185   4.353  2.0037 -0.8778 -1.5248
17071SOL    HW254106   3.387   6.081   4.461 -0.8528 -0.8659 -2.0421
17072SOL     OW54107   0.811   2.443   7.407 -0.0218  0.2656 -0.1283
17072SOL    HW154108   0.731   2.492   7.388 -1.1708 -0.8195  1.6262
17072SOL    HW254109   0.843   2.478   7.490  0.3662 -0.4366  0.0326
17073SOL     OW54110   5.878   6.201   8.291 -0.4832  0.0556  0.7080
17073SOL    HW154111   5.786   6.190   8.267 -0.2153  3.1358 -2.5466
17073SOL    HW254112   5.877   6.271   8.357 -0.4397  0.4441  0.2963
17074SOL     OW54113   4.732   2.057   4.081  0.6885  0.0421  0.1723
17074SOL    HW154114   4.680   2.126   4.041 -0.8570 -1.1332  0.0694
17074SOL    HW254115   4.701   2.052   4.171  0.2447 -1.0062 -0.0273
17075SOL     OW54116   8.204   0.190   9.631  0.2038 -0.0158  0.5287
17075SOL    HW154117   8.291   0.211   9.663  1.0283 -0.4988 -1.2432
17075SOL    HW254118   8.217   0.167   9.539 -1.6108 -1.3911  0.5435
17076SOL     OW54119   5.307   4.138   5.442 -0.4817 -0.3118 -0.5392
17076SOL    HW154120   5.268   4.051   5.436 -0.5020 -0.2873 -0.7596
17076SOL    HW254121   5.249   4.194   5.392 -0.0348 -0.3206 -1.0766
17077SOL     OW54122   3.330   1.476   0.089 -0.7319  0.1593  0.2169
17077SOL    HW154123   3.409   1.432   0.122  1.2878  2.6509 -1.0250
17077SOL    HW254124   3.268   1.469   0.162  0.2099 -2.7266  0.8903
17078SOL     OW54125   3.861   7.420   5.360 -0.1254  0.5829  0.1355
17078SOL    HW154126   3.868   7.403   5.454 -2.8222  2.0500  0.6875
17078SOL    HW254127   3.801   7.352   5.329  0.7682  0.0971 -0.5595
17079SOL     OW54128   0.100   3.493   8.134 -0.1052  0.2643  0.1377
17079SOL    HW154129   0.131   3.459   8.050 -0.7707 -0.1707  0.0557
17079SOL    HW254130   0.049   3.420   8.172 -2.2630  1.3999 -0.3990
17080SOL     OW54131   1.393   6.280   3.006 -0.4501 -0.2388 -0.7758
17080SOL    HW154132   1.411   6.202   2.953 -0.2517 -1.5003  1.0566
17080SOL    HW254133   1.375   6.246   3.093  1.0467  1.8757  0.4385
17081SOL     OW54134   4.210   6.821   7.392  0.0240 -0.3978  0.2937
17081SOL    HW154135   4.179   6.789   7.477 -0.1584 -0.0889  0.3457
17081SOL    HW254136   4.151   6.893   7.370 -1.0287 -1.5868 -0.9244
17082SOL     OW54137   6.657   9.345   2.490  0.1543  0.1129  0.0635
17082SOL    HW154138   6.737   9.395   2.479  0.6379 -0.7178 -0.2951
17082SOL    HW254139   6.670   9.296   2.572 -0.0114  0.0319  0.0427
17083SOL     OW54140   9.105   7.437   5.748  0.0197 -0.3355 -0.1760
17083SOL    HW154141   9.104   7.487   5.829 -0.9979  1.0950 -1.0254
17083SOL    HW254142   9.019   7.396   5.743  0.7430 -2.0414  0.3730
17084SOL     OW54143   5.566   3.076   3.302 -0.4741  0.5075 -0.4466
17084SOL    HW154144   5.479   3.060   3.337 -0.7672 -1.3603 -1.8676
17084SOL    HW254145   5.553   3.146   3.237 -1.2939 -0.8835 -1.8535
17085SOL     OW54146   4.744   1.094   1.206 -0.4312 -0.3197  0.6951
17085SOL    HW154147   4.703   1.016   1.168 -0.6131 -0.3413  0.9360
17085SOL    HW254148   4.807   1.060   1.269  0.5626 -0.3139 -0.2579
17086SOL     OW54149   7.892   8.696   9.126  0.1316 -0.4164  0.6171
17086SOL    HW154150   7.925   8.614   9.087 -0.0940 -0.6878  1.0020
17086SOL    HW254151   7.967   8.756   9.119 -0.4148  0.1098 -1.8571
17087SOL     OW54152   7.401   0.450   6.704 -0.2004  0.5934  0.0077
17087SOL    HW154153   7.467   0.472   6.770 -0.1710  2.9619 -0.7194
17087SOL    HW254154   7.339   0.523   6.708 -0.0386  0.9681 -2.7631
17088SOL     OW54155   4.027   6.423   6.308 -0.3353 -0.2446 -0.2793
17088SOL    HW154156   3.966   6.475   6.360 -0.0585  2.0941 -2.1202
17088SOL    HW254157   4.112   6.467   6.318  0.4839 -1.8097  0.0441
17089SOL     OW54158   9.588   0.082   0.727 -0.2064 -0.3036 -0.0069
17089SOL    HW154159   9.589   0.169   0.688  0.5741 -0.6555 -0.8148
17089SOL    HW254160   9.628   0.093   0.813  0.8882 -0.0404 -0.5330
17090SOL     OW54161   4.913   0.025   6.791 -0.4399  0.7992 -0.3019
17090SOL    HW154162   5.003   0.005   6.818 -1.5069 -0.4402  2.7458
17090SOL    HW254163   4.916   0.023   6.696  2.3778 -1.0996 -0.2995
17091SOL     OW54164   3.741   0.960   9.038  0.1763 -0.0806 -0.0366
17091SOL    HW154165   3.679   1.026   9.005 -0.1600 -0.2433  0.2580
17091SOL    HW254166   3.722   0.881   8.987 -0.8186 -0.5346  0.9894
17092SOL     OW54167   4.427   3.947   1.750  0.2707 -0.0502  0.0302
17092SOL    HW154168   4.425   4.040   1.775  0.3603 -0.2698  0.8845
17092SOL    HW254169   4.487   3.943   1.676  1.2442  0.3910  0.7802
17093SOL     OW54170   3.244   6.714   8.798 -0.4998 -0.2805  0.1929
17093SOL    HW154171   3.172   6.748   8.745 -0.2951 -0.8206 -0.4380
17093SOL    HW254172   3.323   6.752   8.759 -0.3166 -0.9904 -0.1396
17094SOL     OW54173   5.545   4.708   4.769 -0.0082  0.5948  0.2560
17094SOL    HW154174   5.476   4.681   4.708  0.1510  0.9453 -0.0876
17094SOL    HW254175   5.523   4.799   4.791  0.4984  0.8051 -0.0861
17095SOL     OW54176   3.123   5.806   2.659 -0.3060  0.2142  0.3166
17095SOL    HW154177   3.189   5.867   2.627  0.7811 -0.6152  0.9282
17095SOL    HW254178   3.046   5.860   2.675  0.0324  1.1055 -0.9355
17096SOL     OW54179   2.649   4.490   1.565  0.7582  0.2813 -0.2785
17096SOL    HW154180   2.629   4.443   1.484  0.6448 -0.4080  0.1376
17096SOL    HW254181   2.693   4.570   1.536  1.0249 -0.1164 -1.0046
17097SOL     OW54182   0.433   3.358   4.905 -0.2188  0.3878  0.2775
17097SOL    HW154183   0.443   3.281   4.849  0.9274 -0.9407  2.2248
17097SOL    HW254184   0.520   3.399   4.904 -0.0792  0.1354  1.3565
17098SOL     OW54185   1.987   2.041   8.782 -0.0035 -0.1387  0.0726
17098SOL    HW154186   2.008   2.086   8.701 -1.1202  0.6008  0.1696
17098SOL    HW254187   2.055   2.069   8.844  2.2072 -2.4470 -1.1254
17099SOL     OW54188   2.362   7.335   3.604  0.8071 -0.0598 -0.0598
17099SOL    HW154189   2.443   7.356   3.557  0.4169  1.0579 -0.2568
17099SOL    HW254190   2.382   7.352   3.696  0.3956  1.6423 -0.2438
17100SOL     OW54191   9.605   0.181   2.969  0.0863 -0.4975 -0.3766
17100SOL    HW154192   9.616   0.142   2.882 -0.0716 -0.0019 -0.6208
17100SOL    HW254193   9.679   0.240   2.978 -0.5079  0.3044 -0.6450
17101SOL     OW54194   7.917   0.380   0.533  0.1128  0.0040  0.1728
17101SOL    HW154195   7.997   0.384   0.585 -0.6064  0.4737  1.2943
17101SOL    HW254196   7.935   0.316   0.464 -0.1161 -3.4902  3.1149
17102SOL     OW54197   0.880   2.985   7.290  0.0310  0.0492  0.3072
17102SOL    HW154198   0.842   2.981   7.202 -0.7166 -0.8694  0.6608
17102SOL    HW254199   0.971   3.009   7.275 -0.2381  0.5159 -0.6763
17103SOL     OW54200   7.195   2.267   8.231 -0.2411 -0.2179 -0.7625
17103SOL    HW154201   7.249   2.237   8.159 -1.3752  0.5593 -1.9878
17103SOL    HW254202   7.125   2.202   8.238  0.1392 -0.5560 -0.0188
17104SOL     OW54203   0.349   4.162   6.548  0.3059  0.4110 -0.0540
17104SOL    HW154204   0.333   4.226   6.478  0.2658 -0.9337 -1.3206
17104SOL    HW254205   0.444   4.159   6.556  0.3324  0.1963 -0.4199
17105SOL     OW54206   0.047   3.258   5.019  0.0672  0.2186  0.2867
17105SOL    HW154207   0.031   3.314   4.943 -0.1048  0.4090  0.4622
17105SOL    HW254208  -0.016   3.289   5.085 -0.1956 -0.3381  0.3001
17106SOL     OW54209   3.739   6.314   4.041 -0.3898  0.6886  0.2269
17106SOL    HW154210   3.832   6.340   4.040  0.5023 -2.1661  0.2403
17106SOL    HW254211   3.709   6.336   4.130  0.1677  1.8585  0.1484
17107SOL     OW54212   1.368   7.729   2.402 -0.3440 -0.5974 -0.8371
17107SOL    HW154213   1.313   7.657   2.432 -1.2328  1.0934  2.0479
17107SOL    HW254214   1.456   7.693   2.401 -0.8426 -1.9221 -0.1633
17108SOL     OW54215   7.832   9.022   1.264 -0.2780  0.3494 -0.2364
17108SOL    HW154216   7.889   8.946   1.251 -1.1006 -0.6128  1.4806
17108SOL    HW254217   7.850   9.078   1.189  0.9433 -1.1653 -1.1394
17109SOL     OW54218   9.479   5.503   6.779  0.0903  0.2382  0.0613
17109SOL    HW154219   9.515   5.582   6.737  0.1678  0.6946  0.9554
17109SOL    HW254220   9.387   5.524   6.795  0.0815  0.0986  0.1947
17110SOL     OW54221   2.185   4.122   5.330  0.3167  0.5298  0.1306
17110SOL    HW154222   2.241   4.199   5.328  1.4009 -0.2287  0.4090
17110SOL    HW254223   2.101   4.154   5.363  0.6020  1.6704 -0.2157
17111SOL     OW54224   2.375   0.184   5.108 -1.0248 -0.3798 -0.1117
17111SOL    HW154225   2.306   0.191   5.174 -0.5158 -1.6196  0.5835
17111SOL    HW254226   2.328   0.157   5.029 -1.5721  0.6398 -0.1510
17112SOL     OW54227   4.179   9.535   1.342 -0.1260 -0.3902  0.4874
17112SOL    HW154228   4.111   9.478   1.378 -0.6297 -0.2111 -0.1639
17112SOL    HW254229   4.232   9.479   1.286 -1.2400 -0.0393 -0.9772
17113SOL     OW54230   5.042   8.448   3.781  0.2018  0.1654  0.4169
17113SOL    HW154231   4.975   8.481   3.841 -3.6936 -2.9540 -1.7137
17113SOL    HW254232   5.080   8.373   3.826 -1.1465 -0.8376 -0.0429
17114SOL     OW54233   0.307   7.972   6.008 -0.0359  0.0024  0.1691
17114SOL    HW154234   0.381   7.969   6.068  0.3403  1.1134 -0.2203
17114SOL    HW254235   0.341   7.938   5.925  0.7805  2.7294 -0.7178
17115SOL     OW54236   7.072   6.479   9.165 -0.1084  0.3667 -0.1876
17115SOL    HW154237   7.017   6.482   9.086  0.3292  1.6752 -0.4623
17115SOL    HW254238   7.078   6.570   9.193 -0.2175 -0.0750  1.3499
17116SOL     OW54239   1.047   5.901   4.597  0.2126  0.6450  0.0312
17116SOL    HW154240   1.096   5.909   4.680 -0.7184  1.5219  0.5194
17116SOL    HW254241   0.986   5.975   4.599  0.9774  1.3862 -1.9982
17117SOL     OW54242   5.110   5.186   6.716 -0.1048 -0.2583 -0.0241
17117SOL    HW154243   5.186   5.243   6.706  0.5244 -0.8088  1.3292
17117SOL    HW254244   5.116   5.124   6.643  0.4730  0.0039 -0.2060
17118SOL     OW54245   2.072   3.956   8.315 -1.0524 -0.3766 -0.3639
17118SOL    HW154246   1.980   3.981   8.304 -0.5685  1.1428 -1.3531
17118SOL    HW254247   2.093   3.907   8.235 -1.0245 -0.7623 -0.1183
17119SOL     OW54248   0.572   7.630   5.714 -0.1677  0.2480  0.1733
17119SOL    HW154249   0.522   7.562   5.760 -1.7377  1.7864  0.8301
17119SOL    HW254250   0.540   7.626   5.624 -0.8817  0.6523  0.4002
17120SOL     OW54251   7.964   2.439   9.518  0.0268 -0.5567  0.6694
17120SOL    HW154252   7.931   2.364   9.567 -1.4756  0.7069  1.6836
17120SOL    HW254253   7.889   2.468   9.465  1.1443 -0.8940 -1.1979
17121SOL     OW54254   7.951   2.232   9.032 -0.5415 -0.4025  0.0677
17121SOL    HW154255   7.940   2.168   9.103  1.9648  0.0059  0.9266
17121SOL    HW254256   7.992   2.182   8.961 -0.8176 -0.2646 -0.1913
17122SOL     OW54257   9.359   2.533   3.045 -0.0708 -0.0771 -0.0357
17122SOL    HW154258   9.358   2.625   3.069 -0.8283  0.3947 -1.7403
17122SOL    HW254259   9.268   2.505   3.052 -0.1151 -0.2424 -1.1210
17123SOL     OW54260   1.462   7.475   5.982 -0.1571  0.3614 -0.0018
17123SOL    HW154261   1.370   7.489   6.003  0.1917  1.3082  1.0362
17123SOL    HW254262   1.490   7.555   5.937 -0.1830 -0.5208 -1.6776
17124SOL     OW54263   5.960   3.544   6.239 -0.3394  0.2845 -0.4441
17124SOL    HW154264   6.019   3.614   6.265  0.6573 -1.3133  2.0034
17124SOL    HW254265   6.017   3.470   6.220 -1.3987 -1.2024  1.6565
17125SOL     OW54266   2.198   6.775   4.137  0.0828  0.0512  0.0525
17125SOL    HW154267   2.203   6.712   4.065 -2.5701 -0.8839  0.5900
17125SOL    HW254268   2.262   6.843   4.114  0.3401 -0.9380 -2.4316
17126SOL     OW54269   2.766   8.873   6.602 -0.1078  0.0612  0.6144
17126SOL    HW154270   2.821   8.951   6.613 -0.6919  0.3088  2.0721
17126SOL    HW254271   2.754   8.840   6.691  0.3678 -1.8828  0.0036
17127SOL     OW54272   9.116   6.706   1.738 -0.1353 -0.4684 -0.0731
17127SOL    HW154273   9.148   6.619   1.762 -0.2331 -0.0303  1.8062
17127SOL    HW254274   9.085   6.697   1.649  1.5706 -1.9030 -0.5726
17128SOL     OW54275   4.331   9.428   6.661  0.0636  0.4323 -0.3158
17128SOL    HW154276   4.405   9.451   6.604 -0.6160  0.1779 -1.3219
17128SOL    HW254277   4.369   9.427   6.749  1.2375  0.4404 -0.7949
17129SOL     OW54278   4.108   5.908   8.099 -0.1039  0.4218 -0.4737
17129SOL    HW154279   4.143   5.881   8.184 -0.7998  0.4044 -0.1840
17129SOL    HW254280   4.024   5.863   8.093  0.0397  0.2461 -1.2731
17130SOL     OW54281   9.168   0.269   0.454 -0.1106  0.2972 -0.6253
17130SOL    HW154282   9.195   0.226   0.535 -1.7745  0.0966 -0.1292
17130SOL    HW254283   9.087   0.316   0.478 -1.5778 -1.1182 -2.5251
17131SOL     OW54284   8.932   3.445   2.791  0.0206 -0.0483  0.9822
17131SOL    HW154285   8.890   3.493   2.862  0.5016  2.2261 -0.1909
17131SOL    HW254286   8.997   3.506   2.756 -1.0366 -0.5807 -2.1990
17132SOL     OW54287   4.566   5.033   5.417  0.0816  0.1717 -0.4240
17132SOL    HW154288   4.602   5.078   5.494  0.7214  0.2492 -0.7610
17132SOL    HW254289   4.490   5.085   5.392  0.6070  0.8647 -0.5974
17133SOL     OW54290   9.549   9.476   2.225  0.3275 -0.6655  0.3921
17133SOL    HW154291   9.606   9.492   2.300  1.0740  0.3883 -0.3641
17133SOL    HW254292   9.469   9.524   2.245 -0.6176 -2.6264  1.7295
17134SOL     OW54293   9.279   4.378   0.493  0.1113 -0.5711  0.1230
17134SOL    HW154294   9.364   4.352   0.457  0.3192 -0.6792  0.6757
17134SOL    HW254295   9.283   4.349   0.584 -0.1681  0.2342  0.3973
17135SOL     OW54296   3.181   2.383   3.721 -0.3447 -0.0136 -0.1974
17135SOL    HW154297   3.230   2.442   3.664 -0.8265 -0.1541 -0.7716
17135SOL    HW254298   3.191   2.297   3.680  0.8605 -0.4568  0.9632
17136SOL     OW54299   6.605   3.257   6.434  0.4022 -0.3722  0.4314
17136SOL    HW154300   6.604   3.275   6.340 -2.1123  1.2776  0.6870
17136SOL    HW254301   6.656   3.330   6.471  0.6187 -0.5279  0.4440
17137SOL     OW54302   0.607   3.334   2.848 -0.2729  0.3837 -0.4904
17137SOL    HW154303   0.618   3.418   2.805 -0.8714  0.6604 -0.1152
17137SOL    HW254304   0.683   3.282   2.820  1.1849  1.6905  0.8212
17138SOL     OW54305   4.147   2.096   9.355  0.2947 -0.0661  0.9613
17138SOL    HW154306   4.146   2.179   9.401 -0.5651  0.4525  0.0354
17138SOL    HW254307   4.085   2.107   9.282 -0.6410 -1.8614  1.4251
17139SOL     OW54308   0.933   9.411   6.277  0.2828 -0.4741 -0.2828
17139SOL    HW154309   0.890   9.325   6.284 -1.8434  0.5750  0.2692
17139SOL    HW254310   0.863   9.471   6.255  1.5285  1.3264  0.4493
17140SOL     OW54311   8.953   9.188   0.124  0.4968  0.1967 -0.4507
17140SOL    HW154312   8.870   9.144   0.140  0.1448  0.3637 -1.7009
17140SOL    HW254313   8.947   9.271   0.171  0.6622 -0.5237  0.8832
17141SOL     OW54314   2.016   5.000   2.754  0.2620 -0.4940 -0.1248
17141SOL    HW154315   2.076   4.963   2.819  3.8695  0.5826 -2.5187
17141SOL    HW254316   1.996   4.926   2.696 -3.6732 -1.6799  2.3888
17142SOL     OW54317   3.937   3.784   6.957  0.4914 -0.3920  0.3538
17142SOL    HW154318   3.942   3.860   6.899 -0.0951 -0.2587  0.4642
17142SOL    HW254319   3.885   3.720   6.909 -0.5684 -0.0320  0.9798
17143SOL     OW54320   1.420   5.080   8.145 -0.4996  0.5132  0.1579
17143SOL    HW154321   1.324   5.074   8.145 -0.4594 -0.4367  1.2783
17143SOL    HW254322   1.445   5.060   8.235  0.8464 -1.1674 -0.5441
17144SOL     OW54323   7.642   0.401   1.580 -0.3763  0.3144 -0.1213
17144SOL    HW154324   7.692   0.483   1.586  1.2381 -0.6642  0.4794
17144SOL    HW254325   7.563   0.418   1.632 -0.5497  1.7993 -0.8116
17145SOL     OW54326   4.780   3.268   5.075 -0.0352  0.5742  0.3189
17145SOL    HW154327   4.784   3.232   5.164 -0.4855  0.6953  0.3921
17145SOL    HW254328   4.712   3.217   5.031  0.6812  0.0336 -0.1830
17146SOL     OW54329   4.359   4.952   1.472  0.0134  0.2329  0.1181
17146SOL    HW154330   4.313   4.868   1.469 -2.0229  1.3059 -0.6462
17146SOL    HW254331   4.341   4.987   1.559 -1.1414  0.9046 -0.3743
17147SOL     OW54332   9.418   5.633   7.459  0.0869 -0.1240 -0.0393
17147SOL    HW154333   9.505   5.596   7.440 -0.9014 -2.0928 -1.0335
17147SOL    HW254334   9.424   5.723   7.428  1.1759 -0.8298 -2.0964
17148SOL     OW54335   8.013   8.279   4.762 -0.0154  0.0119 -0.2594
17148SOL    HW154336   7.947   8.230   4.712 -0.1813 -1.7628  1.5702
17148SOL    HW254337   7.961   8.337   4.818  0.1718  2.0400 -2.0533
17149SOL     OW54338   6.598   0.342   7.790  0.0745  0.0636  0.0088
17149SOL    HW154339   6.648   0.315   7.867 -3.5066 -0.2720  2.4673
17149SOL    HW254340   6.559   0.426   7.815 -0.2726  0.5377 -1.9570
17150SOL     OW54341   9.438   1.260   1.985  0.8158 -0.0128  0.5557
17150SOL    HW154342   9.424   1.281   1.893 -0.9938 -0.5074  0.6730
17150SOL    HW254343   9.487   1.334   2.020 -1.1072  1.6733 -0.1496
17151SOL     OW54344   2.070   3.303   4.298  0.2739  0.5847  0.1117
17151SOL    HW154345   2.079   3.383   4.246  2.2079  0.9578  0.9000
17151SOL    HW254346   2.116   3.323   4.380  0.4557 -1.1906  0.4869
17152SOL     OW54347   2.239   0.539   0.426  0.5018  0.1971 -0.0679
17152SOL    HW154348   2.203   0.615   0.381  0.0987  0.5988  0.9116
17152SOL    HW254349   2.172   0.516   0.491  0.9787 -0.4890  0.1916
17153SOL     OW54350   8.984   4.351   7.333 -0.2367  0.1737  0.7925
17153SOL    HW154351   8.916   4.343   7.266 -1.1220  0.5376  1.6164
17153SOL    HW254352   9.020   4.262   7.341 -1.3969 -0.2918  1.1164
17154SOL     OW54353   0.332   0.975   4.848  0.0338  1.1191  0.2873
17154SOL    HW154354   0.351   1.068   4.832  1.5201  0.6618 -0.8922
17154SOL    HW254355   0.416   0.931   4.833 -0.8890 -0.5391 -0.2838
17155SOL     OW54356   6.299   2.984   4.851  0.1736  0.1707  0.1805
17155SOL    HW154357   6.365   3.024   4.909  1.1049 -0.6256 -0.3047
17155SOL    HW254358   6.322   2.891   4.850 -1.9524 -0.4216  1.2906
17156SOL     OW54359   1.046   2.262   1.761 -0.0100  0.1721  0.0154
17156SOL    HW154360   1.040   2.248   1.667  0.2395  1.3607 -0.1859
17156SOL    HW254361   1.137   2.286   1.776  0.0920 -0.5564  0.6505
17157SOL     OW54362   0.433   7.905   6.448 -0.1144  0.1957  0.0686
17157SOL    HW154363   0.389   7.820   6.451 -2.1628  1.0030 -2.8115
17157SOL    HW254364   0.400   7.951   6.525 -1.6733 -0.4653 -0.1664
17158SOL     OW54365   5.654   1.330   5.523 -0.3737  0.3526  0.3517
17158SOL    HW154366   5.581   1.279   5.560 -0.2282  1.3256  2.0858
17158SOL    HW254367   5.689   1.378   5.598  0.7137  1.5208 -0.8745
17159SOL     OW54368   3.672   0.712   1.998  0.0846 -0.2783 -0.1660
17159SOL    HW154369   3.670   0.785   1.936  0.8719  0.4748  0.6803
17159SOL    HW254370   3.733   0.649   1.959  1.8601  0.9126  0.6068
17160SOL     OW54371   3.358   2.882   1.648 -0.0155 -0.5442  0.2709
17160SOL    HW154372   3.293   2.944   1.683 -1.1656 -1.9178  0.6746
17160SOL    HW254373   3.438   2.933   1.639 -0.7007  0.7847  1.3820
17161SOL     OW54374   9.606   9.135   4.606  0.0984  0.5268 -0.2063
17161SOL    HW154375   9.600   9.137   4.701  1.5193  0.9070 -0.1060
17161SOL    HW254376   9.522   9.170   4.576 -1.1298 -1.3593  0.8465
17162SOL     OW54377   1.526   0.399   8.062  0.1993  0.2146 -0.2103
17162SOL    HW154378   1.536   0.405   8.157  0.9463 -1.6909 -0.1177
17162SOL    HW254379   1.522   0.490   8.033  1.4905  0.8779  1.4865
17163SOL     OW54380   6.637   5.091   1.265 -0.0137  0.6293  0.2058
17163SOL    HW154381   6.580   5.014   1.269 -0.9713  1.2800 -0.2815
17163SOL    HW254382   6.649   5.117   1.357  1.4904 -0.8978  0.4821
17164SOL     OW54383   8.101   5.809   6.258 -0.0235  0.5770  0.4354
17164SOL    HW154384   8.052   5.889   6.272  0.5548  1.3599 -1.6823
17164SOL    HW254385   8.189   5.829   6.290 -0.1483  0.3777  0.9251
17165SOL     OW54386   0.087   2.605   3.288  0.5562  0.6766 -0.3497
17165SOL    HW154387   0.121   2.585   3.375  0.8792 -0.1073 -0.6501
17165SOL    HW254388  -0.005   2.579   3.291  0.8129 -0.3069 -0.5386
17166SOL     OW54389   0.690   3.462   0.171 -0.1168 -0.2104 -0.4924
17166SOL    HW154390   0.730   3.548   0.163 -0.5204 -0.0802 -1.0885
17166SOL    HW254391   0.754   3.412   0.223  0.0148  0.4997  0.0512
17167SOL     OW54392   0.511   7.075   2.211 -0.6080 -0.1792  0.3472
17167SOL    HW154393   0.513   7.141   2.280 -0.5625 -0.2203  0.3845
17167SOL    HW254394   0.600   7.072   2.177 -0.5578 -0.3841  0.4975
17168SOL     OW54395   8.591   6.813   5.951  0.6457 -0.2726  0.4697
17168SOL    HW154396   8.515   6.760   5.975  0.9895  0.0187  2.2933
17168SOL    HW254397   8.663   6.775   6.001  1.1675  1.0797  0.7832
17169SOL     OW54398   0.729   5.862   5.304 -0.3859 -0.1684  0.7971
17169SOL    HW154399   0.638   5.888   5.290  0.0387  0.3700 -1.3950
17169SOL    HW254400   0.764   5.850   5.216  1.6117 -0.6002  1.5953
17170SOL     OW54401   2.064   6.876   4.675 -0.4979 -0.0787 -0.0599
17170SOL    HW154402   2.054   6.869   4.770 -1.5681  1.4611 -0.0280
17170SOL    HW254403   2.128   6.807   4.653 -0.3101 -0.5427  1.7373
17171SOL     OW54404   6.594   8.466   3.021 -0.1469 -0.8539 -0.1193
17171SOL    HW154405   6.537   8.504   2.954  2.1307  0.3610 -1.4852
17171SOL    HW254406   6.631   8.388   2.979  0.1532 -0.9225  0.2710
17172SOL     OW54407   5.527   6.182   8.899  0.5266  0.1865  0.3852
17172SOL    HW154408   5.524   6.165   8.994 -1.5048 -0.6033  0.2399
17172SOL    HW254409   5.491   6.103   8.859  2.5947 -0.0283 -1.1741
17173SOL     OW54410   7.146   1.289   8.572  0.2635  0.3137 -0.3139
17173SOL    HW154411   7.196   1.221   8.527  1.3075  2.0576 -1.9564
17173SOL    HW254412   7.200   1.311   8.649 -1.0120 -1.9341  1.3552
17174SOL     OW54413   9.361   2.929   6.620 -0.2665  0.2314  0.2982
17174SOL    HW154414   9.409   2.993   6.566 -0.7330 -1.3534 -2.1511
17174SOL    HW254415   9.424   2.858   6.633 -0.7369 -0.1805  0.3308
17175SOL     OW54416   0.649   1.759   6.372 -0.0456 -0.1374 -0.6983
17175SOL    HW154417   0.579   1.749   6.307 -1.1558 -1.3661  0.6073
17175SOL    HW254418   0.684   1.670   6.383 -2.7678 -0.9908  3.3389
17176SOL     OW54419   8.162   7.538   1.485  0.4459 -0.1686 -0.1274
17176SOL    HW154420   8.150   7.460   1.539 -0.3298 -0.7341 -1.0706
17176SOL    HW254421   8.150   7.612   1.545  0.3674 -0.7712  0.6113
17177SOL     OW54422   5.016   8.310   1.317 -0.3287  0.0965  0.1851
17177SOL    HW154423   5.097   8.305   1.367 -0.9336 -1.3318  1.0756
17177SOL    HW254424   5.015   8.399   1.282  0.4793  0.9184  2.1233
17178SOL     OW54425   0.213   1.618   8.619  0.0435 -0.9636  0.0212
17178SOL    HW154426   0.226   1.614   8.525  0.3929  1.0561 -0.0642
17178SOL    HW254427   0.153   1.692   8.632  1.0013 -0.3826  1.4260
17179SOL     OW54428   1.734   4.137   6.124  0.4076  0.2057 -0.5627
17179SOL    HW154429   1.765   4.109   6.038  0.1353  1.9638 -1.2772
17179SOL    HW254430   1.646   4.099   6.132  0.0069  0.8873 -1.5393
17180SOL     OW54431   7.164   2.241   4.023  0.0110 -0.0858 -0.1664
17180SOL    HW154432   7.134   2.256   4.113  0.6506 -1.7913  0.3819
17180SOL    HW254433   7.258   2.258   4.027 -0.0193  0.1815 -0.6000
17181SOL     OW54434   1.522   0.639   6.985  0.0731  0.2171  0.1116
17181SOL    HW154435   1.497   0.571   6.922  2.1199 -0.8211  0.3067
17181SOL    HW254436   1.475   0.718   6.956 -1.3281 -0.9481 -0.9142
17182SOL     OW54437   3.338   2.581   6.384 -0.0195  0.0046  0.4163
17182SOL    HW154438   3.345   2.671   6.415  0.6833 -0.1495  0.7256
17182SOL    HW254439   3.377   2.529   6.455  3.2104 -0.2507 -1.3639
17183SOL     OW54440   5.695   8.591   8.492 -0.1719  0.0381  0.0613
17183SOL    HW154441   5.605   8.613   8.467 -0.1834 -0.8428 -0.7812
17183SOL    HW254442   5.723   8.530   8.423  1.8603  2.0173 -0.9877
17184SOL     OW54443   7.572   5.142   4.335 -0.1846  0.0581  0.2752
17184SOL    HW154444   7.610   5.056   4.350 -1.4043 -0.6859 -0.7177
17184SOL    HW254445   7.510   5.154   4.408  1.4805  1.0496  1.6019
17185SOL     OW54446   1.064   1.353   6.117 -0.1528  0.0577 -0.5324
17185SOL    HW154447   0.992   1.300   6.082  0.4445 -2.2860  1.4780
17185SOL    HW254448   1.025   1.438   6.134 -2.3134 -0.9230 -0.1834
17186SOL     OW54449   4.751   2.013   2.459 -0.4557  0.1745  0.3855
17186SOL    HW154450   4.721   1.940   2.405  1.0743  0.2751 -0.6726
17186SOL    HW254451   4.812   2.061   2.402 -1.0377  1.9966  1.2159
17187SOL     OW54452   6.966   9.443   5.648  0.5921  0.2237  0.1137
17187SOL    HW154453   6.918   9.416   5.570 -0.0821  0.5162  0.4143
17187SOL    HW254454   7.043   9.489   5.616  0.5063  0.0241 -0.3793
17188SOL     OW54455   5.561   3.165   3.942 -0.7231  0.4432  0.1015
17188SOL    HW154456   5.639   3.194   3.896 -1.3572  1.3647 -0.4322
17188SOL    HW254457   5.575   3.071   3.957  1.3034  0.9339  1.6889
17189SOL     OW54458   1.088   7.787   8.525 -0.2508 -0.0251 -0.3944
17189SOL    HW154459   1.092   7.882   8.514 -1.1338 -0.0645 -1.2169
17189SOL    HW254460   0.998   7.771   8.552 -0.3669 -0.7052 -1.1663
17190SOL     OW54461   6.602   0.099   9.581  0.2402  0.3097 -0.7293
17190SOL    HW154462   6.559   0.092   9.667  0.0881  1.7001 -0.6808
17190SOL    HW254463   6.530   0.114   9.520  0.3999 -0.2058 -1.0517
17191SOL     OW54464   5.380   0.855   9.408 -0.2863  0.1129 -0.2260
17191SOL    HW154465   5.376   0.943   9.370 -3.0877  0.6923  1.1600
17191SOL    HW254466   5.459   0.856   9.462  0.5805  1.2138 -1.4623
17192SOL     OW54467   0.777   3.404   6.122  0.7432  0.1301 -0.1770
17192SOL    HW154468   0.789   3.406   6.027 -1.5693  0.7717 -0.5091
17192SOL    HW254469   0.740   3.490   6.144 -2.4343 -1.3017  0.6802
17193SOL     OW54470   4.078   7.930   1.307 -0.2218 -0.0403 -0.4525
17193SOL    HW154471   4.166   7.933   1.269  0.7448  1.8555  1.7172
17193SOL    HW254472   4.019   7.927   1.232  1.6498  0.1981 -1.9946
17194SOL     OW54473   2.305   7.671   1.981 -0.4133  0.2488 -0.0699
17194SOL    HW154474   2.295   7.604   1.914  1.1739  0.0694 -0.1772
17194SOL    HW254475   2.359   7.738   1.940 -0.5385  0.7668  0.6015
17195SOL     OW54476   7.117   8.526   4.631 -0.2289  0.5044  0.2464
17195SOL    HW154477   7.052   8.544   4.699  0.8234  0.2059  1.3697
17195SOL    HW254478   7.065   8.513   4.551 -1.6544 -1.1301  1.3714
17196SOL     OW54479   0.343   3.626   3.172 -0.5322 -0.0589 -0.4186
17196SOL    HW154480   0.259   3.581   3.180 -0.3795 -0.4285 -0.8027
17196SOL    HW254481   0.372   3.606   3.082  0.9506 -1.7165  0.3575
17197SOL     OW54482   9.379   4.809   3.582 -0.3235  0.2951  0.1691
17197SOL    HW154483   9.463   4.832   3.622  0.3999  0.2686 -1.2835
17197SOL    HW254484   9.351   4.888   3.536  0.6244 -0.6474 -2.2064
17198SOL     OW54485   1.930   3.541   8.357  0.4120 -0.1038  0.1417
17198SOL    HW154486   1.957   3.477   8.291  0.1401 -1.0073  0.8871
17198SOL    HW254487   2.013   3.575   8.392  0.5591  0.4481 -0.7080
17199SOL     OW54488   9.141   2.792   2.988 -0.6402  0.1309 -0.4016
17199SOL    HW154489   9.084   2.800   2.911 -1.2260 -1.1189 -0.1360
17199SOL    HW254490   9.114   2.863   3.046 -1.2086  0.2010 -0.7467
17200SOL     OW54491   6.753   8.081   5.257  0.0451  0.3561  0.7073
17200SOL    HW154492   6.810   8.153   5.231 -1.1477  1.4582  1.0680
17200SOL    HW254493   6.807   8.003   5.245  1.2137  1.2514 -0.1399
17201SOL     OW54494   7.374   6.366   4.026  0.0927 -0.5778 -0.0141
17201SOL    HW154495   7.397   6.335   4.114  2.3487  0.1742 -0.2625
17201SOL    HW254496   7.438   6.436   4.008  0.0645 -1.1017 -2.4653
17202SOL     OW54497   2.235   6.961   5.469  0.5795 -0.8244  0.4076
17202SOL    HW154498   2.269   6.872   5.458 -0.0675 -1.2101  1.3858
17202SOL    HW254499   2.172   6.954   5.541 -2.1500 -0.3381 -1.7495
17203SOL     OW54500   0.709   2.144   4.945  0.1501 -0.0480 -0.1588
17203SOL    HW154501   0.636   2.083   4.935 -0.9299  1.0878  0.5577
17203SOL    HW254502   0.781   2.103   4.897 -0.6020 -1.7624  0.0962
17204SOL     OW54503   3.223   1.292   9.318 -0.3636 -0.7173 -0.6586
17204SOL    HW154504   3.167   1.339   9.380 -0.4607 -0.6651 -0.7856
17204SOL    HW254505   3.311   1.322   9.338 -0.3865 -0.7615 -0.4908
17205SOL     OW54506   2.083   8.862   7.076 -0.0929  0.3869 -0.6127
17205SOL    HW154507   2.110   8.953   7.070 -0.2928  0.7617  2.5925
17205SOL    HW254508   2.119   8.831   7.159 -1.6531 -1.8866 -0.6783
17206SOL     OW54509   2.712   7.614   1.701 -0.5375 -0.3105  0.1344
17206SOL    HW154510   2.692   7.652   1.786 -1.3813 -0.2452 -0.0844
17206SOL    HW254511   2.794   7.656   1.674 -0.9396  0.6112  0.3385
17207SOL     OW54512   1.902   1.860   5.671  0.1654  0.5240  0.1321
17207SOL    HW154513   1.856   1.802   5.731 -0.9128  2.1078  0.9066
17207SOL    HW254514   1.944   1.802   5.607  1.2667 -1.2164  2.3262
17208SOL     OW54515   8.299   1.383   8.890 -0.1943 -0.6811  0.2175
17208SOL    HW154516   8.295   1.289   8.909 -1.1266 -0.7693 -0.3157
17208SOL    HW254517   8.272   1.425   8.972 -0.3397 -0.9055  0.2872
17209SOL     OW54518   8.497   1.565   7.318 -0.2121  0.7662 -0.0966
17209SOL    HW154519   8.581   1.563   7.364 -0.8975  1.1659  1.2304
17209SOL    HW254520   8.471   1.657   7.320 -0.2161  0.8090 -1.4084
17210SOL     OW54521   3.987   7.989   2.494 -0.1663 -0.2866 -0.4191
17210SOL    HW154522   3.895   8.012   2.481 -0.3667 -0.5436  0.4922
17210SOL    HW254523   4.000   7.994   2.589  1.2780  1.7395 -0.6371
17211SOL     OW54524   1.905   4.059   0.494  0.1278  0.6479 -1.0081
17211SOL    HW154525   1.946   3.994   0.437 -1.8649 -1.5723 -0.0705
17211SOL    HW254526   1.822   4.019   0.521  0.2218  2.2526  2.1453
17212SOL     OW54527   8.386   6.831   5.681  0.3817 -0.4059  0.4633
17212SOL    HW154528   8.373   6.891   5.754  0.9397  0.4331 -0.1033
17212SOL    HW254529   8.481   6.828   5.669  0.4585 -2.3704  1.2427
17213SOL     OW54530   1.099   2.677   1.629 -0.2867  0.0108 -0.3688
17213SOL    HW154531   1.053   2.749   1.586 -1.7552 -0.1228  0.8731
17213SOL    HW254532   1.069   2.598   1.583 -0.7132 -0.0079 -0.0671
17214SOL     OW54533   9.142   3.638   9.150  0.6034  0.5346 -0.2218
17214SOL    HW154534   9.123   3.684   9.232  1.0876  1.4121 -0.5873
17214SOL    HW254535   9.073   3.667   9.091 -0.4208 -0.9722  0.1657
17215SOL     OW54536   4.016   9.089   7.821  0.6098 -0.5220 -0.0322
17215SOL    HW154537   4.023   9.043   7.905  1.6123 -0.9255 -0.3192
17215SOL    HW254538   3.955   9.160   7.838 -1.1796 -2.0764  0.3699
17216SOL     OW54539   3.942   7.004   5.910  0.5823 -0.0892  0.1916
17216SOL    HW154540   4.035   7.014   5.893  0.5875 -1.2627 -0.5778
17216SOL    HW254541   3.899   7.048   5.836  0.4870  1.2928  1.0336
17217SOL     OW54542   8.244   7.477   5.848  0.5635  0.0852  0.1634
17217SOL    HW154543   8.233   7.530   5.927 -1.6311  1.5219 -0.9676
17217SOL    HW254544   8.285   7.397   5.877 -2.3569 -0.5185  3.2581
17218SOL     OW54545   5.461   4.304   2.960 -0.2003 -0.2140 -0.1447
17218SOL    HW154546   5.470   4.391   2.999 -0.3191 -0.4633  0.4482
17218SOL    HW254547   5.392   4.262   3.012 -0.7344 -0.3672 -0.9594
17219SOL     OW54548   7.784   9.589   4.070 -0.0270  0.0132 -0.1746
17219SOL    HW154549   7.764   9.581   3.977 -1.2609  0.4512  0.0326
17219SOL    HW254550   7.764   9.681   4.091 -0.4541 -0.2605  0.6719
17220SOL     OW54551   5.252   6.087   1.815  0.6402 -0.4906 -0.2701
17220SOL    HW154552   5.333   6.091   1.765 -0.9237 -0.6560 -2.9637
17220SOL    HW254553   5.212   6.004   1.790 -0.7086 -0.0890  0.4612
17221SOL     OW54554   3.031   9.417   1.165 -0.5168 -0.3823  0.9131
17221SOL    HW154555   3.061   9.475   1.095  0.3421 -1.0838  0.6838
17221SOL    HW254556   2.936   9.428   1.166 -0.3616  1.1724  1.0229
17222SOL     OW54557   3.622   4.276   1.461 -0.4275 -0.6282  0.4166
17222SOL    HW154558   3.664   4.191   1.446  0.5100 -0.1434  0.2798
17222SOL    HW254559   3.675   4.317   1.529  0.2316  0.6232 -0.8303
17223SOL     OW54560   3.159   1.110   8.937 -0.4068  0.4318  0.0307
17223SOL    HW154561   3.116   1.166   9.001  0.8991  0.3547  1.0262
17223SOL    HW254562   3.138   1.021   8.965  1.0372  0.3736  1.0345
17224SOL     OW54563   4.463   5.063   8.993  0.5210 -0.5027 -0.2574
17224SOL    HW154564   4.389   5.002   8.991 -0.0279  0.1603 -0.9440
17224SOL    HW254565   4.472   5.087   9.085  0.2132 -0.9805 -0.0964
17225SOL     OW54566   9.288   4.223   2.293 -0.7329  0.3172  0.2954
17225SOL    HW154567   9.347   4.283   2.339  1.0130 -1.0270 -0.0697
17225SOL    HW254568   9.201   4.263   2.301  0.2350  2.4494  0.7341
17226SOL     OW54569   6.346   0.701   4.467 -0.0919 -0.2453 -0.1318
17226SOL    HW154570   6.298   0.644   4.528 -0.6063  1.3257  1.0058
17226SOL    HW254571   6.434   0.707   4.504  0.2294 -0.9623 -0.7400
17227SOL     OW54572   6.800   3.248   9.641 -0.6885 -0.8852  0.4245
17227SOL    HW154573   6.828   3.200   9.720 -0.8306  0.8677  1.5900
17227SOL    HW254574   6.705   3.239   9.641 -1.1276  2.1974  2.6704
17228SOL     OW54575   1.278   5.144   2.651 -0.6585  0.6501 -0.1816
17228SOL    HW154576   1.350   5.086   2.676 -0.9655  0.4101  0.1606
17228SOL    HW254577   1.243   5.175   2.735 -2.1136 -0.6709 -0.2559
17229SOL     OW54578   5.877   4.001   9.548  0.3284  0.2383  0.3291
17229SOL    HW154579   5.909   3.921   9.507 -0.8059 -0.7651  1.3477
17229SOL    HW254580   5.782   3.997   9.537  0.1749  0.9269  1.3172
17230SOL     OW54581   5.287   3.441   5.408 -0.3645  0.2468  0.1374
17230SOL    HW154582   5.250   3.411   5.325  0.2508  0.6378 -0.2818
17230SOL    HW254583   5.379   3.417   5.403  0.0285  1.7532  0.0110
17231SOL     OW54584   3.458   0.503   1.759 -0.3227 -0.5417  0.2517
17231SOL    HW154585   3.444   0.452   1.839 -1.0667  0.3864  0.7409
17231SOL    HW254586   3.372   0.543   1.741  0.6358  1.9882  0.9211
17232SOL     OW54587   1.924   0.592   2.290  0.5828  0.0052  0.4146
17232SOL    HW154588   1.989   0.546   2.238 -1.0588 -1.2736 -0.5870
17232SOL    HW254589   1.928   0.550   2.376  2.1832  1.0578  0.9124
17233SOL     OW54590   6.760   6.257   6.570  0.3806  0.3417  0.0389
17233SOL    HW154591   6.804   6.259   6.655 -1.2541 -0.7194  0.9688
17233SOL    HW254592   6.678   6.305   6.585 -0.7643 -1.4012 -0.3909
17234SOL     OW54593   1.895   9.005   4.568 -0.0460  0.0102 -0.2055
17234SOL    HW154594   1.931   9.042   4.648  0.7245 -0.2898 -0.4054
17234SOL    HW254595   1.889   8.911   4.586  1.6141 -0.2912 -1.0248
17235SOL     OW54596   3.747   2.838   8.696  0.3756 -0.0605 -0.2148
17235SOL    HW154597   3.792   2.796   8.622  3.6342 -1.4032  2.2617
17235SOL    HW254598   3.701   2.765   8.740 -0.6986  0.5380 -0.3100
17236SOL     OW54599   4.896   5.339   6.581 -0.1239 -0.5287 -0.3955
17236SOL    HW154600   4.970   5.283   6.605  0.2572 -0.1719 -0.7178
17236SOL    HW254601   4.916   5.423   6.624 -1.7923 -1.2330  1.9832
17237SOL     OW54602   9.314   4.450   7.547  0.8823  0.1433 -0.0051
17237SOL    HW154603   9.242   4.509   7.567  0.6894  0.0203 -0.3216
17237SOL    HW254604   9.380   4.468   7.614  1.4496  1.7497 -0.9289
17238SOL     OW54605   8.127   3.130   3.735 -0.0103 -0.1544 -0.6391
17238SOL    HW154606   8.139   3.223   3.755  0.9540 -0.1464 -1.1932
17238SOL    HW254607   8.038   3.110   3.763 -0.5456  1.1586 -1.3681
17239SOL     OW54608   6.284   6.285   8.232 -0.1508  0.2221  0.7891
17239SOL    HW154609   6.377   6.261   8.232 -0.6254 -1.8519  2.1404
17239SOL    HW254610   6.251   6.251   8.149 -0.1259 -0.9612  1.2497
17240SOL     OW54611   5.256   9.604   9.090  0.1804  0.6256  0.3070
17240SOL    HW154612   5.207   9.565   9.162 -0.9371  3.1971  1.0455
17240SOL    HW254613   5.324   9.655   9.133  0.4055  1.0484 -0.5306
17241SOL     OW54614   3.611   8.149   0.320 -0.1047 -0.2586  0.2544
17241SOL    HW154615   3.693   8.175   0.362  1.1449 -0.9020 -1.6550
17241SOL    HW254616   3.630   8.154   0.226 -2.4572  0.1725 -0.2505
17242SOL     OW54617   3.118   5.952   4.339  0.0984  0.3659  0.1050
17242SOL    HW154618   3.121   5.957   4.243  0.3020  0.4358  0.1126
17242SOL    HW254619   3.027   5.971   4.361 -0.7450 -2.6742 -0.2347
17243SOL     OW54620   1.857   7.851   6.261 -0.8192  0.3429  0.7972
17243SOL    HW154621   1.918   7.884   6.195  0.8798  0.2040  2.1940
17243SOL    HW254622   1.781   7.820   6.212  1.0733 -1.3797 -1.2501
17244SOL     OW54623   9.565   9.170   7.687 -0.5227 -0.0309 -0.6741
17244SOL    HW154624   9.568   9.144   7.779 -0.0155  2.2777  0.0321
17244SOL    HW254625   9.655   9.197   7.667 -0.7153 -0.1418 -1.7470
17245SOL     OW54626   3.435   4.790   6.509  0.0645  0.7105  0.5642
17245SOL    HW154627   3.373   4.843   6.459  1.9819  1.5221 -1.0957
17245SOL    HW254628   3.402   4.793   6.599 -1.8139  1.7832 -0.1000
17246SOL     OW54629   8.160   5.934   0.531  0.1307 -0.0204  0.0555
17246SOL    HW154630   8.112   5.851   0.526  0.5214 -0.2040 -0.8274
17246SOL    HW254631   8.215   5.934   0.453  1.1292  0.4615  0.7427
17247SOL     OW54632   6.450   0.787   0.767 -0.0576  0.2748  0.0259
17247SOL    HW154633   6.471   0.785   0.674 -1.5223 -0.3232 -0.3192
17247SOL    HW254634   6.464   0.878   0.793  1.9647  0.1188 -0.3635
17248SOL     OW54635   0.550   2.683   7.981  0.7748  0.2950  0.3350
17248SOL    HW154636   0.564   2.727   7.897  0.7616 -1.0937 -0.4136
17248SOL    HW254637   0.458   2.658   7.980  0.9418 -0.3324  0.4593
17249SOL     OW54638   4.394   4.201   8.841 -0.0407 -0.3015  0.4629
17249SOL    HW154639   4.420   4.280   8.794 -1.8170  0.2238  0.2752
17249SOL    HW254640   4.331   4.232   8.907  1.5298 -1.1791  2.4690
17250SOL     OW54641   3.666   3.305   8.014 -0.4458 -0.3849 -0.1093
17250SOL    HW154642   3.580   3.336   8.044 -0.4042 -1.0328  0.7129
17250SOL    HW254643   3.686   3.361   7.939 -0.0872  2.0812  1.6697
17251SOL     OW54644   5.253   5.493   5.844 -0.3366  0.0376  0.3429
17251SOL    HW154645   5.231   5.475   5.936 -0.8761  2.6064  0.8029
17251SOL    HW254646   5.278   5.586   5.844  0.4977 -0.1403 -1.9811
17252SOL     OW54647   6.113   8.831   9.143 -0.5318 -0.1987 -0.2113
17252SOL    HW154648   6.075   8.840   9.230  1.2890  1.1276  0.5082
17252SOL    HW254649   6.049   8.778   9.094 -0.8975 -2.3447  2.3434
17253SOL     OW54650   8.306   6.327   1.471 -0.2748  0.3219  0.3421
17253SOL    HW154651   8.234   6.361   1.417 -1.1304 -0.0290  1.2396
17253SOL    HW254652   8.270   6.323   1.559  0.9187  0.3077  0.8414
17254SOL     OW54653   9.379   9.157   8.999 -0.1683  0.1254  0.2392
17254SOL    HW154654   9.388   9.158   8.904  1.7034 -0.5419  0.3661
17254SOL    HW254655   9.297   9.203   9.016  0.2716  1.7331 -1.6146
17255SOL     OW54656   2.642   3.401   1.847  0.4119  0.1707  0.0424
17255SOL    HW154657   2.682   3.328   1.894  0.1352 -1.1867 -1.7551
17255SOL    HW254658   2.695   3.411   1.768  1.6130  3.2113  1.0671
17256SOL     OW54659   2.795   5.139   4.010  0.0917 -0.4064 -0.6718
17256SOL    HW154660   2.844   5.208   3.966  1.0380 -0.6381 -0.0013
17256SOL    HW254661   2.820   5.147   4.102 -0.3335 -1.2026 -0.4803
17257SOL     OW54662   0.855   5.344   0.427 -0.3834 -0.0530 -0.3344
17257SOL    HW154663   0.835   5.344   0.521  2.0863 -1.0929  0.2739
17257SOL    HW254664   0.928   5.406   0.419 -0.5306 -0.0236 -1.5614
17258SOL     OW54665   8.459   7.362   7.598  0.1257 -0.4984  0.4625
17258SOL    HW154666   8.530   7.420   7.572  0.1547 -0.8821 -0.3432
17258SOL    HW254667   8.456   7.369   7.693  0.2740  0.6352  0.3919
17259SOL     OW54668   7.872   5.905   0.207  0.0042 -0.3056 -0.4373
17259SOL    HW154669   7.794   5.925   0.156 -0.0086  2.0431  0.3567
17259SOL    HW254670   7.843   5.838   0.270 -1.3382  0.3680 -0.2921
17260SOL     OW54671   9.348   3.158   1.697  0.5933  0.0401  0.0241
17260SOL    HW154672   9.337   3.071   1.734 -1.2740 -0.1130 -0.7839
17260SOL    HW254673   9.260   3.195   1.694  1.2884  1.8115 -0.0342
17261SOL     OW54674   4.375   0.083   1.827  0.2962  0.2121 -0.2467
17261SOL    HW154675   4.327   0.007   1.795  3.9891 -1.7627 -1.6166
17261SOL    HW254676   4.403   0.059   1.915 -1.0933  1.3592  0.5537
17262SOL     OW54677   3.539   6.800   5.946  0.2849  0.3478 -0.5218
17262SOL    HW154678   3.601   6.743   5.992  0.7466  0.1181 -1.4215
17262SOL    HW254679   3.551   6.780   5.854 -0.2580  1.1964 -0.7869
17263SOL     OW54680   5.680   6.290   1.041 -0.2076 -0.4282  1.0247
17263SOL    HW154681   5.586   6.289   1.056 -0.5304  0.2997 -0.7081
17263SOL    HW254682   5.689   6.289   0.946  1.5610 -1.2890  1.1583
17264SOL     OW54683   0.360   4.489   6.910  0.1640  0.1343  0.0582
17264SOL    HW154684   0.367   4.582   6.932  0.9666 -0.0197  0.4786
17264SOL    HW254685   0.270   4.479   6.880  0.4005  1.2955 -1.1664
17265SOL     OW54686   7.517   6.018   1.491 -0.2498  0.1906  0.1319
17265SOL    HW154687   7.570   6.015   1.571 -1.4724 -2.7153  0.9702
17265SOL    HW254688   7.462   6.095   1.501  0.9189  0.9327  1.1754
17266SOL     OW54689   0.541   8.228   5.712 -0.1403 -0.1201 -0.1949
17266SOL    HW154690   0.512   8.282   5.786  0.1198  0.7965 -0.7465
17266SOL    HW254691   0.530   8.285   5.636  0.0118 -0.9063 -0.8059
17267SOL     OW54692   2.234   5.583   6.530  0.1343  0.0525  0.2475
17267SOL    HW154693   2.280   5.667   6.535 -0.2111  0.3833 -1.4674
17267SOL    HW254694   2.160   5.592   6.590  1.6111 -0.0889  2.2159
17268SOL     OW54695   6.516   8.576   9.251 -0.0597  1.5290 -0.3145
17268SOL    HW154696   6.457   8.651   9.258 -1.1932  0.4762  2.5574
17268SOL    HW254697   6.462   8.500   9.271  1.3768  0.0504 -1.7550
17269SOL     OW54698   2.807   0.790   8.203 -0.0158  0.6065 -0.3529
17269SOL    HW154699   2.857   0.710   8.222 -0.3656  0.8375  1.7805
17269SOL    HW254700   2.716   0.764   8.215 -0.0982  1.4721  1.2304
17270SOL     OW54701   9.034   3.696   0.949  0.0390 -0.5718 -0.6212
17270SOL    HW154702   9.028   3.776   1.000  1.0251  1.1048 -2.9386
17270SOL    HW254703   8.987   3.716   0.868  1.3494 -1.8873 -1.7734
17271SOL     OW54704   2.567   5.592   4.157  0.3321 -0.2296  0.3828
17271SOL    HW154705   2.522   5.663   4.111  1.8648 -0.2629 -1.2713
17271SOL    HW254706   2.594   5.632   4.240 -0.6771  0.4578  0.4071
17272SOL     OW54707   5.221   8.003   1.347  0.1722  0.2921 -0.1103
17272SOL    HW154708   5.169   7.943   1.294 -0.7495  0.3000  0.7646
17272SOL    HW254709   5.165   8.024   1.422  0.8793  1.4303  0.1238
17273SOL     OW54710   5.716   6.275   2.194 -0.0253 -0.0081  0.5008
17273SOL    HW154711   5.710   6.369   2.181 -0.2937  0.1257  1.4994
17273SOL    HW254712   5.625   6.244   2.191  0.0543 -0.2254  0.2684
17274SOL     OW54713   6.120   7.767   1.285 -0.3016 -0.2314  0.2784
17274SOL    HW154714   6.175   7.737   1.212 -1.6262  0.2409 -0.9825
17274SOL    HW254715   6.087   7.852   1.256 -0.3411  0.2810  1.7481
17275SOL     OW54716   9.388   7.971   5.223  0.4357 -0.0383 -0.6426
17275SOL    HW154717   9.436   8.051   5.202  0.9525  0.2822  1.5255
17275SOL    HW254718   9.435   7.902   5.176  4.0730  0.0268  2.4765
17276SOL     OW54719   7.665   9.109   2.776  0.1205 -0.1840  0.8114
17276SOL    HW154720   7.711   9.028   2.753 -0.6934 -0.6975  0.9252
17276SOL    HW254721   7.668   9.162   2.696 -0.5736 -0.9306  0.2718
17277SOL     OW54722   5.689   5.078   6.119 -0.3516  0.1466 -0.1284
17277SOL    HW154723   5.667   4.985   6.113  0.8791 -0.2342  0.6710
17277SOL    HW254724   5.614   5.118   6.162 -0.6232 -0.5993  0.1080
17278SOL     OW54725   7.241   1.349   4.166 -0.4964 -0.2184  0.2636
17278SOL    HW154726   7.236   1.257   4.192  0.8085 -0.4682 -0.2467
17278SOL    HW254727   7.328   1.377   4.195 -0.2860  0.4037 -0.9022
17279SOL     OW54728   3.708   1.484   7.787 -0.1474  0.1875 -0.2460
17279SOL    HW154729   3.619   1.450   7.796 -0.6678  1.5930  0.1478
17279SOL    HW254730   3.763   1.417   7.827 -1.1957  0.0974  1.1071
17280SOL     OW54731   5.304   3.185   6.405 -0.7041 -0.0940  0.1774
17280SOL    HW154732   5.279   3.129   6.332  1.2926  0.2749 -0.8386
17280SOL    HW254733   5.366   3.133   6.456 -0.3636  0.4603  0.3404
17281SOL     OW54734   0.260   1.886   9.615 -0.5244 -0.5146 -0.8338
17281SOL    HW154735   0.190   1.946   9.639  1.1332  0.9331  0.6919
17281SOL    HW254736   0.257   1.817   9.682  0.6400  0.5693  0.3860
17282SOL     OW54737   5.322   8.600   5.237  0.5735  0.1913 -0.3877
17282SOL    HW154738   5.364   8.560   5.161  0.1163 -1.7113  0.2816
17282SOL    HW254739   5.393   8.642   5.285  1.1137  0.0628 -1.0582
17283SOL     OW54740   7.860   7.546   0.666 -0.4118  0.2739 -0.3709
17283SOL    HW154741   7.895   7.464   0.633 -1.2057 -0.7524  1.2429
17283SOL    HW254742   7.871   7.541   0.761  0.6077  2.5607 -0.2759
17284SOL     OW54743   6.627   6.446   4.603 -0.7448 -0.0365 -0.3566
17284SOL    HW154744   6.589   6.430   4.689 -0.7226  0.0819 -0.3255
17284SOL    HW254745   6.557   6.427   4.541 -0.6544 -0.4773 -0.3296
17285SOL     OW54746   4.351   3.233   3.628  0.2409  0.3181  0.4696
17285SOL    HW154747   4.331   3.162   3.689 -0.7417 -1.0917 -1.4076
17285SOL    HW254748   4.435   3.208   3.589 -0.2749 -0.0319 -0.4495
17286SOL     OW54749   2.157   5.003   0.072 -0.7207 -0.3109 -0.0080
17286SOL    HW154750   2.245   5.036   0.087 -0.8940 -0.5551  1.8894
17286SOL    HW254751   2.155   4.977  -0.020  2.3227 -3.6224  0.6680
17287SOL     OW54752   1.426   8.035   0.334 -0.8388 -0.1053 -0.0299
17287SOL    HW154753   1.503   7.985   0.359 -0.9119 -1.1525 -1.7186
17287SOL    HW254754   1.449   8.127   0.351  0.6541 -0.4298 -0.2177
17288SOL     OW54755   4.266   0.152   2.669  0.3859  0.5238  0.6647
17288SOL    HW154756   4.268   0.246   2.654  0.8194  0.3565 -0.4459
17288SOL    HW254757   4.342   0.135   2.724  0.8917  0.7010  0.0329
17289SOL     OW54758   5.113   2.471   0.206  0.2822 -0.1146 -0.2091
17289SOL    HW154759   5.020   2.466   0.230  0.5224 -1.3034  0.5464
17289SOL    HW254760   5.112   2.501   0.115 -0.9313 -1.7735 -0.8003
17290SOL     OW54761   1.928   5.870   2.865 -0.5471 -0.0347  0.3002
17290SOL    HW154762   1.909   5.928   2.940  2.2495  0.8097  0.4833
17290SOL    HW254763   1.977   5.797   2.904 -1.1752 -0.8471 -0.4078
17291SOL     OW54764   4.242   3.609   1.578  0.3754  0.5157 -0.0988
17291SOL    HW154765   4.207   3.655   1.655  0.7059 -1.5625  1.4080
17291SOL    HW254766   4.282   3.530   1.615  0.4427 -0.6195 -2.4466
17292SOL     OW54767   1.584   8.961   7.477  0.6057 -0.3381  0.0326
17292SOL    HW154768   1.646   8.908   7.428  0.3114  0.5264 -1.3290
17292SOL    HW254769   1.501   8.950   7.430  0.8767  2.5985 -1.3811
17293SOL     OW54770   5.727   1.268   3.771 -0.1832 -0.1416 -0.5525
17293SOL    HW154771   5.699   1.359   3.757 -4.9277 -1.3085 -0.2713
17293SOL    HW254772   5.772   1.269   3.855  0.7061  2.0253 -0.9836
17294SOL     OW54773   4.259   1.847   5.059 -0.0082  0.4353  0.3128
17294SOL    HW154774   4.199   1.814   5.126  0.6268  1.1673  1.2609
17294SOL    HW254775   4.344   1.809   5.081  0.0461  0.0322 -0.5630
17295SOL     OW54776   4.463   7.767   8.996  0.5086 -0.6902 -0.3670
17295SOL    HW154777   4.417   7.733   8.919 -0.6865 -1.1387  0.5089
17295SOL    HW254778   4.497   7.852   8.969 -0.5639 -0.4976 -1.1509
17296SOL     OW54779   8.126   6.811   5.221 -0.2192  0.1044 -0.6211
17296SOL    HW154780   8.172   6.734   5.254 -1.7620 -0.3138  0.6944
17296SOL    HW254781   8.195   6.876   5.207  0.8887 -0.8613  0.1833
17297SOL     OW54782   9.177   7.993   5.035 -0.3745  0.0930 -0.0586
17297SOL    HW154783   9.246   8.003   5.100 -0.8148  1.6114  0.2240
17297SOL    HW254784   9.222   7.993   4.951 -0.0068  1.3336  0.1086
17298SOL     OW54785   8.211   5.571   2.990  0.3199  0.5802  0.1037
17298SOL    HW154786   8.240   5.488   3.028 -0.2841  0.2967 -0.0447
17298SOL    HW254787   8.282   5.632   3.010 -0.6288  0.8877  3.1688
17299SOL     OW54788   3.431   0.589   8.317 -0.0972 -0.0210  0.0261
17299SOL    HW154789   3.377   0.664   8.294  0.2310  1.1427  2.7115
17299SOL    HW254790   3.509   0.626   8.358  0.1444 -1.8057  1.3220
17300SOL     OW54791   2.629   7.809   2.899  0.5431  0.3388 -0.1284
17300SOL    HW154792   2.604   7.871   2.831  1.1168 -0.0517 -0.7093
17300SOL    HW254793   2.605   7.723   2.862  1.5760  0.0611 -0.1732
17301SOL     OW54794   5.560   0.902   3.731  0.4959 -0.2714  0.6712
17301SOL    HW154795   5.590   0.914   3.821 -1.2811  1.2715  1.1216
17301SOL    HW254796   5.494   0.970   3.718  0.3581 -0.7493 -1.6616
17302SOL     OW54797   3.107   4.565   4.333  0.1409  0.2045  0.5907
17302SOL    HW154798   3.086   4.603   4.418  0.1633  0.5231  0.4527
17302SOL    HW254799   3.203   4.570   4.327  0.4731 -2.4713  1.8081
17303SOL     OW54800   1.665   6.301   3.236  0.0057 -0.1076  0.6903
17303SOL    HW154801   1.726   6.311   3.309  0.5489  0.7303  0.1364
17303SOL    HW254802   1.607   6.377   3.244 -1.9694 -1.6568  2.1076
17304SOL     OW54803   0.024   3.140   6.797  0.1354 -0.4863 -0.1034
17304SOL    HW154804   0.074   3.119   6.718  0.1915 -1.4159  0.1677
17304SOL    HW254805   0.016   3.235   6.796  0.4114 -0.4653 -1.0611
17305SOL     OW54806   1.747   0.137   9.411 -0.3383  0.0929 -0.0798
17305SOL    HW154807   1.713   0.061   9.364  0.2476 -0.5756  0.5570
17305SOL    HW254808   1.821   0.103   9.461  1.6753  1.5927 -1.8665
17306SOL     OW54809   2.316   8.306   4.205 -0.2022 -0.1425 -0.2443
17306SOL    HW154810   2.346   8.230   4.257 -0.3055  0.4331  0.6823
17306SOL    HW254811   2.378   8.375   4.226 -0.0752  0.0226 -1.1361
17307SOL     OW54812   6.587   1.954   6.739 -0.3708 -0.5527 -0.5246
17307SOL    HW154813   6.515   2.018   6.738 -1.3243 -1.5840 -1.1821
17307SOL    HW254814   6.551   1.877   6.694  1.0414 -1.2335 -0.5516
17308SOL     OW54815   1.392   5.035   6.766 -0.1807 -0.0277 -0.0270
17308SOL    HW154816   1.356   4.958   6.721  2.4600 -0.7165 -1.1541
17308SOL    HW254817   1.486   5.031   6.749  0.3497  2.2264  1.8310
17309SOL     OW54818   4.986   4.915   8.462 -0.2346 -0.0926 -0.2111
17309SOL    HW154819   4.987   4.908   8.367  0.6117 -0.6918 -0.1688
17309SOL    HW254820   5.042   4.991   8.481 -0.2065 -0.1199 -0.1840
17310SOL     OW54821   3.163   2.186   8.144  0.0111 -0.4073 -0.3906
17310SOL    HW154822   3.232   2.224   8.090 -0.0586 -0.6477 -0.6529
17310SOL    HW254823   3.178   2.223   8.231  0.9199 -1.0145 -0.2670
17311SOL     OW54824   7.728   8.012   5.020 -0.0143 -0.0342  0.2647
17311SOL    HW154825   7.802   7.963   4.986 -0.1657 -0.2277  0.2076
17311SOL    HW254826   7.655   7.989   4.961 -0.3065 -0.4591  0.7804
17312SOL     OW54827   0.610   7.733   0.311  0.9642 -0.4194  0.1918
17312SOL    HW154828   0.685   7.780   0.276  1.8542 -1.6299  0.4034
17312SOL    HW254829   0.607   7.758   0.403  0.9652 -0.1903  0.1303
17313SOL     OW54830   8.157   4.103   4.896  0.1805 -0.4679  0.3303
17313SOL    HW154831   8.113   4.040   4.953  0.2417 -1.3010 -0.5152
17313SOL    HW254832   8.212   4.049   4.839  1.4561  0.4673  0.6258
17314SOL     OW54833   9.408   2.880   5.983  0.3207  0.6911 -0.0045
17314SOL    HW154834   9.375   2.902   5.896 -1.1707  2.5137  0.9250
17314SOL    HW254835   9.502   2.897   5.979  0.7162 -1.3635 -1.7994
17315SOL     OW54836   5.580   5.231   2.961 -0.4520 -0.4528  0.3735
17315SOL    HW154837   5.531   5.272   3.032  0.7270  1.5573  0.0851
17315SOL    HW254838   5.663   5.205   3.000  0.0270  0.2617 -0.1367
17316SOL     OW54839   3.825   0.291   6.011 -0.9422 -0.5832 -0.2285
17316SOL    HW154840   3.848   0.203   6.043  0.2822 -0.0954  0.3026
17316SOL    HW254841   3.865   0.350   6.075 -0.8054  0.3821 -1.1896
17317SOL     OW54842   4.797   4.948   5.780  0.7984 -0.1544 -0.1082
17317SOL    HW154843   4.796   4.853   5.790 -0.1505 -0.2141 -0.5966
17317SOL    HW254844   4.793   4.981   5.870  1.2055 -0.5775  0.0656
17318SOL     OW54845   6.001   1.148   4.984  0.0902 -0.0109 -0.4323
17318SOL    HW154846   6.027   1.070   4.934 -0.3702  0.9031 -2.1854
17318SOL    HW254847   5.906   1.143   4.987  0.1366 -0.3262  0.8537
17319SOL     OW54848   1.364   7.066   8.525 -0.3036  0.9343 -0.0444
17319SOL    HW154849   1.338   6.981   8.561  2.3371  0.1161  0.1525
17319SOL    HW254850   1.337   7.063   8.433 -2.0817  0.7818  0.4369
17320SOL     OW54851   6.025   4.060   8.133  0.4777  1.0310 -0.1848
17320SOL    HW154852   5.985   3.977   8.105  1.7137  0.9646 -1.9660
17320SOL    HW254853   6.057   4.042   8.221 -0.2273 -0.0461 -0.1195
17321SOL     OW54854   0.562   3.972   3.694  0.4178 -0.1548 -0.0109
17321SOL    HW154855   0.559   3.878   3.712 -0.5692 -0.2976 -0.8287
17321SOL    HW254856   0.491   3.987   3.630  2.0157  0.7509 -1.6713
17322SOL     OW54857   3.373   8.266   4.571 -0.1536 -0.1313 -0.1642
17322SOL    HW154858   3.371   8.360   4.591 -0.4338 -0.3308  0.7857
17322SOL    HW254859   3.440   8.258   4.504 -1.0780  0.9337 -1.2905
17323SOL     OW54860   7.797   2.654   2.960  0.0542 -0.0520  0.0015
17323SOL    HW154861   7.711   2.686   2.935 -0.7385 -2.3750 -0.4864
17323SOL    HW254862   7.840   2.729   3.002 -1.8479  1.4026 -0.5332
17324SOL     OW54863   8.082   5.947   1.071  0.0947 -0.0224 -0.0083
17324SOL    HW154864   8.089   6.032   1.028  2.9550  0.1700  0.6676
17324SOL    HW254865   8.115   5.884   1.007  1.2354 -0.1556  0.6826
17325SOL     OW54866   5.239   1.009   4.401  0.2893 -0.4715 -0.0827
17325SOL    HW154867   5.304   0.939   4.391  1.7952  0.8792 -0.1325
17325SOL    HW254868   5.228   1.018   4.496  1.9360  0.7822  0.0448
17326SOL     OW54869   1.349   2.349   7.110 -0.1280 -0.1438  0.2787
17326SOL    HW154870   1.319   2.328   7.022  1.5268 -1.8923  0.0575
17326SOL    HW254871   1.445   2.349   7.103  0.0247  0.2297  1.9481
17327SOL     OW54872   4.090   0.958   1.587 -0.9847 -1.0580 -0.8552
17327SOL    HW154873   4.107   0.952   1.493  0.4213 -2.1121 -0.5708
17327SOL    HW254874   4.115   1.047   1.610 -2.2359 -0.4727 -1.6075
17328SOL     OW54875   1.071   0.296   7.977  0.1831  0.0741 -0.3094
17328SOL    HW154876   1.056   0.348   8.055  1.8657 -1.7940  1.3827
17328SOL    HW254877   1.005   0.227   7.980  0.3699 -0.1122 -0.4228
17329SOL     OW54878   9.026   7.337   6.484  0.6666  0.1880  0.2367
17329SOL    HW154879   8.969   7.399   6.530  3.1661  2.3805  0.6726
17329SOL    HW254880   9.069   7.390   6.417  1.6893 -1.5017 -0.5022
17330SOL     OW54881   7.654   7.109   0.078  0.1344 -0.2308  0.7180
17330SOL    HW154882   7.612   7.080   0.160  0.6594  0.9418  1.4211
17330SOL    HW254883   7.601   7.184   0.050 -1.1924 -1.7559 -1.0652
17331SOL     OW54884   0.386   0.286   3.708 -0.2811 -0.2584 -0.1721
17331SOL    HW154885   0.429   0.206   3.678  0.8299 -0.6815  2.2748
17331SOL    HW254886   0.331   0.257   3.781 -1.1848  0.9784 -0.3365
17332SOL     OW54887   5.097   3.841   2.926  0.3851  0.3318  0.1453
17332SOL    HW154888   5.097   3.834   3.021  0.7052  1.1867  0.2238
17332SOL    HW254889   5.092   3.935   2.909  1.5561  0.2737 -0.6599
17333SOL     OW54890   0.817   7.313   4.339  0.2417  0.0026 -0.1668
17333SOL    HW154891   0.850   7.388   4.389 -0.1030  0.6265 -0.8467
17333SOL    HW254892   0.722   7.323   4.340  0.2444  0.3781 -1.4377
17334SOL     OW54893   5.046   4.851   0.317 -0.1265 -0.6335  0.7038
17334SOL    HW154894   5.041   4.944   0.295  0.4215 -0.8443 -0.3495
17334SOL    HW254895   5.095   4.811   0.245 -1.0161 -1.8707  0.7556
17335SOL     OW54896   8.063   9.178   3.939 -0.0121  0.2104  0.2734
17335SOL    HW154897   8.074   9.267   3.905  2.1852  0.1419  0.6949
17335SOL    HW254898   7.984   9.146   3.895  0.8876  1.2521 -2.2988
17336SOL     OW54899   4.203   6.262   7.144 -0.5113 -0.7579  0.3453
17336SOL    HW154900   4.239   6.209   7.215  2.3218 -0.1029 -0.4655
17336SOL    HW254901   4.201   6.351   7.180 -0.4441 -0.6459  0.0721
17337SOL     OW54902   0.835   5.674   2.259  0.0269  0.0377 -0.2296
17337SOL    HW154903   0.804   5.661   2.170 -0.4864 -0.5969  0.0321
17337SOL    HW254904   0.916   5.624   2.265  0.1915  0.2804 -0.4075
17338SOL     OW54905   7.125   0.911   2.144  0.1063  0.0465  0.0932
17338SOL    HW154906   7.082   0.979   2.091  1.1921  0.4903 -0.2528
17338SOL    HW254907   7.166   0.853   2.079 -0.7181 -0.8891  0.3927
17339SOL     OW54908   7.873   2.793   0.695  0.3042 -0.3130 -0.0753
17339SOL    HW154909   7.823   2.712   0.683  1.7711 -1.3568  0.6099
17339SOL    HW254910   7.961   2.771   0.666  0.8646  0.8890  0.6630
17340SOL     OW54911   9.318   8.377   0.210 -0.3335  0.3264  0.2018
17340SOL    HW154912   9.312   8.294   0.163 -0.9670  0.8868 -0.7546
17340SOL    HW254913   9.307   8.444   0.142  1.9502  1.2527  0.6636
17341SOL     OW54914   8.526   8.847   1.087 -0.0207  0.4810 -0.1110
17341SOL    HW154915   8.471   8.877   1.015 -3.2735 -2.0308  1.0734
17341SOL    HW254916   8.610   8.826   1.047 -1.4080  0.0287 -2.9923
17342SOL     OW54917   7.702   5.821   4.415 -0.3997  0.2821 -0.1508
17342SOL    HW154918   7.741   5.781   4.493  1.3948  0.9780 -0.6301
17342SOL    HW254919   7.707   5.915   4.432  0.8764  0.4732 -1.4663
17343SOL     OW54920   8.762   4.763   9.285  0.0248 -0.0775  0.2628
17343SOL    HW154921   8.801   4.796   9.366 -2.0346  1.4231  0.7240
17343SOL    HW254922   8.702   4.694   9.314 -0.7170  0.4631  0.0607
17344SOL     OW54923   3.732   7.002   6.516  0.4347  0.0807  0.6513
17344SOL    HW154924   3.697   6.930   6.568  1.1049 -0.1167  0.8284
17344SOL    HW254925   3.709   6.980   6.426 -0.9329  0.5343  0.8535
17345SOL     OW54926   2.758   2.854   2.550 -0.0037  0.6967 -0.5330
17345SOL    HW154927   2.696   2.926   2.539 -1.0420 -0.1643 -0.5394
17345SOL    HW254928   2.823   2.888   2.611 -0.6640  1.5318 -0.2617
17346SOL     OW54929   2.286   9.180   3.947  0.0400  0.2960 -0.3433
17346SOL    HW154930   2.237   9.131   3.881  1.1817 -1.9471  0.3874
17346SOL    HW254931   2.339   9.241   3.896  0.7093 -1.2167 -1.5395
17347SOL     OW54932   5.243   8.792   7.882  0.0953 -0.1168  0.0350
17347SOL    HW154933   5.313   8.733   7.910  0.5550  0.9310  1.1771
17347SOL    HW254934   5.168   8.767   7.937 -0.6125 -1.4964 -1.4481
17348SOL     OW54935   3.698   1.260   2.189 -0.4555  0.0073 -0.0350
17348SOL    HW154936   3.656   1.179   2.161 -3.6679  2.0698 -1.8122
17348SOL    HW254937   3.789   1.252   2.158 -0.2893 -3.2481  0.8669
17349SOL     OW54938   8.342   1.188   5.763  0.5158  0.3820 -0.4708
17349SOL    HW154939   8.303   1.189   5.675  1.7388 -2.0249 -1.1230
17349SOL    HW254940   8.422   1.240   5.754  0.6780  0.0779 -0.8172
17350SOL     OW54941   3.726   2.602   1.666  0.0230  0.0028  0.2482
17350SOL    HW154942   3.682   2.685   1.682  0.4445  0.1942  0.4373
17350SOL    HW254943   3.768   2.581   1.750 -0.3426 -0.5536  0.2920
17351SOL     OW54944   0.852   0.949   2.299 -0.0217 -0.2462  0.1680
17351SOL    HW154945   0.920   0.890   2.331 -1.6350 -1.9386  0.7151
17351SOL    HW254946   0.780   0.890   2.273 -1.7579  1.4771  0.8221
17352SOL     OW54947   0.219   2.179   4.697  0.0000 -0.2658 -0.3605
17352SOL    HW154948   0.186   2.146   4.781 -0.0634  0.1319 -0.2249
17352SOL    HW254949   0.149   2.160   4.634  0.4892 -1.5251 -0.5410
17353SOL     OW54950   4.426   9.461   6.895  0.0993 -0.5423 -0.3880
17353SOL    HW154951   4.358   9.463   6.963 -0.1700 -0.3294 -0.6617
17353SOL    HW254952   4.460   9.551   6.894  0.9530 -0.8364  0.3107
17354SOL     OW54953   7.491   2.975   6.148  0.3167 -0.2544  0.0035
17354SOL    HW154954   7.575   2.964   6.104  0.2261  1.2056 -0.6047
17354SOL    HW254955   7.491   2.910   6.218  2.0217 -0.1504  0.1322
17355SOL     OW54956   7.994   1.184   7.692 -0.0236 -0.1179  0.1367
17355SOL    HW154957   8.047   1.119   7.645 -0.0239  0.3117 -0.4786
17355SOL    HW254958   8.046   1.207   7.769  0.6843  0.2747 -0.4438
17356SOL     OW54959   4.198   8.507   4.687 -0.0271  0.0432  0.0378
17356SOL    HW154960   4.259   8.443   4.653 -1.5272 -0.5013 -1.8234
17356SOL    HW254961   4.240   8.591   4.671  0.3554 -0.3241 -0.9905
17357SOL     OW54962   2.575   1.289   0.952 -0.0739  0.1499  0.1828
17357SOL    HW154963   2.503   1.240   0.914 -1.9035  0.6147  2.7607
17357SOL    HW254964   2.541   1.378   0.964  0.0200 -0.1136  3.4058
17358SOL     OW54965   9.463   9.207   7.287 -0.2249  0.0994  0.0787
17358SOL    HW154966   9.439   9.292   7.323 -1.6929 -0.0117 -0.5609
17358SOL    HW254967   9.530   9.226   7.222 -0.1120  0.6925  0.3612
17359SOL     OW54968   2.337   2.417   9.508  0.5614 -0.6055  0.0810
17359SOL    HW154969   2.412   2.454   9.554  1.5233  1.0766 -2.5896
17359SOL    HW254970   2.261   2.458   9.550  1.2902 -0.3049  1.1419
17360SOL     OW54971   9.120   1.262   6.739 -0.6218  0.5540  0.4963
17360SOL    HW154972   9.109   1.354   6.716 -1.5573  0.6388  1.2541
17360SOL    HW254973   9.200   1.260   6.791 -0.0063  0.7654 -0.4114
17361SOL     OW54974   1.028   8.787   4.404 -0.3057 -0.3679 -0.5806
17361SOL    HW154975   1.053   8.809   4.493 -0.9545 -1.9940  0.0423
17361SOL    HW254976   0.964   8.854   4.380 -2.2621 -1.4384  1.2580
17362SOL     OW54977   0.666   9.315   0.405 -0.2571  0.1984 -0.0623
17362SOL    HW154978   0.603   9.282   0.341 -1.1331  1.5109  0.0881
17362SOL    HW254979   0.632   9.286   0.490 -0.5011  0.6486 -0.0039
17363SOL     OW54980   3.846   3.069   1.271 -0.3252  0.2535  0.1744
17363SOL    HW154981   3.883   3.024   1.194 -0.5287 -0.4408  0.4688
17363SOL    HW254982   3.901   3.041   1.344 -1.0582 -0.3179  0.5205
17364SOL     OW54983   8.286   6.166   2.409  0.5821  0.2712 -0.4079
17364SOL    HW154984   8.282   6.251   2.452  2.2486 -0.3986  1.2176
17364SOL    HW254985   8.198   6.130   2.419  0.2371  1.2266  0.1213
17365SOL     OW54986   2.835   1.945   7.766 -0.2895 -0.1185 -0.5286
17365SOL    HW154987   2.825   2.019   7.826  3.6135  1.0417 -1.0323
17365SOL    HW254988   2.853   1.871   7.824 -1.5257 -0.1276 -0.1283
17366SOL     OW54989   3.458   2.854   3.701 -0.1195  0.1927  0.0534
17366SOL    HW154990   3.422   2.775   3.741 -1.7911 -0.0477 -1.7595
17366SOL    HW254991   3.532   2.823   3.649  0.7573  0.2226  1.2278
17367SOL     OW54992   5.893   2.193   6.560 -0.1941 -0.0839 -0.0444
17367SOL    HW154993   5.827   2.196   6.629  0.4712 -1.5371  0.6952
17367SOL    HW254994   5.963   2.138   6.595  0.8020  0.2868 -1.3388
17368SOL     OW54995   3.602   7.756   6.653  0.0056 -0.0716 -0.4310
17368SOL    HW154996   3.647   7.685   6.699  0.8152  0.1907 -0.7939
17368SOL    HW254997   3.512   7.725   6.643  0.1922 -0.7697 -0.0165
17369SOL     OW54998   5.314   1.163   9.218  0.0344 -0.4744  0.2108
17369SOL    HW154999   5.313   1.238   9.278  0.2133  0.1270 -0.5314
17369SOL    HW255000   5.406   1.151   9.196 -0.0374 -0.6576  0.0068
17370SOL     OW55001   5.942   8.599   1.710 -0.1300  0.2527  0.1010
17370SOL    HW155002   5.948   8.518   1.659  2.3384  0.9928 -0.9200
17370SOL    HW255003   5.917   8.666   1.646 -1.7701  0.4430  0.8658
17371SOL     OW55004   0.819   4.704   7.886  0.0316  0.1457 -0.7114
17371SOL    HW155005   0.902   4.747   7.907  0.7695 -1.0046 -1.1755
17371SOL    HW255006   0.811   4.710   7.791  0.9895 -2.0954 -1.0126
17372SOL     OW55007   3.354   5.509   2.992 -0.8441  0.1361  0.3075
17372SOL    HW155008   3.262   5.490   3.006 -0.9564 -0.1723 -0.7464
17372SOL    HW255009   3.356   5.600   2.965 -0.9033 -0.0024 -0.1770
17373SOL     OW55010   0.013   4.436   9.302 -0.4243 -0.0281 -0.3569
17373SOL    HW155011  -0.067   4.395   9.268 -0.1973 -0.2766 -0.5973
17373SOL    HW255012   0.081   4.411   9.239 -0.2774  0.7128 -0.4930
17374SOL     OW55013   6.833   2.102   7.747 -0.4511 -0.2176  0.1774
17374SOL    HW155014   6.798   2.089   7.660 -0.7124  0.1364  0.2261
17374SOL    HW255015   6.925   2.079   7.740 -0.1869  0.9741 -0.4888
17375SOL     OW55016   8.927   4.040   7.864  0.0680  0.2293  0.0305
17375SOL    HW155017   9.013   4.065   7.895  0.2151 -0.6834  0.3902
17375SOL    HW255018   8.913   4.094   7.786  0.8951  0.4900  0.0536
17376SOL     OW55019   7.265   1.181   4.592 -0.1654 -0.9412  0.2827
17376SOL    HW155020   7.339   1.175   4.653  0.1727  0.2203 -0.0075
17376SOL    HW255021   7.270   1.100   4.542  1.2094 -0.6714 -0.0618
17377SOL     OW55022   7.200   4.935   7.620  0.8842 -0.7487 -0.4425
17377SOL    HW155023   7.108   4.930   7.594  0.7138  0.0713 -0.0560
17377SOL    HW255024   7.226   4.845   7.633 -0.2966 -0.9443  0.8590
17378SOL     OW55025   2.592   0.713   0.547 -0.4217  0.0583  0.3407
17378SOL    HW155026   2.582   0.686   0.639 -1.3730 -0.5058  0.0832
17378SOL    HW255027   2.520   0.773   0.531  0.2447  0.8319  0.1943
17379SOL     OW55028   0.011   6.808   0.654 -0.2562  0.2697  0.1076
17379SOL    HW155029   0.071   6.825   0.580 -0.1878  1.0510  0.3320
17379SOL    HW255030   0.065   6.821   0.732 -0.6252  0.6191  0.3087
17380SOL     OW55031   9.273   3.488   3.619  0.0654  0.0779  0.0527
17380SOL    HW155032   9.357   3.452   3.591  1.0236  1.4921  0.9615
17380SOL    HW255033   9.296   3.558   3.680 -1.8162 -0.1088  1.0575
17381SOL     OW55034   8.503   4.082   9.580  0.0069  0.3567 -0.8954
17381SOL    HW155035   8.434   4.149   9.576 -0.9725 -0.5918 -0.2440
17381SOL    HW255036   8.584   4.132   9.577 -0.7033  1.5866 -0.4240
17382SOL     OW55037   7.829   3.420   0.151  0.3026  0.4607  0.4022
17382SOL    HW155038   7.861   3.422   0.241 -2.2771  0.3742  1.4266
17382SOL    HW255039   7.762   3.489   0.149 -0.2947 -0.1259 -1.2020
17383SOL     OW55040   1.981   3.896   0.992  0.3907  0.0500  0.1859
17383SOL    HW155041   1.957   3.988   0.988 -0.1249 -0.0866 -0.0314
17383SOL    HW255042   1.986   3.868   0.901 -1.3023 -0.5801  0.2317
17384SOL     OW55043   8.002   1.185   1.877 -0.7923 -0.0900 -0.8711
17384SOL    HW155044   8.083   1.158   1.919 -0.8620 -0.0361 -0.7010
17384SOL    HW255045   8.003   1.281   1.883 -0.5160 -0.0410 -1.5237
17385SOL     OW55046   1.336   3.656   1.422  0.2676 -0.0993 -0.2285
17385SOL    HW155047   1.411   3.664   1.364 -0.2684  0.9549 -0.7966
17385SOL    HW255048   1.323   3.744   1.458 -0.1289 -0.4744  0.5906
17386SOL     OW55049   7.776   7.469   4.520  0.6243  0.2584 -0.0144
17386SOL    HW155050   7.853   7.452   4.466 -0.1602 -1.0339 -0.7888
17386SOL    HW255051   7.774   7.564   4.529  2.0306  0.3435 -0.3763
17387SOL     OW55052   9.223   6.089   2.596 -0.0236 -0.2927 -0.0231
17387SOL    HW155053   9.161   6.016   2.602 -0.1197 -0.3629 -1.5007
17387SOL    HW255054   9.189   6.144   2.526  0.6525  0.5865  0.3270
17388SOL     OW55055   3.048   3.476   9.405  0.3648  0.2821 -0.4325
17388SOL    HW155056   3.054   3.541   9.476 -1.2815 -0.6377  0.6249
17388SOL    HW255057   3.100   3.401   9.437 -1.3526 -0.6035  0.4182
17389SOL     OW55058   5.714   6.386   3.044 -0.0308 -0.5379  0.4332
17389SOL    HW155059   5.808   6.376   3.036  0.0226  0.9825 -3.3268
17389SOL    HW255060   5.702   6.478   3.067 -0.5070 -0.2492 -0.8324
17390SOL     OW55061   6.249   2.716   6.142 -0.3355  0.4661 -0.1815
17390SOL    HW155062   6.336   2.691   6.173  0.4610  2.1712 -0.9009
17390SOL    HW255063   6.262   2.803   6.103 -2.3867  0.7942 -0.2150
17391SOL     OW55064   7.859   1.428   3.773  0.1400  0.7021 -0.2533
17391SOL    HW155065   7.876   1.517   3.803 -1.3675  1.2975 -1.0968
17391SOL    HW255066   7.806   1.389   3.843  2.6058 -0.3377  1.1869
17392SOL     OW55067   9.329   5.755   1.653 -0.4979  0.4847 -0.6052
17392SOL    HW155068   9.371   5.818   1.595 -0.6078 -0.0510 -1.2919
17392SOL    HW255069   9.401   5.716   1.703 -0.5962  2.3497  1.0791
17393SOL     OW55070   2.626   6.652   2.787  0.0303  0.3964 -0.0758
17393SOL    HW155071   2.675   6.687   2.862  0.0267  1.2204 -0.4508
17393SOL    HW255072   2.559   6.718   2.770  2.1061  1.9485 -2.9374
17394SOL     OW55073   1.543   8.151   8.535  0.0138 -0.0016  0.5029
17394SOL    HW155074   1.459   8.169   8.578 -0.0639  0.9638 -0.0306
17394SOL    HW255075   1.531   8.066   8.495 -0.9545  0.4074 -0.1194
17395SOL     OW55076   5.903   2.238   7.476  0.3086 -0.1729  0.2564
17395SOL    HW155077   5.841   2.269   7.409 -0.0805 -0.0383  0.6705
17395SOL    HW255078   5.985   2.281   7.454  0.4794 -0.9998 -0.7976
17396SOL     OW55079   3.566   2.036   1.331  0.2449  0.2463 -0.4614
17396SOL    HW155080   3.491   2.034   1.391 -0.0355 -1.3118 -0.8372
17396SOL    HW255081   3.617   2.111   1.361 -1.2560  1.1273  0.0407
17397SOL     OW55082   6.237   7.084   0.824  0.0409 -0.1372  0.3619
17397SOL    HW155083   6.198   7.128   0.900 -1.2455 -1.7930  0.7273
17397SOL    HW255084   6.305   7.028   0.861  0.1837 -0.0872  0.1725
17398SOL     OW55085   3.956   7.296   9.529 -0.0746 -0.3256 -0.6907
17398SOL    HW155086   3.888   7.362   9.511  0.2851  0.1822 -0.2422
17398SOL    HW255087   3.944   7.276   9.622  1.2313  0.7738 -0.2535
17399SOL     OW55088   7.299   9.067   0.466 -0.2083  0.7910  0.1906
17399SOL    HW155089   7.317   9.160   0.451  0.6734  0.7741  1.0750
17399SOL    HW255090   7.336   9.049   0.552 -2.5875  0.2212  1.1720
17400SOL     OW55091   3.607   2.287   0.357  0.4450  1.0762  0.4608
17400SOL    HW155092   3.702   2.285   0.347  0.6423 -1.6313  1.9192
17400SOL    HW255093   3.593   2.301   0.451 -0.4256 -1.5653  0.8221
17401SOL     OW55094   1.359   6.530   7.046  0.5899 -0.3051  0.3578
17401SOL    HW155095   1.444   6.533   7.090  0.9183 -0.5379 -0.2591
17401SOL    HW255096   1.360   6.604   6.985  0.7853 -0.9445 -0.4288
17402SOL     OW55097   1.187   2.515   2.995 -0.5210  0.3053 -0.1728
17402SOL    HW155098   1.255   2.582   3.001 -2.7025  2.6185  0.3791
17402SOL    HW255099   1.166   2.495   3.086 -0.4312 -0.6057 -0.3411
17403SOL     OW55100   4.456   8.814   2.041 -0.0582  0.1196  0.6205
17403SOL    HW155101   4.378   8.859   2.008  1.0614  1.5638 -0.1667
17403SOL    HW255102   4.441   8.806   2.135 -0.9140  0.8975  0.5654
17404SOL     OW55103   1.575   4.210   8.234  0.4081 -0.2152 -0.0303
17404SOL    HW155104   1.642   4.277   8.248 -0.7162  0.8486  0.5083
17404SOL    HW255105   1.619   4.127   8.249  1.0895  0.5520  2.5930
17405SOL     OW55106   8.848   4.617   2.929  0.1041 -0.2778 -0.0513
17405SOL    HW155107   8.906   4.636   2.856 -0.8127 -1.2489 -1.0814
17405SOL    HW255108   8.806   4.700   2.949  1.0475  0.1931 -0.0144
17406SOL     OW55109   6.412   8.270   4.761 -0.3701 -0.3199  0.1578
17406SOL    HW155110   6.413   8.179   4.732 -1.7065 -0.5137  0.6327
17406SOL    HW255111   6.333   8.277   4.815 -1.1990  1.5423 -1.2045
17407SOL     OW55112   4.194   2.576   6.976 -0.4842  0.2463  0.0506
17407SOL    HW155113   4.166   2.608   7.062  1.7397 -1.1657  1.3962
17407SOL    HW255114   4.203   2.482   6.987 -0.6489 -0.0354 -1.9224
17408SOL     OW55115   3.717   7.820   1.588 -0.2009 -0.8699  0.3837
17408SOL    HW155116   3.712   7.878   1.513 -0.1209 -0.0829  0.9743
17408SOL    HW255117   3.800   7.842   1.631 -0.5351 -0.8763  1.0452
17409SOL     OW55118   0.273   6.947   5.943  0.1470 -0.0681 -0.2377
17409SOL    HW155119   0.183   6.932   5.971  0.4608 -0.2105  0.7392
17409SOL    HW255120   0.324   6.877   5.985  0.8010  0.3967 -0.2341
17410SOL     OW55121   4.443   0.123   4.248  0.6305  0.0448 -0.2639
17410SOL    HW155122   4.486   0.175   4.181  0.1114  2.0130  0.8624
17410SOL    HW255123   4.502   0.049   4.262  3.0084  1.8993  0.2232
17411SOL     OW55124   4.858   1.157   8.072  0.2468 -0.2503 -0.2119
17411SOL    HW155125   4.942   1.175   8.112  0.4705  1.1621 -1.2630
17411SOL    HW255126   4.875   1.083   8.013  1.0860  0.8813 -1.4244
17412SOL     OW55127   1.885   7.219   2.080 -0.3200 -0.5400  0.1444
17412SOL    HW155128   1.965   7.235   2.028  0.5818 -1.2311  1.2645
17412SOL    HW255129   1.914   7.225   2.171 -1.4231 -1.4134  0.5714
17413SOL     OW55130   2.486   8.240   2.023 -0.1570 -0.7403  0.0629
17413SOL    HW155131   2.412   8.180   2.019 -0.1654 -0.6688 -1.1307
17413SOL    HW255132   2.560   8.189   1.991  0.2969 -0.7689  1.1196
17414SOL     OW55133   0.692   0.041   0.462  0.0357 -0.3506 -0.1812
17414SOL    HW155134   0.749  -0.035   0.475 -0.1901 -0.2940  1.3499
17414SOL    HW255135   0.610   0.005   0.430 -0.3655 -0.8891  1.3541
17415SOL     OW55136   1.382   4.436   0.544  0.2204  0.2033 -0.4431
17415SOL    HW155137   1.442   4.511   0.538 -3.2937  3.2578 -1.7202
17415SOL    HW255138   1.359   4.417   0.454 -0.7893 -0.7815  0.0022
17416SOL     OW55139   8.876   5.216   8.639 -0.3163  0.5642 -0.4568
17416SOL    HW155140   8.841   5.207   8.728 -0.4829  0.5686 -0.5213
17416SOL    HW255141   8.936   5.143   8.629  2.2951  2.3650  0.8603
17417SOL     OW55142   5.904   3.529   8.858 -0.0940  0.6229  0.4947
17417SOL    HW155143   5.900   3.549   8.765 -3.3836  0.8595  0.5712
17417SOL    HW255144   5.892   3.613   8.902 -0.5422  0.2693  1.0732
17418SOL     OW55145   6.811   0.221   4.526 -0.0148  0.2052 -0.1224
17418SOL    HW155146   6.774   0.265   4.450 -1.7287 -0.2632  0.3883
17418SOL    HW255147   6.869   0.155   4.490  1.7256  2.0677 -0.9254
17419SOL     OW55148   1.153   3.805   6.220 -0.5198 -1.1165 -0.3002
17419SOL    HW155149   1.181   3.850   6.141 -0.6534 -1.3742 -0.4968
17419SOL    HW255150   1.211   3.837   6.288 -0.3238 -0.9855 -0.5288
17420SOL     OW55151   2.031   3.955   2.018  0.0054 -0.5678  0.1191
17420SOL    HW155152   1.951   3.919   2.057 -1.0491  0.3495 -1.0961
17420SOL    HW255153   2.011   3.961   1.924  0.7792  1.4003  0.0275
17421SOL     OW55154   5.527   9.097   6.566 -0.1515 -0.3137 -0.0114
17421SOL    HW155155   5.567   9.158   6.504 -2.4715  0.8532 -0.4585
17421SOL    HW255156   5.567   9.012   6.545  2.7336  0.8547  0.2506
17422SOL     OW55157   5.617   3.163   7.534  0.2168  0.5648 -0.1059
17422SOL    HW155158   5.563   3.232   7.496  1.1851  2.4633  1.8044
17422SOL    HW255159   5.706   3.183   7.505  0.4712 -0.0985  0.1864
17423SOL     OW55160   0.516   9.333   8.679  0.0925  0.5195 -0.1542
17423SOL    HW155161   0.423   9.312   8.669  0.3353 -0.1955 -1.1443
17423SOL    HW255162   0.552   9.261   8.731  0.1224  0.7059  0.0834
17424SOL     OW55163   8.522   6.388   9.085  0.0233 -0.2952  1.0407
17424SOL    HW155164   8.458   6.375   9.155  1.5934 -3.6108  2.0434
17424SOL    HW255165   8.543   6.300   9.055  2.9302  0.7497 -0.3608
17425SOL     OW55166   2.433   9.348   6.871  0.3198 -0.1848  0.1124
17425SOL    HW155167   2.413   9.391   6.788  0.0478 -2.0875 -0.8582
17425SOL    HW255168   2.349   9.344   6.917 -0.4498 -2.6993 -1.3225
17426SOL     OW55169   7.520   2.252   8.559 -0.0052 -0.0070 -0.0201
17426SOL    HW155170   7.470   2.332   8.573  1.1126  0.5342  1.0402
17426SOL    HW255171   7.466   2.200   8.499 -0.5106  1.7427 -1.1400
17427SOL     OW55172   9.252   8.619   0.463 -0.3355 -0.2427  0.1999
17427SOL    HW155173   9.324   8.642   0.521 -0.5709  0.0043  0.3961
17427SOL    HW255174   9.279   8.537   0.423 -0.7118 -1.1201  1.6347
17428SOL     OW55175   8.044   3.248   7.998  0.4550 -0.1547 -0.2723
17428SOL    HW155176   8.099   3.189   8.049  0.2881 -1.3791 -1.4422
17428SOL    HW255177   7.992   3.295   8.063  0.2520 -1.6551  0.7026
17429SOL     OW55178   6.406   4.587   0.377  0.5387  0.2519 -0.1930
17429SOL    HW155179   6.365   4.513   0.331 -0.7600  0.5392  0.4423
17429SOL    HW255180   6.332   4.637   0.411  1.4390  0.9135  0.8353
17430SOL     OW55181   5.503   4.160   8.878 -0.5042  0.3343  0.2792
17430SOL    HW155182   5.523   4.120   8.963 -2.0587  0.3383  0.6788
17430SOL    HW255183   5.439   4.100   8.838 -1.2325  1.3004 -0.0462
17431SOL     OW55184   8.022   4.339   0.468 -0.0841  0.6183 -0.3954
17431SOL    HW155185   8.092   4.316   0.529 -1.2863 -1.5381  0.2616
17431SOL    HW255186   7.954   4.376   0.524 -0.4140  0.4651 -0.6936
17432SOL     OW55187   7.739   3.737   3.049  0.6254  0.3897 -0.3888
17432SOL    HW155188   7.764   3.775   3.133  2.2434  2.5404 -1.7281
17432SOL    HW255189   7.653   3.773   3.030  0.0753 -0.4186  0.4728
17433SOL     OW55190   5.087   9.211   3.966  0.8739  0.3129  0.3518
17433SOL    HW155191   5.156   9.169   3.914  0.2995 -0.1637 -0.0388
17433SOL    HW255192   5.070   9.148   4.037  0.4269  0.1449  0.1027
17434SOL     OW55193   1.174   6.991   7.457 -0.4676  0.0897  0.2020
17434SOL    HW155194   1.085   6.956   7.452 -0.0249 -0.9620 -0.9344
17434SOL    HW255195   1.230   6.913   7.459  0.5334  0.7013 -1.7696
17435SOL     OW55196   3.198   3.695   8.606 -0.1854  0.0484  0.5700
17435SOL    HW155197   3.141   3.719   8.679  0.2835 -0.2523  1.0411
17435SOL    HW255198   3.262   3.635   8.644  0.3573  0.2661  0.0155
17436SOL     OW55199   5.886   0.192   0.889  0.1265  0.6191  1.0404
17436SOL    HW155200   5.900   0.120   0.952 -0.0265  0.7293  1.2013
17436SOL    HW255201   5.894   0.271   0.942  0.1756  0.7178  0.8843
17437SOL     OW55202   6.132   5.125   6.594  0.0779 -1.1521 -0.1771
17437SOL    HW155203   6.139   5.130   6.499  1.4789 -0.3920 -0.0748
17437SOL    HW255204   6.041   5.145   6.613  0.0479 -0.1055 -1.3098
17438SOL     OW55205   1.092   2.802   0.215 -0.1777  0.4438 -0.3683
17438SOL    HW155206   1.175   2.763   0.188 -0.6447 -1.1361  0.3704
17438SOL    HW255207   1.114   2.853   0.293 -0.1645 -1.4159  0.8924
17439SOL     OW55208   6.610   2.653   5.851 -0.0342  0.1976 -0.7231
17439SOL    HW155209   6.580   2.744   5.856 -0.6695  0.0006 -0.8056
17439SOL    HW255210   6.664   2.640   5.929 -0.6017  0.4136 -0.2917
17440SOL     OW55211   1.863   1.524   2.082 -0.4911 -0.0977 -0.4119
17440SOL    HW155212   1.952   1.499   2.109 -0.6990 -0.3160  0.0790
17440SOL    HW255213   1.806   1.489   2.151 -1.1831 -2.0142 -1.8744
17441SOL     OW55214   5.606   5.309   2.547 -0.0002 -0.2036  0.1857
17441SOL    HW155215   5.698   5.329   2.529 -0.3876 -0.0324 -1.8677
17441SOL    HW255216   5.608   5.233   2.605  1.4283  0.8703  1.6244
17442SOL     OW55217   9.213   0.390   7.954  0.3715  0.5294  0.6022
17442SOL    HW155218   9.279   0.331   7.990  1.1331  1.4136  0.6930
17442SOL    HW255219   9.152   0.333   7.908 -0.7859 -0.7183  3.4209
17443SOL     OW55220   7.858   6.434   6.366  0.0025 -0.1610  0.2977
17443SOL    HW155221   7.832   6.499   6.431  0.9908 -0.0411  0.5978
17443SOL    HW255222   7.848   6.350   6.409  1.9747 -0.0243  1.1476
17444SOL     OW55223   9.141   9.293   8.948 -0.0241 -0.2007  0.0672
17444SOL    HW155224   9.055   9.253   8.940 -0.4546  0.6836  0.1599
17444SOL    HW255225   9.163   9.321   8.860 -0.1377  0.1917  0.1629
17445SOL     OW55226   9.538   5.623   6.101  0.4364  0.1490 -0.1825
17445SOL    HW155227   9.604   5.670   6.049  0.0894  0.7186 -0.1174
17445SOL    HW255228   9.460   5.678   6.096  0.3944  0.2094  0.9396
17446SOL     OW55229   5.277   8.650   8.863 -0.3265  0.9220 -0.4813
17446SOL    HW155230   5.184   8.669   8.860 -1.4417 -3.2647  0.5483
17446SOL    HW255231   5.297   8.615   8.776 -1.0207 -2.4283  0.5631
17447SOL     OW55232   3.721   6.301   6.814 -0.1409 -0.5473 -0.4171
17447SOL    HW155233   3.684   6.348   6.739  0.1120 -2.0254 -1.5384
17447SOL    HW255234   3.678   6.215   6.811 -0.3932 -0.5100  1.3747
17448SOL     OW55235   5.490   0.366   3.521  0.0779 -0.3952 -0.0430
17448SOL    HW155236   5.426   0.385   3.453  0.6431  1.0252 -0.2095
17448SOL    HW255237   5.438   0.335   3.596 -0.8464  0.9985 -0.0731
17449SOL     OW55238   0.689   5.551   3.646 -0.3413 -0.5344 -0.6876
17449SOL    HW155239   0.610   5.598   3.673  0.6148 -0.4028  2.3245
17449SOL    HW255240   0.755   5.620   3.633 -0.4780 -0.6941 -2.4320
17450SOL     OW55241   8.772   6.212   2.236  0.1136  0.1002  0.6570
17450SOL    HW155242   8.849   6.157   2.229  0.9674  1.2872  0.3252
17450SOL    HW255243   8.703   6.164   2.190  0.7276 -0.8420  0.7120
17451SOL     OW55244   3.569   9.550   0.761  0.6051  0.5611  0.2994
17451SOL    HW155245   3.662   9.570   0.753  1.2171 -1.4530  1.6517
17451SOL    HW255246   3.551   9.557   0.855 -0.8435  1.7331 -0.0169
17452SOL     OW55247   6.877   1.715   7.347 -0.3257  0.1876  0.4007
17452SOL    HW155248   6.935   1.725   7.422  1.2964 -0.3049 -0.7125
17452SOL    HW255249   6.894   1.625   7.316 -0.1826  0.7061 -1.1112
17453SOL     OW55250   5.145   3.809   3.939 -0.5648 -0.0672 -0.4774
17453SOL    HW155251   5.078   3.756   3.983 -0.0614 -2.0198 -1.8980
17453SOL    HW255252   5.094   3.875   3.891 -1.2512  0.4382  0.8863
17454SOL     OW55253   4.170   7.718   8.450  0.0174 -0.0791  0.1756
17454SOL    HW155254   4.106   7.670   8.503  0.5187 -0.0349  0.8417
17454SOL    HW255255   4.255   7.685   8.480  0.3918  1.3481  0.7999
17455SOL     OW55256   8.769   5.498   0.767  0.3585 -0.0256  0.2508
17455SOL    HW155257   8.808   5.415   0.739  0.0963 -0.0908  0.0751
17455SOL    HW255258   8.714   5.475   0.842  0.4222  0.0169  0.3099
17456SOL     OW55259   8.407   3.800   4.764  0.1252  0.5975 -0.1198
17456SOL    HW155260   8.475   3.855   4.802  0.2012  1.1447 -1.0315
17456SOL    HW255261   8.330   3.857   4.756 -0.3378  0.0903  0.5431
17457SOL     OW55262   0.879   9.471   5.624 -0.5470  0.1878 -0.2432
17457SOL    HW155263   0.906   9.536   5.689  0.0584 -0.0390 -0.2645
17457SOL    HW255264   0.793   9.442   5.654  0.4067 -1.1399  1.4039
17458SOL     OW55265   9.498   0.477   7.608 -0.3084  0.2013 -0.1499
17458SOL    HW155266   9.446   0.399   7.623  0.8011 -0.7924 -1.1858
17458SOL    HW255267   9.446   0.530   7.547 -1.3394  0.5899  1.0404
17459SOL     OW55268   2.751   7.156   6.301  0.4306  0.5624 -0.6425
17459SOL    HW155269   2.736   7.249   6.318 -1.3648  0.2352 -0.2846
17459SOL    HW255270   2.684   7.111   6.352  0.3759 -0.8600 -1.8946
17460SOL     OW55271   3.457   1.308   1.259 -0.1458  0.4067 -0.5001
17460SOL    HW155272   3.408   1.331   1.338 -0.3656 -0.8532 -0.2375
17460SOL    HW255273   3.393   1.267   1.202  0.4110 -0.5114 -0.4929
17461SOL     OW55274   4.059   1.946   0.314  0.4224 -0.5163 -0.0148
17461SOL    HW155275   4.059   1.998   0.234  0.3055 -0.1618  0.2151
17461SOL    HW255276   3.972   1.959   0.352  1.4173  1.7230  1.7140
17462SOL     OW55277   2.767   0.969   3.564 -0.4900  0.1646 -0.5674
17462SOL    HW155278   2.769   0.898   3.499  1.7475  0.1904 -0.5918
17462SOL    HW255279   2.794   0.927   3.646 -0.5061  0.7074 -0.2824
17463SOL     OW55280   2.849   3.782   2.762  0.0289 -0.2659 -0.3816
17463SOL    HW155281   2.918   3.762   2.825  0.0582 -0.2107 -0.3963
17463SOL    HW255282   2.786   3.835   2.812 -0.6571 -1.4112 -0.0007
17464SOL     OW55283   5.375   7.714   6.377 -0.2145  0.3765  0.8968
17464SOL    HW155284   5.441   7.653   6.410  2.3393  1.9209 -0.9955
17464SOL    HW255285   5.362   7.775   6.449  0.5578  0.1312  1.2616
17465SOL     OW55286   7.780   7.263   2.929  0.7696 -0.1573 -0.3049
17465SOL    HW155287   7.850   7.327   2.940  1.1594 -0.6941  0.3517
17465SOL    HW255288   7.738   7.288   2.847  1.7993  0.1003 -0.7667
17466SOL     OW55289   1.139   6.852   2.420  0.2557 -0.0525 -0.0541
17466SOL    HW155290   1.104   6.936   2.450 -1.2644 -0.6397 -0.1442
17466SOL    HW255291   1.125   6.792   2.493  1.1486 -0.3005 -0.0712
17467SOL     OW55292   6.471   5.814   1.515  0.1955  0.2059  0.0469
17467SOL    HW155293   6.497   5.739   1.462  2.4141  0.5558  0.5383
17467SOL    HW255294   6.537   5.820   1.584 -0.3604  2.1387  0.4946
17468SOL     OW55295   9.124   6.224   6.328  0.0372  0.2916  0.6757
17468SOL    HW155296   9.075   6.242   6.408  0.7403 -0.9912  1.4474
17468SOL    HW255297   9.091   6.138   6.300  1.6064 -0.4812  1.0831
17469SOL     OW55298   3.243   9.392   6.761  0.2836  0.4189  0.3198
17469SOL    HW155299   3.301   9.433   6.824  1.4535  0.3260 -0.6443
17469SOL    HW255300   3.302   9.358   6.693 -0.9531  1.4891 -1.3951
17470SOL     OW55301   1.718   8.354   1.139 -0.1364  0.2200 -0.1311
17470SOL    HW155302   1.732   8.415   1.212 -0.8984 -0.4136  0.5677
17470SOL    HW255303   1.658   8.400   1.081  0.7133  0.8533 -0.5294
17471SOL     OW55304   7.688   9.166   0.579  0.2179  0.0233 -0.1990
17471SOL    HW155305   7.672   9.072   0.590  1.2206 -0.1477 -0.0955
17471SOL    HW255306   7.688   9.180   0.484 -0.4041  0.0085 -0.2027
17472SOL     OW55307   5.253   3.550   1.033 -0.3968 -0.1800 -0.3573
17472SOL    HW155308   5.248   3.464   1.073  0.7752 -0.1527 -0.1144
17472SOL    HW255309   5.347   3.570   1.029 -0.5648  0.5346 -1.5854
17473SOL     OW55310   5.822   2.366   4.824 -0.2182 -0.4666  0.2003
17473SOL    HW155311   5.855   2.433   4.884  0.2222 -1.9093  1.6598
17473SOL    HW255312   5.827   2.284   4.875 -0.7753 -1.5987 -1.4820
17474SOL     OW55313   7.445   7.373   1.606  0.2523 -0.4183 -0.1173
17474SOL    HW155314   7.357   7.410   1.599  0.3376 -0.0998  0.4616
17474SOL    HW255315   7.431   7.280   1.623  0.0340 -0.6973 -1.6794
17475SOL     OW55316   3.731   0.327   2.007  0.3467 -0.2483 -0.6029
17475SOL    HW155317   3.819   0.317   2.045 -0.3334 -1.6314  0.7087
17475SOL    HW255318   3.690   0.396   2.059  0.8424  0.9132 -1.6754
17476SOL     OW55319   8.982   7.098   1.343  0.0166 -0.1054 -0.2108
17476SOL    HW155320   8.892   7.106   1.311 -0.0827  0.4900  0.1846
17476SOL    HW255321   9.004   7.187   1.372  0.1168 -0.5993  1.2883
17477SOL     OW55322   4.801   7.000   4.239  0.7756  0.6439 -0.6289
17477SOL    HW155323   4.784   7.053   4.317  0.1123 -0.3038 -0.1083
17477SOL    HW255324   4.754   6.918   4.255  1.3859  0.0783 -1.6224
17478SOL     OW55325   1.698   8.441   2.012 -0.0801  0.1685  0.1523
17478SOL    HW155326   1.706   8.531   2.043  1.3454  0.6076 -1.3405
17478SOL    HW255327   1.755   8.390   2.069 -0.5127  0.2828  0.6956
17479SOL     OW55328   9.163   8.418   7.696  0.9662 -0.0333  0.2982
17479SOL    HW155329   9.103   8.477   7.652  0.8481 -0.4563 -0.1182
17479SOL    HW255330   9.106   8.352   7.737  0.9851  1.0211  2.1430
17480SOL     OW55331   8.625   4.886   1.426 -0.0210  0.1828 -0.2038
17480SOL    HW155332   8.622   4.828   1.502 -1.1318 -0.3716 -0.6625
17480SOL    HW255333   8.598   4.972   1.461 -1.7982 -0.3388 -0.1850
17481SOL     OW55334   8.245   4.361   1.648  0.4613  0.0842  0.6763
17481SOL    HW155335   8.272   4.323   1.732 -0.4094  0.5147  1.1725
17481SOL    HW255336   8.169   4.415   1.670  0.0097 -0.0590 -0.4466
17482SOL     OW55337   9.240   7.864   7.557  0.0025  0.4530  0.0635
17482SOL    HW155338   9.240   7.768   7.564  0.2950  0.4649  0.2268
17482SOL    HW255339   9.331   7.887   7.542  0.2241  0.8282  1.7827
17483SOL     OW55340   8.581   4.673   4.111 -0.3914 -0.2686 -0.7155
17483SOL    HW155341   8.562   4.587   4.147 -1.6096  0.6027  0.8506
17483SOL    HW255342   8.574   4.733   4.186  2.1726  1.0105 -1.3613
17484SOL     OW55343   8.559   0.292   1.812 -0.2331  0.3439 -0.4601
17484SOL    HW155344   8.643   0.330   1.837 -0.6277 -0.3429  2.1524
17484SOL    HW255345   8.578   0.199   1.799 -0.3232  0.4493 -1.4900
17485SOL     OW55346   4.972   2.087   0.886  0.7256 -0.5292 -0.1741
17485SOL    HW155347   5.009   2.029   0.953  2.1145  0.9175  0.3752
17485SOL    HW255348   5.048   2.125   0.842 -0.1497  0.4859 -0.8677
17486SOL     OW55349   8.258   1.409   7.967 -0.0422 -1.1352 -1.2744
17486SOL    HW155350   8.209   1.422   7.886 -1.0630 -0.9037 -0.6429
17486SOL    HW255351   8.233   1.483   8.022  1.8582 -0.4148 -1.3048
17487SOL     OW55352   0.411   5.134   4.559 -0.1266 -0.2454 -0.4607
17487SOL    HW155353   0.394   5.184   4.480  1.0594  0.7643 -0.1027
17487SOL    HW255354   0.362   5.052   4.547 -0.9430  0.3991 -1.6758
17488SOL     OW55355   7.639   1.205   5.891 -0.0504  0.1410 -0.6782
17488SOL    HW155356   7.676   1.287   5.924 -0.1576  0.6750 -1.8586
17488SOL    HW255357   7.643   1.212   5.796 -0.9805 -0.8006 -0.8125
17489SOL     OW55358   7.015   8.857   2.936 -0.6695 -0.3362 -0.0729
17489SOL    HW155359   6.947   8.873   3.002 -2.5914 -3.4137 -1.0913
17489SOL    HW255360   6.988   8.909   2.860 -1.9134 -1.4400 -0.4269
17490SOL     OW55361   9.376   8.661   6.687  0.5478 -0.1661 -0.0613
17490SOL    HW155362   9.411   8.582   6.645  0.4544  0.0822 -0.6092
17490SOL    HW255363   9.281   8.650   6.683  0.5393 -0.2259  0.2551
17491SOL     OW55364   1.269   8.318   5.401 -0.4464  0.2146  0.1014
17491SOL    HW155365   1.200   8.340   5.338  0.0718 -1.7476 -1.2611
17491SOL    HW255366   1.342   8.373   5.375 -0.0918 -0.8730 -1.4052
17492SOL     OW55367   2.297   6.834   0.305 -0.1808  0.5057 -0.0308
17492SOL    HW155368   2.357   6.809   0.234 -1.0632  1.5576 -1.1717
17492SOL    HW255369   2.210   6.809   0.273 -0.4133 -0.8631  1.5433
17493SOL     OW55370   1.288   8.012   2.877  0.0294 -0.2903 -0.3347
17493SOL    HW155371   1.258   8.070   2.807 -1.4252  0.5093  0.8829
17493SOL    HW255372   1.285   8.066   2.955  3.4533 -0.5819  0.1352
17494SOL     OW55373   5.262   2.504   4.501 -0.8450  0.0882 -0.0313
17494SOL    HW155374   5.196   2.532   4.438  2.7600  1.4205 -3.6616
17494SOL    HW255375   5.280   2.413   4.479  1.4592  0.9583 -2.2434
17495SOL     OW55376   9.265   5.778   5.374  0.4077 -0.4555 -0.1513
17495SOL    HW155377   9.203   5.711   5.345 -0.2813  0.1434 -0.0801
17495SOL    HW255378   9.252   5.783   5.469  0.8481 -0.6120 -0.0835
17496SOL     OW55379   5.873   8.255   8.767  0.2136 -0.1706  0.0551
17496SOL    HW155380   5.799   8.271   8.707 -0.2086  2.2581  1.0959
17496SOL    HW255381   5.949   8.291   8.722 -0.3805  3.2731  1.5100
17497SOL     OW55382   7.407   2.349   4.030 -0.3789  0.2188 -0.1330
17497SOL    HW155383   7.343   2.419   4.014 -0.9393 -0.0794  0.7103
17497SOL    HW255384   7.487   2.395   4.053 -0.5151  0.5940 -0.3850
17498SOL     OW55385   0.593   4.360   8.753  0.1440 -0.1766 -0.0542
17498SOL    HW155386   0.587   4.379   8.659  0.6295  1.2805  0.1796
17498SOL    HW255387   0.522   4.411   8.793  1.2822  0.9998  0.5660
17499SOL     OW55388   5.972   5.729   7.473  0.3308  0.2219  0.3847
17499SOL    HW155389   6.030   5.717   7.548 -0.7537  2.6623  1.7225
17499SOL    HW255390   6.025   5.776   7.409  0.6934 -0.2211  0.3489
17500SOL     OW55391   8.716   8.598   6.856  0.0913  0.4117  0.0468
17500SOL    HW155392   8.670   8.653   6.792  0.0586  0.2128 -0.1013
17500SOL    HW255393   8.646   8.552   6.902  0.0991  0.8456  0.4884
17501SOL     OW55394   2.918   4.381   5.544 -0.0727 -0.0465  0.0116
17501SOL    HW155395   2.911   4.429   5.462 -0.6158  0.4944  0.3641
17501SOL    HW255396   2.886   4.443   5.610  0.7285 -0.3217  0.6833
17502SOL     OW55397   7.376   6.506   5.306 -0.0560 -0.3442 -0.3923
17502SOL    HW155398   7.469   6.491   5.319 -0.6410 -2.0289  3.1747
17502SOL    HW255399   7.363   6.599   5.325  0.8223 -0.2070 -0.4251
17503SOL     OW55400   6.938   4.803   4.275  0.6546  0.1408 -0.6119
17503SOL    HW155401   6.942   4.881   4.221 -1.8908 -0.0846 -1.2510
17503SOL    HW255402   6.969   4.732   4.218  0.6046  0.3135 -0.8528
17504SOL     OW55403   4.438   6.676   0.843 -0.3252  0.0217  0.8076
17504SOL    HW155404   4.380   6.741   0.805  0.1924  0.1248  0.1650
17504SOL    HW255405   4.465   6.713   0.927  2.8534  2.4234 -1.0698
17505SOL     OW55406   8.203   8.482   0.360  0.5602  0.1143  0.3156
17505SOL    HW155407   8.151   8.516   0.432 -0.8629 -0.7187 -0.2547
17505SOL    HW255408   8.139   8.467   0.290  1.3249 -2.1725  0.0189
17506SOL     OW55409   9.017   4.873   2.858 -0.1347 -0.3275  0.2003
17506SOL    HW155410   8.982   4.904   2.775 -1.8507 -1.0480  0.6237
17506SOL    HW255411   9.111   4.888   2.851 -0.4074  0.9376 -1.2955
17507SOL     OW55412   5.061   8.171   7.295 -0.8417  0.0587 -0.1206
17507SOL    HW155413   5.062   8.080   7.265  0.1386 -0.1579  0.5056
17507SOL    HW255414   4.980   8.208   7.260 -0.6012 -0.6797 -1.5228
17508SOL     OW55415   0.780   4.626   8.301  0.1219 -0.2721 -0.0814
17508SOL    HW155416   0.875   4.635   8.302  0.0714  0.3141 -0.1737
17508SOL    HW255417   0.748   4.709   8.337 -0.3317 -0.8612  0.9130
17509SOL     OW55418   6.683   0.656   2.540  0.1087 -0.6081 -0.1490
17509SOL    HW155419   6.776   0.675   2.552 -0.0813 -1.0031  2.8269
17509SOL    HW255420   6.641   0.743   2.536  0.5011 -0.4291 -0.4053
17510SOL     OW55421   5.641   7.721   6.104  0.7910 -0.0513  0.5429
17510SOL    HW155422   5.652   7.719   6.009  1.7924 -2.6929  0.6142
17510SOL    HW255423   5.619   7.812   6.124  1.6926  0.8522 -2.0813
17511SOL     OW55424   6.676   2.712   7.184 -0.3644 -0.6703 -0.1057
17511SOL    HW155425   6.606   2.773   7.205 -0.6141 -0.6498 -0.9606
17511SOL    HW255426   6.693   2.726   7.091  0.0931 -1.3706 -0.1364
17512SOL     OW55427   1.906   0.090   3.647  0.6761 -0.3621 -0.5399
17512SOL    HW155428   1.872   0.103   3.736 -0.1938 -1.3792 -0.7059
17512SOL    HW255429   1.992   0.131   3.649  0.4623  0.0776  0.6323
17513SOL     OW55430   5.614   7.269   7.229  0.1329  0.0274 -0.2982
17513SOL    HW155431   5.628   7.178   7.255 -0.0119  0.1807  0.3273
17513SOL    HW255432   5.671   7.281   7.153  2.8029  0.3839  1.6183
17514SOL     OW55433   8.041   0.756   5.411  0.2663 -0.0896  0.4858
17514SOL    HW155434   8.135   0.752   5.428  0.2325 -0.7156  0.5205
17514SOL    HW255435   8.033   0.817   5.337  0.6849  0.0722  0.5729
17515SOL     OW55436   6.046   5.665   8.881 -0.0041  0.1953  0.4473
17515SOL    HW155437   6.100   5.603   8.832 -1.1229 -1.5276  1.3038
17515SOL    HW255438   6.031   5.737   8.820  0.0583 -1.0875 -1.1479
17516SOL     OW55439   3.766   7.564   1.392 -0.1170 -0.0151  0.4648
17516SOL    HW155440   3.849   7.601   1.423  0.2141 -0.1028 -0.2773
17516SOL    HW255441   3.709   7.565   1.468  0.2341  1.0151  0.7275
17517SOL     OW55442   3.437   8.163   4.018 -0.3182  0.4574  0.0068
17517SOL    HW155443   3.515   8.212   4.044 -1.4181  2.4533 -0.2870
17517SOL    HW255444   3.467   8.108   3.946  1.1811 -0.0836  0.9909
17518SOL     OW55445   8.697   1.800   1.636  0.1965 -0.0492  0.2837
17518SOL    HW155446   8.692   1.870   1.570 -1.1359 -0.6229 -0.2534
17518SOL    HW255447   8.692   1.846   1.720 -1.4207  0.4695 -0.0657
17519SOL     OW55448   0.224   0.306   2.986  0.4316 -0.2272  0.3096
17519SOL    HW155449   0.274   0.252   3.046  0.2890  1.4187  2.0043
17519SOL    HW255450   0.287   0.369   2.951 -0.1528  1.1202  1.5718
17520SOL     OW55451   2.320   7.678   0.398  0.6400  0.0318 -0.5858
17520SOL    HW155452   2.386   7.742   0.426 -1.2082  1.8035  0.0321
17520SOL    HW255453   2.250   7.731   0.359 -1.5900 -1.4182  1.1246
17521SOL     OW55454   2.695   7.326   4.922 -0.1865 -0.2133 -0.6982
17521SOL    HW155455   2.679   7.365   4.836 -2.8290 -0.3321 -0.3537
17521SOL    HW255456   2.619   7.268   4.936  0.5087 -0.6891  1.4347
17522SOL     OW55457   6.785   9.368   1.160 -0.3342  0.2376 -0.0891
17522SOL    HW155458   6.788   9.275   1.184 -0.5215  0.6323  1.5694
17522SOL    HW255459   6.702   9.399   1.197  0.9863  1.6824  1.7911
17523SOL     OW55460   1.699   4.712   4.124 -0.9307 -0.3533  0.4345
17523SOL    HW155461   1.779   4.764   4.111 -0.8763 -0.9112 -1.7261
17523SOL    HW255462   1.725   4.644   4.186  1.3556 -2.5480 -2.6286
17524SOL     OW55463   6.580   9.275   4.410  0.1128  0.3877 -0.6472
17524SOL    HW155464   6.544   9.277   4.499  0.6412 -1.8284 -0.3104
17524SOL    HW255465   6.619   9.361   4.398 -1.0491  1.1722  0.7815
17525SOL     OW55466   5.656   0.706   4.915 -0.1223 -0.2213 -0.4905
17525SOL    HW155467   5.718   0.636   4.932  0.9579  0.7631 -0.2630
17525SOL    HW255468   5.570   0.663   4.917  0.4243 -1.3173  0.8781
17526SOL     OW55469   7.991   7.800   7.412  0.0856 -0.1234 -0.2314
17526SOL    HW155470   8.025   7.825   7.326 -1.4013 -1.3620 -1.2070
17526SOL    HW255471   8.050   7.845   7.474  2.4320 -0.8016 -1.8321
17527SOL     OW55472   8.848   5.329   5.577 -0.1538  0.4036  0.0978
17527SOL    HW155473   8.829   5.310   5.486 -0.2728  0.0747  0.1904
17527SOL    HW255474   8.789   5.401   5.600 -0.1904  0.4221 -0.0553
17528SOL     OW55475   2.741   5.387   4.929 -0.5509 -0.6187  0.6500
17528SOL    HW155476   2.773   5.333   4.857  0.0693  0.8344 -0.2062
17528SOL    HW255477   2.741   5.328   5.005 -0.8031 -2.0574 -0.4302
17529SOL     OW55478   5.295   7.818   3.135  0.1779  0.7530  0.4412
17529SOL    HW155479   5.314   7.909   3.159 -2.7517  1.0475  2.1378
17529SOL    HW255480   5.223   7.793   3.193  0.3176 -2.3940 -0.5849
17530SOL     OW55481   3.390   5.143   4.153 -0.5358  0.3205  0.4099
17530SOL    HW155482   3.385   5.173   4.244 -0.0920 -0.9932  0.8915
17530SOL    HW255483   3.308   5.173   4.114 -1.6440 -0.7449  1.7947
17531SOL     OW55484   1.852   5.639   2.016  0.1892  0.4900 -0.1523
17531SOL    HW155485   1.904   5.686   2.081 -0.7644 -1.8170  2.5138
17531SOL    HW255486   1.762   5.647   2.047 -0.0040 -3.2027  0.7427
17532SOL     OW55487   7.008   5.091   7.373  0.0900 -0.1396 -0.3012
17532SOL    HW155488   7.022   5.177   7.412  0.1534  1.2681 -3.1052
17532SOL    HW255489   6.913   5.085   7.361 -0.0572 -1.1058  1.0728
17533SOL     OW55490   1.739   6.647   7.060 -0.1717  0.0405  0.6350
17533SOL    HW155491   1.669   6.616   7.118  0.6673 -0.5318  1.3577
17533SOL    HW255492   1.802   6.575   7.057 -0.0479  0.1683 -0.7708
17534SOL     OW55493   2.970   3.613   0.506 -0.2569 -0.5051  0.2642
17534SOL    HW155494   3.055   3.647   0.530 -0.0575 -1.5785  1.1524
17534SOL    HW255495   2.922   3.688   0.470  0.2999  0.5865  1.7512
17535SOL     OW55496   1.346   1.572   3.535 -0.1402  0.0479  0.0602
17535SOL    HW155497   1.278   1.544   3.474  0.0124  0.0323 -0.1035
17535SOL    HW255498   1.300   1.626   3.599 -0.5085 -0.8444  0.5784
17536SOL     OW55499   1.906   9.395   9.129  0.2964 -0.2109 -0.3368
17536SOL    HW155500   1.925   9.465   9.066  1.8700 -0.7524 -0.5060
17536SOL    HW255501   1.881   9.320   9.075 -1.2834  0.1505 -0.1588
17537SOL     OW55502   2.139   9.036   6.109  0.0727 -0.3754  0.0286
17537SOL    HW155503   2.189   9.105   6.152  0.5066  0.1155 -1.1968
17537SOL    HW255504   2.048   9.056   6.127  0.1816  0.6989 -0.5383
17538SOL     OW55505   0.894   4.109   7.037 -0.0644 -0.2872 -0.3202
17538SOL    HW155506   0.959   4.163   7.083 -0.3468  0.8127 -1.1873
17538SOL    HW255507   0.857   4.053   7.106 -1.3469  2.1446  1.1234
17539SOL     OW55508   3.903   5.969   1.515 -0.0927 -0.2065 -0.6807
17539SOL    HW155509   3.904   6.063   1.498 -3.1093  0.0267 -0.0160
17539SOL    HW255510   3.844   5.933   1.450 -1.1012 -1.2139  0.7223
17540SOL     OW55511   0.395   3.556   4.565 -0.2674  0.4021 -0.4956
17540SOL    HW155512   0.442   3.472   4.562 -2.3028 -0.8480  0.4704
17540SOL    HW255513   0.437   3.609   4.497  3.0183 -0.2941  0.7989
17541SOL     OW55514   5.712   6.925   7.641 -0.0369  0.3898  0.2928
17541SOL    HW155515   5.632   6.886   7.605  0.5060  1.0579 -1.7317
17541SOL    HW255516   5.715   7.014   7.606  2.1988 -0.0082 -0.7806
17542SOL     OW55517   9.246   0.437   6.942 -0.1946 -0.0600  0.9733
17542SOL    HW155518   9.162   0.394   6.959 -0.2866  0.0734  0.8572
17542SOL    HW255519   9.288   0.382   6.875 -0.0675 -0.2816  1.2318
17543SOL     OW55520   9.133   7.890   7.231 -0.7518 -0.1966 -0.1548
17543SOL    HW155521   9.153   7.905   7.138 -0.6379 -1.5847 -0.3733
17543SOL    HW255522   9.187   7.815   7.255 -3.1423 -1.9484  0.1461
17544SOL     OW55523   6.722   5.654   3.376 -0.2969 -0.5273 -0.5601
17544SOL    HW155524   6.673   5.572   3.385 -1.8143  0.0561 -2.6546
17544SOL    HW255525   6.806   5.637   3.418 -1.0970 -2.6759  0.2999
17545SOL     OW55526   4.417   2.480   3.617 -0.0641  0.0288  0.0044
17545SOL    HW155527   4.483   2.523   3.563  1.1517 -1.5969  0.1140
17545SOL    HW255528   4.337   2.482   3.564  0.0363  1.9720 -0.1535
17546SOL     OW55529   6.780   4.518   1.167 -0.1414  0.2144 -0.6499
17546SOL    HW155530   6.809   4.506   1.076 -0.0494  0.1919 -0.6171
17546SOL    HW255531   6.767   4.429   1.200 -0.3044  0.2255 -0.6830
17547SOL     OW55532   5.928   1.956   1.720  0.4973 -0.0798 -0.3659
17547SOL    HW155533   5.975   1.942   1.637 -1.4924 -0.8781 -1.4188
17547SOL    HW255534   5.890   1.870   1.740 -1.7573  0.8481 -0.3903
17548SOL     OW55535   1.481   6.150   3.780  0.5333 -0.1268 -0.7244
17548SOL    HW155536   1.454   6.059   3.789 -0.3397  0.1132 -0.8345
17548SOL    HW255537   1.456   6.191   3.863 -0.2317  0.2937 -1.1572
17549SOL     OW55538   9.162   0.406   5.715  0.5046 -0.3506 -0.2322
17549SOL    HW155539   9.122   0.398   5.629 -1.8904  1.5966  0.5961
17549SOL    HW255540   9.181   0.499   5.725 -0.6998 -0.2513  1.8506
17550SOL     OW55541   1.644   3.011   1.807  0.6216  0.7149  0.2860
17550SOL    HW155542   1.560   3.022   1.851  0.4169  0.2879  0.0107
17550SOL    HW255543   1.627   2.946   1.739  1.3199  0.1934  0.6053
17551SOL     OW55544   1.987   9.327   8.672 -0.4132 -0.2539 -0.0065
17551SOL    HW155545   2.005   9.340   8.578  0.2171 -1.0897 -0.0089
17551SOL    HW255546   1.955   9.237   8.678 -1.1379  0.0331  0.4953
17552SOL     OW55547   8.594   2.243   3.021 -0.1759 -0.1071  0.1838
17552SOL    HW155548   8.687   2.238   2.999 -0.5206  1.4523 -1.9743
17552SOL    HW255549   8.587   2.206   3.109  2.6225  0.7137  0.8141
17553SOL     OW55550   8.640   6.318   1.026  0.0495 -0.2597  0.2536
17553SOL    HW155551   8.598   6.369   1.096 -1.1961  0.1409 -0.7470
17553SOL    HW255552   8.572   6.257   0.998 -0.4769  1.4082 -2.4505
17554SOL     OW55553   7.035   5.870   0.637 -0.0313 -0.0831  0.5285
17554SOL    HW155554   6.975   5.945   0.640  0.5145  0.3275  1.5468
17554SOL    HW255555   7.000   5.808   0.700  1.5751  0.9318  2.5335
17555SOL     OW55556   9.362   8.593   1.723  0.6154 -0.0549 -0.3775
17555SOL    HW155557   9.316   8.510   1.733 -0.1413  0.3110 -0.7426
17555SOL    HW255558   9.424   8.596   1.797 -1.2319  0.2755  1.2472
17556SOL     OW55559   2.820   1.634   0.467  0.0207 -0.1006  0.1264
17556SOL    HW155560   2.906   1.624   0.508  0.4022  0.7811 -0.4322
17556SOL    HW255561   2.816   1.725   0.440 -0.4559 -0.4908 -1.2476
17557SOL     OW55562   2.720   9.377   3.928 -0.2047  0.0099  0.0063
17557SOL    HW155563   2.768   9.294   3.935  1.7342  1.0930  0.2690
17557SOL    HW255564   2.788   9.444   3.930 -1.6399  1.5897 -1.3717
17558SOL     OW55565   6.812   6.453   5.132  0.0204 -0.2237 -0.4370
17558SOL    HW155566   6.875   6.455   5.061  0.1621  0.2870 -0.2993
17558SOL    HW255567   6.843   6.382   5.189  0.1735 -0.3198 -0.6380
17559SOL     OW55568   8.877   7.517   2.401  0.3607  0.2591  0.0508
17559SOL    HW155569   8.833   7.479   2.325 -0.0429  0.2316  0.2964
17559SOL    HW255570   8.946   7.572   2.364  0.8847 -0.6260 -0.3136
17560SOL     OW55571   2.721   8.702   6.010  0.1518  0.3615 -0.0138
17560SOL    HW155572   2.718   8.797   6.019 -1.1741  0.4023 -0.7057
17560SOL    HW255573   2.651   8.670   6.067  0.5737 -0.2086  0.1972
17561SOL     OW55574   0.132   9.324   5.850  0.4626 -0.0804  0.3930
17561SOL    HW155575   0.151   9.246   5.798 -0.2150  1.1520 -1.8350
17561SOL    HW255576   0.217   9.365   5.864  0.6551 -0.4388  0.2887
17562SOL     OW55577   9.400   0.645   7.394  0.5500  0.2347  0.0308
17562SOL    HW155578   9.413   0.637   7.299 -0.6504  0.9510 -0.2223
17562SOL    HW255579   9.305   0.642   7.405  0.4739  3.0020  0.8895
17563SOL     OW55580   4.766   5.699   7.764  0.1778 -0.7288  0.1846
17563SOL    HW155581   4.783   5.606   7.752 -0.7625 -0.7987 -0.8114
17563SOL    HW255582   4.803   5.720   7.850  2.0559 -1.5893 -0.3721
17564SOL     OW55583   6.540   5.900   2.082 -0.1533 -0.2310 -0.1185
17564SOL    HW155584   6.622   5.929   2.041 -0.8070  1.1803 -0.4961
17564SOL    HW255585   6.480   5.889   2.009 -0.6698  0.0405  0.2622
17565SOL     OW55586   1.837   5.378   1.874 -0.0414 -0.0896  0.0941
17565SOL    HW155587   1.820   5.289   1.903  2.6984 -0.5139  0.6255
17565SOL    HW255588   1.806   5.434   1.945 -1.6824 -0.5704 -0.2020
17566SOL     OW55589   8.337   5.233   5.948 -0.0806 -0.1097  0.1778
17566SOL    HW155590   8.393   5.207   6.020  0.4542 -2.4814 -0.9854
17566SOL    HW255591   8.253   5.254   5.989  0.9674  1.2730  1.7082
17567SOL     OW55592   6.507   9.115   9.281  0.0599 -0.2440 -0.2957
17567SOL    HW155593   6.563   9.084   9.352 -1.5340 -1.3302  0.5616
17567SOL    HW255594   6.503   9.210   9.293  1.2803 -0.2165 -0.0537
17568SOL     OW55595   0.840   5.190   0.666  0.1163 -0.5741 -0.1741
17568SOL    HW155596   0.812   5.280   0.683  2.2308 -0.0018  0.6068
17568SOL    HW255597   0.835   5.147   0.751  2.9295 -0.0000  0.3864
17569SOL     OW55598   2.611   1.869   7.109  0.2504 -0.0211  0.2450
17569SOL    HW155599   2.655   1.822   7.179  0.0459 -0.7372 -0.0964
17569SOL    HW255600   2.572   1.800   7.054  1.6425  0.4466 -1.4023
17570SOL     OW55601   7.322   7.639   1.947  0.1054  0.0769 -0.2545
17570SOL    HW155602   7.289   7.712   2.000  0.9767  1.3408 -1.3926
17570SOL    HW255603   7.284   7.653   1.861  1.4804  0.0493 -0.8818
17571SOL     OW55604   4.635   3.116   0.736  0.2129  0.0056 -0.2137
17571SOL    HW155605   4.662   3.208   0.735  0.6796 -0.1295 -1.6900
17571SOL    HW255606   4.554   3.114   0.686 -2.3590  0.2775  3.5087
17572SOL     OW55607   6.510   4.782   7.343  0.1410  0.5131 -0.5873
17572SOL    HW155608   6.579   4.759   7.281  1.1577 -0.2185  0.7718
17572SOL    HW255609   6.436   4.807   7.288  1.2862  0.7385 -2.0848
17573SOL     OW55610   7.444   9.067   5.594 -0.3979  0.5381  0.7948
17573SOL    HW155611   7.427   9.152   5.554  0.1459  0.0660 -0.5150
17573SOL    HW255612   7.414   9.076   5.684 -2.3193  1.4649  0.1321
17574SOL     OW55613   0.152   1.909   7.988 -0.5297 -0.3402  0.1798
17574SOL    HW155614   0.231   1.881   7.942 -0.7239 -0.8157  0.1286
17574SOL    HW255615   0.170   1.889   8.080 -1.2292 -2.0449 -0.0071
17575SOL     OW55616   9.635   7.295   5.915 -0.2438  0.4221  0.5428
17575SOL    HW155617   9.633   7.256   6.002  0.7084  2.6252  1.6122
17575SOL    HW255618   9.601   7.384   5.927  2.3287  1.6891 -0.7832
17576SOL     OW55619   4.285   5.679   5.640 -0.0650  0.0952  0.6319
17576SOL    HW155620   4.364   5.673   5.694 -0.2396  2.4267  1.2601
17576SOL    HW255621   4.212   5.673   5.702 -0.3441 -0.1830  0.2862
17577SOL     OW55622   6.347   0.011   1.482  0.3253  0.1010  0.0405
17577SOL    HW155623   6.436  -0.019   1.502  0.6827  0.0396 -1.5193
17577SOL    HW255624   6.309  -0.060   1.430 -0.2772  0.5691 -0.1691
17578SOL     OW55625   5.896   7.232   9.570  0.2076 -0.6583  0.3475
17578SOL    HW155626   5.959   7.189   9.627  0.0215 -1.9731 -0.3995
17578SOL    HW255627   5.883   7.319   9.609  3.6160  0.2753 -0.3263
17579SOL     OW55628   6.070   8.196   8.545 -0.3244  0.5710 -0.0147
17579SOL    HW155629   6.069   8.214   8.451 -0.0796  1.3764  0.1231
17579SOL    HW255630   6.073   8.283   8.586 -0.7823  0.2405  0.7475
17580SOL     OW55631   4.744   8.968   5.860 -0.6092  0.2974 -0.3475
17580SOL    HW155632   4.769   8.892   5.807 -0.5313  0.7284 -0.9379
17580SOL    HW255633   4.776   9.044   5.810  0.8732  0.6611  1.0705
17581SOL     OW55634   8.483   8.107   3.133  0.3355 -0.1675 -0.1151
17581SOL    HW155635   8.433   8.146   3.204 -0.2910 -2.5988  0.8946
17581SOL    HW255636   8.428   8.035   3.102  1.8554 -0.9576 -1.1074
17582SOL     OW55637   3.420   5.361   1.357 -0.0783  0.0641  0.4649
17582SOL    HW155638   3.363   5.342   1.431  0.3814 -2.1545  0.3012
17582SOL    HW255639   3.388   5.305   1.286  2.0529 -0.9913  0.2706
17583SOL     OW55640   5.804   2.693   4.762  0.3407  0.1955  0.6081
17583SOL    HW155641   5.722   2.726   4.724  0.3414 -1.2941 -0.8109
17583SOL    HW255642   5.778   2.661   4.849 -0.6169 -0.3688  0.1345
17584SOL     OW55643   3.308   6.270   7.688  0.4731 -0.1059 -0.6082
17584SOL    HW155644   3.338   6.361   7.697  0.6108 -0.1006 -1.0798
17584SOL    HW255645   3.220   6.270   7.726  0.5337  0.1910 -0.4648
17585SOL     OW55646   8.011   3.368   6.164 -0.5657  0.1927 -0.2465
17585SOL    HW155647   8.008   3.393   6.257 -0.0776 -0.3262 -0.0851
17585SOL    HW255648   7.999   3.273   6.164 -0.7807  0.2158 -0.7344
17586SOL     OW55649   3.026   2.984   9.261 -0.0703 -0.0302 -0.7621
17586SOL    HW155650   2.974   2.932   9.322 -1.0968  0.5336 -1.1275
17586SOL    HW255651   2.976   3.065   9.250  0.6844  0.3582 -1.4551
17587SOL     OW55652   2.559   2.653   5.779  0.4793  0.1711  0.2398
17587SOL    HW155653   2.655   2.647   5.781  0.4104 -1.2590  0.4490
17587SOL    HW255654   2.529   2.567   5.808 -0.8685 -0.5809 -2.8855
17588SOL     OW55655   7.240   4.564   3.103  0.2562  0.5143  0.1262
17588SOL    HW155656   7.145   4.561   3.091  0.4830  1.1074 -2.7271
17588SOL    HW255657   7.267   4.473   3.106 -0.1653  0.1716 -2.8382
17589SOL     OW55658   4.226   1.172   4.185 -0.2337 -0.4318 -0.1813
17589SOL    HW155659   4.295   1.111   4.159 -0.3724 -1.6231  1.9796
17589SOL    HW255660   4.175   1.124   4.251  0.4622  2.4068  2.6841
17590SOL     OW55661   3.052   0.118   0.323  0.0665 -0.7826 -0.4190
17590SOL    HW155662   2.987   0.161   0.378  1.1662  0.8055 -0.2938
17590SOL    HW255663   3.135   0.131   0.370  0.9649  0.1797 -2.1892
17591SOL     OW55664   1.704   6.426   1.715  0.2988 -0.1830 -0.1838
17591SOL    HW155665   1.648   6.374   1.657  0.6184 -0.1197 -0.5543
17591SOL    HW255666   1.648   6.449   1.789 -0.9906  2.1595 -1.7872
17592SOL     OW55667   6.447   0.852   3.103 -0.1375  0.7290  0.2627
17592SOL    HW155668   6.457   0.934   3.151  0.0306  0.6779  0.3160
17592SOL    HW255669   6.506   0.861   3.028 -0.7369  0.9943 -0.1883
17593SOL     OW55670   4.032   9.436   2.562  0.0749  0.3082  0.0209
17593SOL    HW155671   3.946   9.474   2.544 -0.4851 -0.7944  0.2832
17593SOL    HW255672   4.030   9.350   2.520  0.9649  0.1711  0.2351
17594SOL     OW55673   4.713   1.179   3.144  0.0540  0.6875  0.0825
17594SOL    HW155674   4.623   1.170   3.111 -0.2726  1.4626  0.7401
17594SOL    HW255675   4.726   1.273   3.154  0.0612  0.5050  2.3145
17595SOL     OW55676   5.223   2.426   8.452  0.9370 -0.4317 -0.3703
17595SOL    HW155677   5.255   2.510   8.418  1.5579  0.0608  1.3467
17595SOL    HW255678   5.263   2.418   8.539 -1.6763 -0.9335  0.8832
17596SOL     OW55679   7.069   6.512   0.609 -0.2302 -0.4457  0.0756
17596SOL    HW155680   7.055   6.600   0.573 -1.8214  0.0515  1.7624
17596SOL    HW255681   7.019   6.512   0.691  0.9876 -2.4314  0.8689
17597SOL     OW55682   4.347   3.162   5.845  0.6120 -0.8992 -0.0128
17597SOL    HW155683   4.317   3.121   5.926  0.2123 -0.8808 -0.1498
17597SOL    HW255684   4.352   3.256   5.867  1.5400 -1.0114  0.3038
17598SOL     OW55685   1.896   1.602   0.048  0.2342  0.6764  0.2150
17598SOL    HW155686   1.902   1.671   0.115  0.7582  1.6725 -0.8064
17598SOL    HW255687   1.892   1.651  -0.035  0.4520 -0.5319 -0.5234
17599SOL     OW55688   2.291   9.345   5.296 -0.7496  0.7737 -0.1875
17599SOL    HW155689   2.269   9.281   5.227  1.1494 -1.1830  0.9009
17599SOL    HW255690   2.376   9.380   5.270 -0.2229  0.3396  0.8926
17600SOL     OW55691   5.469   8.189   5.680  0.2720  0.7169 -0.0477
17600SOL    HW155692   5.439   8.245   5.608 -0.4314 -2.1312 -2.1660
17600SOL    HW255693   5.388   8.158   5.721  0.2867 -2.4089 -2.0512
17601SOL     OW55694   1.649   4.995   6.045  0.6217 -0.3600  0.3417
17601SOL    HW155695   1.581   4.933   6.070 -0.1409  0.4540  0.3266
17601SOL    HW255696   1.610   5.047   5.974  1.6658 -0.6304 -0.4567
17602SOL     OW55697   5.265   8.369   7.254  0.2721 -0.4000  0.1665
17602SOL    HW155698   5.198   8.426   7.215 -2.7322 -2.0959  2.3843
17602SOL    HW255699   5.219   8.287   7.270  3.4080 -2.2321  0.4540
17603SOL     OW55700   8.501   1.086   2.000 -0.6898 -0.4731  0.4901
17603SOL    HW155701   8.479   1.118   1.912 -0.6220 -0.2530  0.5531
17603SOL    HW255702   8.435   1.127   2.057 -1.3248 -1.3687  0.4155
17604SOL     OW55703   4.997   0.977   2.743  0.1750  0.2361 -0.0519
17604SOL    HW155704   5.003   0.959   2.649  1.1031  0.2943 -0.0134
17604SOL    HW255705   4.940   0.907   2.777 -0.7528  0.6232 -0.7494
17605SOL     OW55706   4.624   2.428   7.856 -0.2227  0.4104  0.0195
17605SOL    HW155707   4.650   2.348   7.810 -1.9135 -1.2514  1.7509
17605SOL    HW255708   4.534   2.443   7.829  0.3076  2.2495 -0.8756
17606SOL     OW55709   8.529   6.381   1.255 -0.5443 -0.4702 -0.3159
17606SOL    HW155710   8.454   6.375   1.314  0.4141  0.3824  1.0560
17606SOL    HW255711   8.599   6.333   1.298 -0.2490 -1.1748 -1.5278
17607SOL     OW55712   7.239   4.112   7.563 -0.5040 -0.2815  0.2399
17607SOL    HW155713   7.297   4.067   7.624 -1.4812  0.2867  1.6421
17607SOL    HW255714   7.195   4.178   7.615  0.7088  2.2386 -1.7068
17608SOL     OW55715   2.333   8.219   1.550  0.0840  0.3689 -0.2356
17608SOL    HW155716   2.351   8.310   1.573  2.5245 -0.3420  1.1346
17608SOL    HW255717   2.416   8.187   1.514 -0.7363 -1.2985 -0.7464
17609SOL     OW55718   3.939   8.832   8.607  0.5234  0.1501  0.0541
17609SOL    HW155719   3.998   8.859   8.677 -1.4767 -1.2653  2.4285
17609SOL    HW255720   3.875   8.903   8.600  0.3519  0.0016  0.1105
17610SOL     OW55721   5.754   2.170   1.812 -0.2344 -0.9671 -0.3586
17610SOL    HW155722   5.736   2.134   1.899 -2.4030 -0.0267 -0.3466
17610SOL    HW255723   5.805   2.102   1.768  0.5006 -1.6672  1.4726
17611SOL     OW55724   8.399   0.972   8.197  0.3948  0.1488  0.5730
17611SOL    HW155725   8.459   1.044   8.216 -0.8125  1.6747 -1.0450
17611SOL    HW255726   8.328   1.012   8.146 -0.9674 -1.9592  0.6646
17612SOL     OW55727   1.815   8.925   4.884 -0.1045 -0.1620  0.1468
17612SOL    HW155728   1.816   8.906   4.978  0.8315 -0.6231  0.0500
17612SOL    HW255729   1.886   8.873   4.848  0.7615  1.4153 -0.5367
17613SOL     OW55730   8.711   3.715   0.590  0.5505 -0.8204  0.6908
17613SOL    HW155731   8.705   3.706   0.495 -1.9462 -0.8222  0.7866
17613SOL    HW255732   8.802   3.740   0.606  0.1822  3.0285 -2.0237
17614SOL     OW55733   0.404   1.736   6.205 -0.4874 -0.1048 -0.5229
17614SOL    HW155734   0.320   1.777   6.182 -0.8594 -0.4294  0.2023
17614SOL    HW255735   0.387   1.642   6.196 -0.6033 -0.2401  0.8484
17615SOL     OW55736   4.387   2.051   2.174  0.5838  0.1844  0.3707
17615SOL    HW155737   4.435   2.050   2.257  0.8650  0.7076  0.2163
17615SOL    HW255738   4.325   1.978   2.181 -0.1229  0.8711  1.4625
17616SOL     OW55739   2.896   4.007   8.369 -0.2298  0.0549 -0.4549
17616SOL    HW155740   2.974   4.036   8.321 -1.5707  1.1857 -2.0710
17616SOL    HW255741   2.918   4.021   8.461  1.7510 -0.4420 -0.7933
17617SOL     OW55742   5.294   0.183   0.173 -0.0777  0.1516  0.5008
17617SOL    HW155743   5.339   0.104   0.203  0.3253  0.7287  1.4382
17617SOL    HW255744   5.364   0.239   0.140 -0.2647  0.4810  0.6599
17618SOL     OW55745   5.304   2.217   8.279 -0.0020 -0.2829  0.9923
17618SOL    HW155746   5.250   2.277   8.330  0.7444  0.7996  0.5397
17618SOL    HW255747   5.291   2.132   8.321 -3.4527 -0.4830 -0.1446
17619SOL     OW55748   8.578   8.813   4.886 -0.5579  0.1703 -0.3269
17619SOL    HW155749   8.521   8.736   4.889 -0.4212  0.0965  2.1779
17619SOL    HW255750   8.608   8.816   4.795 -1.2801 -2.2039 -0.7283
17620SOL     OW55751   6.336   0.927   6.182 -0.8266 -0.1011  0.2092
17620SOL    HW155752   6.293   0.867   6.242 -0.3256 -2.4375 -1.6212
17620SOL    HW255753   6.319   0.891   6.095 -0.5482  2.4829 -1.0136
17621SOL     OW55754   0.895   7.048   4.256 -0.2028  0.3144 -0.4459
17621SOL    HW155755   0.881   7.136   4.289 -0.6216  0.3913 -0.8269
17621SOL    HW255756   0.877   6.991   4.331 -1.3245  0.4733 -0.5768
17622SOL     OW55757   7.691   6.534   0.580  0.3362 -0.6078 -0.5031
17622SOL    HW155758   7.670   6.501   0.667  0.7822  1.1819  0.3263
17622SOL    HW255759   7.786   6.521   0.572  0.6192  0.8979  0.0675
17623SOL     OW55760   3.709   2.255   3.526  0.4881 -0.0939 -0.4007
17623SOL    HW155761   3.771   2.205   3.474 -1.7565 -1.5055 -1.8696
17623SOL    HW255762   3.752   2.340   3.539  3.8110 -1.7764  0.9564
17624SOL     OW55763   6.392   1.928   2.763  0.1325  0.3439  0.1621
17624SOL    HW155764   6.373   1.950   2.672  1.0895 -1.0772 -0.4123
17624SOL    HW255765   6.381   1.833   2.769  2.4725  0.0362  0.8599
17625SOL     OW55766   4.589   7.546   7.368 -0.4880 -0.5558  0.0419
17625SOL    HW155767   4.500   7.544   7.404 -1.2825  2.5948 -1.4274
17625SOL    HW255768   4.578   7.524   7.276  0.6117 -2.1027  0.2385
17626SOL     OW55769   7.244   0.886   7.688 -0.5344  0.9486  0.0483
17626SOL    HW155770   7.166   0.908   7.739 -1.2388  0.8134 -0.9405
17626SOL    HW255771   7.210   0.850   7.606  0.5596  1.6091 -0.7241
17627SOL     OW55772   9.086   9.631   5.693  0.7969 -0.1868  0.6913
17627SOL    HW155773   9.054   9.664   5.610 -2.2414 -2.9860  0.5463
17627SOL    HW255774   9.048   9.543   5.701  0.8423 -0.0596  5.0376
17628SOL     OW55775   9.333   2.160   5.101 -0.2123  0.4310 -0.4162
17628SOL    HW155776   9.337   2.098   5.174  1.4288 -0.4082 -1.1644
17628SOL    HW255777   9.303   2.108   5.027 -0.9014  1.0466 -0.5809
17629SOL     OW55778   1.734   2.806   1.622  0.1303 -0.2158 -0.1102
17629SOL    HW155779   1.799   2.774   1.559 -0.0368  0.4485 -0.6243
17629SOL    HW255780   1.696   2.727   1.659  1.4639 -0.6258  0.4383
17630SOL     OW55781   4.179   5.122   6.528  0.3128 -0.1072 -0.5099
17630SOL    HW155782   4.087   5.094   6.520  0.2465 -0.8968  2.1687
17630SOL    HW255783   4.223   5.048   6.569  1.6933  1.0641  0.2100
17631SOL     OW55784   0.495   6.541   8.953 -0.1847 -0.4549  0.3217
17631SOL    HW155785   0.537   6.561   8.870 -0.2772 -0.9879  0.1414
17631SOL    HW255786   0.568   6.519   9.012 -0.0518  0.7085  0.6219
17632SOL     OW55787   2.989   0.771   0.254 -0.5559 -0.3017 -0.1183
17632SOL    HW155788   3.020   0.742   0.168  2.0082  1.3314  0.1632
17632SOL    HW255789   2.966   0.689   0.299  1.6529 -1.5288 -1.0588
17633SOL     OW55790   3.535   8.549   5.529  0.0984  0.1800  0.0510
17633SOL    HW155791   3.463   8.612   5.529 -0.0488  0.0225 -0.4426
17633SOL    HW255792   3.564   8.547   5.437  0.3224 -0.2202  0.1288
17634SOL     OW55793   0.116   2.036   5.598  0.5105  0.1227 -0.5659
17634SOL    HW155794   0.178   2.053   5.669  0.2523  0.7324 -0.4873
17634SOL    HW255795   0.149   2.085   5.523  0.5343 -0.1598 -0.7451
17635SOL     OW55796   8.668   9.485   0.651 -0.0705  0.2448 -0.0715
17635SOL    HW155797   8.592   9.455   0.602 -0.7222  0.3986  0.8312
17635SOL    HW255798   8.636   9.498   0.741  1.0055  0.3318  0.3149
17636SOL     OW55799   9.603   8.192   4.812  0.1404  0.0511 -0.3345
17636SOL    HW155800   9.698   8.194   4.819  0.2520  0.9426 -1.6474
17636SOL    HW255801   9.585   8.135   4.737 -0.3881 -0.5230  0.2184
17637SOL     OW55802   5.334   7.538   1.526 -0.0503 -0.1642  0.1502
17637SOL    HW155803   5.419   7.572   1.497 -0.5830 -1.4588 -3.4116
17637SOL    HW255804   5.342   7.443   1.519 -1.3203 -0.3991  1.3553
17638SOL     OW55805   6.822   1.881   5.069  0.2601  0.4899  0.4499
17638SOL    HW155806   6.763   1.955   5.080  0.5377  1.0196 -1.3373
17638SOL    HW255807   6.904   1.920   5.039  0.4549 -0.5292 -0.3861
17639SOL     OW55808   1.980   2.683   8.321  0.1019  0.0331  0.0521
17639SOL    HW155809   1.914   2.721   8.379  0.9436  0.6227  0.6428
17639SOL    HW255810   1.936   2.608   8.281 -1.4112  1.2145 -0.6485
17640SOL     OW55811   4.782   7.734   8.716 -0.0129  0.5166  0.1160
17640SOL    HW155812   4.845   7.690   8.773 -0.5514 -1.2737 -0.5878
17640SOL    HW255813   4.701   7.684   8.726 -1.2493  2.4934  0.6595
17641SOL     OW55814   8.568   3.711   8.513 -0.1269  0.1059  0.1627
17641SOL    HW155815   8.548   3.798   8.549 -2.4426 -1.0061  1.8287
17641SOL    HW255816   8.606   3.729   8.427 -0.4018  2.7601  0.5035
17642SOL     OW55817   5.226   5.357   7.038  0.1913  0.3422 -0.1828
17642SOL    HW155818   5.223   5.314   7.124 -0.5682  1.0954  0.1806
17642SOL    HW255819   5.228   5.450   7.059 -1.4589  0.5813 -1.0009
17643SOL     OW55820   0.580   2.844   2.346  0.0669  0.5377 -0.3318
17643SOL    HW155821   0.591   2.751   2.369 -0.9790  0.9272  1.9777
17643SOL    HW255822   0.494   2.848   2.304 -0.9856  0.7474  1.7204
17644SOL     OW55823   2.587   6.659   3.289 -0.4687  0.1358 -0.0637
17644SOL    HW155824   2.665   6.661   3.234 -1.8567  0.3550 -2.1060
17644SOL    HW255825   2.533   6.732   3.257 -1.9072 -0.5556  0.7048
17645SOL     OW55826   7.156   1.259   7.123 -0.0589 -0.2926 -0.0639
17645SOL    HW155827   7.113   1.341   7.097 -0.1315 -0.4763 -0.5374
17645SOL    HW255828   7.086   1.206   7.159  0.2960  0.5267  1.9389
17646SOL     OW55829   2.592   0.689   1.740 -0.1378 -0.4156  0.3733
17646SOL    HW155830   2.651   0.746   1.690 -0.8987  0.0386 -0.0209
17646SOL    HW255831   2.505   0.709   1.706 -0.6294 -0.4363  1.5603
17647SOL     OW55832   4.394   0.501   7.511 -0.2126  0.4982 -0.4816
17647SOL    HW155833   4.458   0.438   7.544  0.4689  1.9094  1.0466
17647SOL    HW255834   4.415   0.510   7.418 -0.1935 -1.3200 -0.6930
17648SOL     OW55835   6.240   4.459   7.792 -0.6695 -0.3992  0.2239
17648SOL    HW155836   6.214   4.367   7.791 -0.4803 -0.4514 -0.4143
17648SOL    HW255837   6.241   4.483   7.884  0.8047 -1.4637  0.5060
17649SOL     OW55838   1.805   8.308   6.153 -0.0629  0.3289  0.3051
17649SOL    HW155839   1.855   8.362   6.214  0.2505 -1.2895  1.5477
17649SOL    HW255840   1.716   8.307   6.189 -0.5014  1.3857 -0.6765
17650SOL     OW55841   8.388   0.309   1.325  0.2074  0.3145 -0.3999
17650SOL    HW155842   8.480   0.315   1.301  0.2459 -0.1317 -0.3659
17650SOL    HW255843   8.381   0.226   1.372 -0.4217 -0.1646 -1.3140
17651SOL     OW55844   9.586   6.347   2.691 -0.2374  0.5407 -0.2921
17651SOL    HW155845   9.660   6.338   2.631 -0.4791 -1.5197 -0.3389
17651SOL    HW255846   9.511   6.364   2.635 -0.1541  0.5511 -0.4016
17652SOL     OW55847   8.726   0.985   5.039 -0.0809  0.2452 -0.2238
17652SOL    HW155848   8.666   1.016   4.972 -1.0983  0.2443  0.6660
17652SOL    HW255849   8.811   0.978   4.995 -0.9185 -0.6324 -1.7452
17653SOL     OW55850   2.083   9.607   7.892 -0.1290  0.3130  0.6995
17653SOL    HW155851   2.158   9.549   7.881 -1.2835 -1.1098  0.0265
17653SOL    HW255852   2.065   9.605   7.986 -1.2474 -1.9212  0.4974
17654SOL     OW55853   7.409   4.085   1.493  0.2208 -0.2021 -0.1743
17654SOL    HW155854   7.478   4.113   1.433 -0.8717  1.4332 -0.7345
17654SOL    HW255855   7.417   4.145   1.568  0.9562 -1.6064  0.9215
17655SOL     OW55856   4.673   2.373   4.806 -0.0974 -0.4223 -0.6489
17655SOL    HW155857   4.618   2.350   4.732 -0.3505 -1.7719 -0.0621
17655SOL    HW255858   4.655   2.466   4.822 -2.0898 -0.7762 -0.5747
17656SOL     OW55859   0.835   0.917   1.350 -0.2542 -0.2850  0.5123
17656SOL    HW155860   0.913   0.865   1.368  0.6397  0.7802 -0.1839
17656SOL    HW255861   0.820   0.966   1.431  1.0460  1.0471 -0.0089
17657SOL     OW55862   7.953   4.069   3.181  0.6787  0.1223 -0.0012
17657SOL    HW155863   7.959   4.076   3.086  0.0731 -2.0280 -0.2507
17657SOL    HW255864   8.034   4.023   3.207  0.1023 -0.7482  0.3085
17658SOL     OW55865   6.070   2.640   0.377 -0.5573  0.3816  0.3997
17658SOL    HW155866   6.146   2.687   0.412  0.0785 -0.0241 -0.3967
17658SOL    HW255867   6.038   2.589   0.451  0.7427 -0.4331  0.4407
17659SOL     OW55868   8.158   5.732   5.459  0.0651 -0.4657 -0.0023
17659SOL    HW155869   8.213   5.811   5.457 -0.6189  0.0059 -0.7722
17659SOL    HW255870   8.068   5.766   5.453 -0.3509 -1.1953  1.6349
17660SOL     OW55871   2.215   8.115   4.913 -0.5180  0.2107  0.0876
17660SOL    HW155872   2.198   8.024   4.889  1.9480  0.1899 -2.0354
17660SOL    HW255873   2.311   8.121   4.915 -0.6115  2.8730 -0.2231
17661SOL     OW55874   0.823   6.012   2.636 -0.2294 -0.0415 -0.2251
17661SOL    HW155875   0.846   6.088   2.689  0.7304  0.2373 -1.0153
17661SOL    HW255876   0.788   5.949   2.698 -1.1671  1.0817  0.4380
17662SOL     OW55877   9.032   1.327   0.538 -0.5279  0.2254 -0.2782
17662SOL    HW155878   9.063   1.281   0.461  0.4799 -0.9766  0.8079
17662SOL    HW255879   9.046   1.266   0.610 -0.6837  1.6164  0.9772
17663SOL     OW55880   7.933   3.229   5.820 -0.2478 -0.8874  0.1669
17663SOL    HW155881   7.951   3.181   5.901  1.9110  0.1356  0.3792
17663SOL    HW255882   7.914   3.162   5.755 -0.9795 -1.7873  1.2765
17664SOL     OW55883   0.136   5.063   9.220 -0.1286 -0.3259  0.3913
17664SOL    HW155884   0.202   4.995   9.236  0.5766  0.6054  1.7468
17664SOL    HW255885   0.161   5.101   9.136 -0.9116 -2.1292 -0.6860
17665SOL     OW55886   4.642   8.422   2.604  0.1421  0.2594  0.0457
17665SOL    HW155887   4.690   8.342   2.582  0.1293 -0.0884  1.1846
17665SOL    HW255888   4.709   8.481   2.639  0.1399  0.7283 -0.7276
17666SOL     OW55889   7.432   8.510   2.715  0.0619  0.1942 -0.3509
17666SOL    HW155890   7.388   8.471   2.791 -1.0265  1.8968 -0.0598
17666SOL    HW255891   7.450   8.436   2.657 -1.4631 -0.8036  0.3987
17667SOL     OW55892   0.889   0.242   0.514 -0.3125  0.0232 -0.5506
17667SOL    HW155893   0.832   0.293   0.456 -0.5661 -0.4842 -0.7536
17667SOL    HW255894   0.851   0.154   0.513  0.5033 -0.3319 -0.7248
17668SOL     OW55895   2.885   9.067   8.502 -0.1946  0.3778  0.5795
17668SOL    HW155896   2.934   9.068   8.584 -1.5518  0.8022  1.4170
17668SOL    HW255897   2.919   8.991   8.454 -0.2159 -0.6068  2.0633
17669SOL     OW55898   5.482   0.453   9.460 -0.2407 -0.4092 -0.0846
17669SOL    HW155899   5.548   0.513   9.494  0.2153 -0.2128 -1.2587
17669SOL    HW255900   5.507   0.367   9.495 -0.0613 -0.1526  0.4292
17670SOL     OW55901   6.771   6.938   7.377 -0.1694 -0.4190  0.1322
17670SOL    HW155902   6.773   7.012   7.437 -2.4277 -0.3988  0.2545
17670SOL    HW255903   6.756   6.861   7.433  0.4565 -0.7703 -0.1632
17671SOL     OW55904   0.532   0.856   3.356 -0.0213 -0.0492 -0.1056
17671SOL    HW155905   0.468   0.871   3.426 -0.1721 -0.8711 -0.0609
17671SOL    HW255906   0.487   0.799   3.294 -0.1071  1.1677 -1.2003
17672SOL     OW55907   1.595   7.585   0.833  0.0250  0.7261 -0.0415
17672SOL    HW155908   1.668   7.645   0.823  0.1560  0.5127 -0.3716
17672SOL    HW255909   1.608   7.519   0.765 -0.7858  1.0046 -0.4724
17673SOL     OW55910   8.071   0.739   1.445 -1.0352 -0.2458 -0.0315
17673SOL    HW155911   7.996   0.715   1.392  0.0184 -1.6487 -0.9677
17673SOL    HW255912   8.126   0.790   1.385  0.0670 -1.6673 -0.2947
17674SOL     OW55913   7.996   2.104   4.840 -0.2946 -0.5743 -0.2392
17674SOL    HW155914   7.915   2.074   4.797  0.1856  1.5116 -2.8625
17674SOL    HW255915   8.064   2.090   4.775  1.1174 -0.2625  1.1143
17675SOL     OW55916   5.258   2.729   1.896  0.2184 -0.2226 -0.1502
17675SOL    HW155917   5.341   2.763   1.864 -0.3037  1.5834  0.3236
17675SOL    HW255918   5.226   2.795   1.957 -1.4218 -1.0212 -0.0774
17676SOL     OW55919   8.132   4.703   0.899 -0.4893 -0.4789 -0.0266
17676SOL    HW155920   8.103   4.727   0.811  0.4229 -1.8820 -0.7371
17676SOL    HW255921   8.051   4.692   0.949 -1.0152  2.5559 -0.0056
17677SOL     OW55922   7.872   5.530   8.823  0.1934  0.1474  0.2302
17677SOL    HW155923   7.886   5.599   8.759  1.2804  0.1233  0.4065
17677SOL    HW255924   7.817   5.466   8.779  1.5863 -0.2672 -0.9980
17678SOL     OW55925   6.904   4.881   5.773 -0.5240 -0.4889 -0.0635
17678SOL    HW155926   6.851   4.944   5.822 -1.1052 -0.8878 -0.1616
17678SOL    HW255927   6.990   4.923   5.765 -1.4761  1.2898 -2.0263
17679SOL     OW55928   2.160   2.540   2.760 -0.1464  0.0686 -0.1478
17679SOL    HW155929   2.246   2.520   2.798 -0.7376  1.3581  2.1105
17679SOL    HW255930   2.098   2.524   2.832 -1.2925  3.1497 -0.2934
17680SOL     OW55931   7.585   2.656   6.044 -1.0991  0.1693  0.6411
17680SOL    HW155932   7.515   2.627   6.102 -3.0738 -0.2328 -1.7396
17680SOL    HW255933   7.624   2.575   6.010 -0.9814  0.3636  0.3012
17681SOL     OW55934   1.104   0.534   3.838  0.6841 -0.2061  0.7466
17681SOL    HW155935   1.187   0.555   3.880 -0.1488  0.5044  2.1210
17681SOL    HW255936   1.040   0.535   3.909 -0.5601 -0.4470 -0.3187
17682SOL     OW55937   4.843   3.690   1.647 -0.3111  0.4147  0.1001
17682SOL    HW155938   4.765   3.636   1.644 -0.6453  0.7734  1.6532
17682SOL    HW255939   4.832   3.745   1.724  0.6363  1.7641 -0.6823
17683SOL     OW55940   5.959   5.411   3.374 -0.0550  0.1251  0.1079
17683SOL    HW155941   5.934   5.335   3.323 -0.2542  0.0480  0.3154
17683SOL    HW255942   5.906   5.483   3.338 -0.4794 -0.0091  0.4540
17684SOL     OW55943   6.874   8.909   7.441 -0.1426 -0.4646 -0.1470
17684SOL    HW155944   6.821   8.975   7.397  0.2020 -0.1475 -0.0934
17684SOL    HW255945   6.964   8.931   7.417  0.0195 -0.5250  0.3971
17685SOL     OW55946   8.281   6.929   7.701  0.3030  0.0969  0.3703
17685SOL    HW155947   8.212   6.993   7.720 -1.6258 -1.8811  0.3747
17685SOL    HW255948   8.279   6.919   7.606 -1.8297 -2.3974  0.5882
17686SOL     OW55949   3.857   9.130   0.480  0.1961  0.6937  0.0331
17686SOL    HW155950   3.862   9.064   0.411 -0.1194  1.1818 -0.4634
17686SOL    HW255951   3.837   9.211   0.434  0.4948  1.1209  0.6474
17687SOL     OW55952   9.249   4.438   3.334  0.2747  0.0352 -0.7445
17687SOL    HW155953   9.205   4.354   3.322  0.8853 -0.3312 -0.4354
17687SOL    HW255954   9.262   4.471   3.245 -1.4968  0.6185 -0.8266
17688SOL     OW55955   2.724   6.984   2.199  0.4922 -0.6632 -0.6808
17688SOL    HW155956   2.785   6.924   2.156  1.7703  0.0388  0.0941
17688SOL    HW255957   2.738   6.970   2.293 -0.4072 -0.3409 -0.4846
17689SOL     OW55958   3.881   8.131   3.639 -0.3046 -0.4388 -0.0698
17689SOL    HW155959   3.857   8.213   3.681  0.1541  0.0972 -0.8355
17689SOL    HW255960   3.976   8.125   3.648 -0.3671 -1.0371  0.2495
17690SOL     OW55961   2.806   5.675   1.466 -0.2475  0.0793 -0.2772
17690SOL    HW155962   2.859   5.661   1.388  0.4331  0.8168  0.0454
17690SOL    HW255963   2.716   5.675   1.434  0.0614  1.2004 -1.1941
17691SOL     OW55964   7.429   1.253   2.057 -0.5396  0.5325 -0.1071
17691SOL    HW155965   7.452   1.191   1.987 -0.1362  1.0651 -0.4551
17691SOL    HW255966   7.407   1.198   2.132 -0.7927 -0.0420 -0.5985
17692SOL     OW55967   6.431   1.638   9.086  0.1754 -0.1509  0.2223
17692SOL    HW155968   6.406   1.579   9.158  0.3723 -0.1466  0.2954
17692SOL    HW255969   6.394   1.723   9.111  0.1975 -0.1621  0.2937
17693SOL     OW55970   1.077   6.116   5.116  0.0063 -0.0083  0.1440
17693SOL    HW155971   1.131   6.178   5.068  0.6653  0.4093  1.3954
17693SOL    HW255972   0.987   6.140   5.094  0.2823  0.6704 -0.2659
17694SOL     OW55973   4.037   4.279   5.838  0.1693 -0.0187  0.1396
17694SOL    HW155974   4.030   4.325   5.754  0.4479  0.6139  0.4504
17694SOL    HW255975   4.042   4.187   5.815  0.5191  0.1683 -0.5554
17695SOL     OW55976   3.880   7.070   5.154  0.7323  0.3252  0.3406
17695SOL    HW155977   3.852   7.102   5.240 -1.0662  2.6503 -0.9918
17695SOL    HW255978   3.801   7.032   5.116  0.0911  3.6857 -2.0747
17696SOL     OW55979   7.487   7.801   1.617 -0.0519  0.4762 -0.1496
17696SOL    HW155980   7.452   7.739   1.681 -0.4711  0.4004 -0.4524
17696SOL    HW255981   7.432   7.878   1.624  0.1000  0.5900 -0.1944
17697SOL     OW55982   4.453   2.749   1.952  0.0025 -0.4917  0.3770
17697SOL    HW155983   4.395   2.718   2.023  1.6618  0.1929  2.1211
17697SOL    HW255984   4.508   2.673   1.932  0.1857 -0.4001  0.5287
17698SOL     OW55985   0.182   2.411   6.515  0.1167  0.5330  0.2700
17698SOL    HW155986   0.271   2.407   6.481  1.4288  0.2934  3.3751
17698SOL    HW255987   0.127   2.384   6.442  2.5492  0.7900 -1.7931
17699SOL     OW55988   0.640   1.730   8.469 -0.2363 -0.3344  0.2713
17699SOL    HW155989   0.607   1.785   8.540  1.7870  0.6176  0.5727
17699SOL    HW255990   0.701   1.786   8.421  0.5718 -1.7832 -0.4976
17700SOL     OW55991   5.922   1.864   4.327 -0.1819 -0.1962 -0.2073
17700SOL    HW155992   5.897   1.790   4.382 -2.6439  0.5167 -0.2391
17700SOL    HW255993   5.856   1.866   4.258 -1.5411  3.2046  0.9607
17701SOL     OW55994   4.401   2.483   4.128  0.5548  0.1529 -0.1763
17701SOL    HW155995   4.317   2.473   4.081  0.5381  1.0123 -0.3428
17701SOL    HW255996   4.376   2.490   4.220  0.5596 -1.1220 -0.0564
17702SOL     OW55997   3.067   7.837   5.126 -0.1947  0.0046  0.3668
17702SOL    HW155998   3.131   7.837   5.196  0.7653  0.6298 -0.4811
17702SOL    HW255999   3.000   7.899   5.153  0.6485  0.9519  0.3189
17703SOL     OW56000   3.362   0.466   3.898  0.0518 -0.2663  0.2767
17703SOL    HW156001   3.448   0.468   3.939  0.5416  0.3128 -0.7556
17703SOL    HW256002   3.380   0.466   3.804 -1.0616 -0.8546  0.0468
17704SOL     OW56003   0.920   3.608   9.150 -0.2584  0.2948 -0.4718
17704SOL    HW156004   0.936   3.514   9.157  0.3224  0.3497 -0.9277
17704SOL    HW256005   1.006   3.646   9.131  0.0163  1.2068  2.1506
17705SOL     OW56006   6.726   4.147   9.155 -0.2618  0.5683  0.2374
17705SOL    HW156007   6.676   4.074   9.117 -0.2328  0.4975  0.3346
17705SOL    HW256008   6.803   4.105   9.193 -0.0316  0.6989 -0.0801
17706SOL     OW56009   8.305   1.907   2.600  0.3358  0.1606  0.5914
17706SOL    HW156010   8.320   1.923   2.507  0.4209  2.1670  0.9183
17706SOL    HW256011   8.391   1.886   2.636  0.5746  0.9590  0.4959
17707SOL     OW56012   4.211   6.747   2.043 -0.1450 -0.6794  0.0800
17707SOL    HW156013   4.141   6.682   2.035 -0.5088 -0.2497 -0.3220
17707SOL    HW256014   4.258   6.741   1.959  0.2892 -0.9471  0.3371
17708SOL     OW56015   3.677   4.641   7.726  0.0932  0.1704 -0.2331
17708SOL    HW156016   3.762   4.602   7.705 -1.0695 -2.3594 -0.6722
17708SOL    HW256017   3.645   4.589   7.800 -1.5851  0.2184 -0.8817
17709SOL     OW56018   4.027   3.698   5.677 -0.1600 -0.4118 -0.5582
17709SOL    HW156019   4.018   3.790   5.704  0.7451 -0.1451 -1.1360
17709SOL    HW256020   3.980   3.692   5.594 -0.2212 -0.4744 -0.5193
17710SOL     OW56021   6.941   5.509   0.439 -0.0245  0.1438  0.0655
17710SOL    HW156022   6.985   5.574   0.385 -0.1401  0.5821  0.4867
17710SOL    HW256023   6.972   5.425   0.406  0.9551  0.4362  0.1995
17711SOL     OW56024   1.400   7.910   6.627 -0.3152  0.0396  0.7398
17711SOL    HW156025   1.372   7.883   6.540 -0.5967  1.7510  0.2686
17711SOL    HW256026   1.322   7.903   6.681 -0.3178 -0.3344  0.6885
17712SOL     OW56027   0.385   5.001   0.145 -0.1863  0.0263 -0.3059
17712SOL    HW156028   0.354   5.014   0.055 -1.3373 -0.4395  0.0052
17712SOL    HW256029   0.312   4.960   0.190  0.5337 -0.1492  0.7467
17713SOL     OW56030   6.203   8.263   6.579  0.6237 -0.2546 -0.0295
17713SOL    HW156031   6.296   8.260   6.602  0.1842 -0.5313  1.9099
17713SOL    HW256032   6.186   8.355   6.561  1.3771 -0.2831 -0.9861
17714SOL     OW56033   4.769   1.438   7.963  0.2345  0.2311 -0.9030
17714SOL    HW156034   4.788   1.347   7.989 -1.6111 -0.4276 -1.6723
17714SOL    HW256035   4.845   1.464   7.911  1.2292 -0.5223  0.1267
17715SOL     OW56036   3.714   9.604   3.887 -0.4082  0.7736  0.2247
17715SOL    HW156037   3.684   9.516   3.908 -0.8750  1.2559  1.6621
17715SOL    HW256038   3.642   9.661   3.912 -0.4680  1.5266 -1.4996
17716SOL     OW56039   3.573   4.705   6.050 -0.7176  0.1183  0.4391
17716SOL    HW156040   3.525   4.768   6.104 -0.2757 -0.1700  1.1968
17716SOL    HW256041   3.596   4.635   6.111 -1.0902 -0.7195 -0.3675
17717SOL     OW56042   8.801   2.577   4.666 -0.3064 -0.3086 -0.3534
17717SOL    HW156043   8.772   2.506   4.609 -0.3488 -0.7410  0.1925
17717SOL    HW256044   8.868   2.537   4.721 -0.2812  0.0952 -0.0861
17718SOL     OW56045   2.775   0.280   8.342 -0.1757 -0.1803 -0.8798
17718SOL    HW156046   2.777   0.211   8.275  0.7454 -1.0399 -0.0078
17718SOL    HW256047   2.826   0.244   8.415 -2.0487  0.2793  0.7362
17719SOL     OW56048   9.552   5.479   2.504  0.3198  0.3824 -0.4237
17719SOL    HW156049   9.498   5.522   2.570  1.3218 -1.2147  1.5574
17719SOL    HW256050   9.601   5.549   2.462 -0.8919  1.5118 -0.0226
17720SOL     OW56051   8.550   4.928   7.801 -0.2740  0.2928  0.0928
17720SOL    HW156052   8.554   4.913   7.895 -1.3946 -0.3998  0.0474
17720SOL    HW256053   8.486   4.865   7.769  0.9040 -0.2463 -1.3096
17721SOL     OW56054   2.530   5.294   3.633  0.2047  0.3966 -0.2201
17721SOL    HW156055   2.614   5.340   3.624  0.7654 -0.5178  0.1548
17721SOL    HW256056   2.535   5.251   3.718 -0.1080 -0.7213 -0.7433
17722SOL     OW56057   5.335   9.611   4.510  0.5314  0.3221 -0.5382
17722SOL    HW156058   5.342   9.558   4.431 -1.6413 -1.7020  0.5366
17722SOL    HW256059   5.329   9.701   4.477 -1.2617 -0.5177 -2.7715
17723SOL     OW56060   8.025   6.997   2.573  0.0846 -0.3177  0.6100
17723SOL    HW156061   8.065   6.968   2.492 -0.6439 -1.8473  0.7766
17723SOL    HW256062   8.019   7.093   2.564 -0.9972 -0.5370 -1.6103
17724SOL     OW56063   6.481   5.175   5.689 -0.8381  0.3603 -0.3842
17724SOL    HW156064   6.458   5.161   5.597 -1.9203  1.5730 -0.3230
17724SOL    HW256065   6.442   5.101   5.735 -1.2989  0.3628 -0.7667
17725SOL     OW56066   3.118   5.372   4.695  0.3081  0.2546 -0.1142
17725SOL    HW156067   3.085   5.354   4.782  1.6669 -0.9811  0.1798
17725SOL    HW256068   3.203   5.329   4.692 -0.4548 -1.2922 -2.6418
17726SOL     OW56069   7.420   2.577   6.719 -0.0591  0.1728  0.3656
17726SOL    HW156070   7.336   2.582   6.674 -1.5934  0.0688  3.0362
17726SOL    HW256071   7.437   2.483   6.727  0.2485  0.1918 -0.0657
17727SOL     OW56072   7.452   2.297   1.455 -0.0581 -0.1512  0.5288
17727SOL    HW156073   7.474   2.320   1.364 -2.8648  1.5192  0.1431
17727SOL    HW256074   7.448   2.202   1.456  0.6228 -0.2231 -0.9407
17728SOL     OW56075   9.509   6.456   1.383 -0.3199 -0.4706  0.6026
17728SOL    HW156076   9.567   6.451   1.307  1.8074 -0.7733  2.1434
17728SOL    HW256077   9.539   6.533   1.431 -1.0260 -0.7842  1.5841
17729SOL     OW56078   2.504   2.038   4.478  0.4822  0.0694  0.8018
17729SOL    HW156079   2.477   1.961   4.429  0.3762 -0.9344  2.3788
17729SOL    HW256080   2.424   2.073   4.516  0.6175  0.5994  0.6168
17730SOL     OW56081   5.718   1.992   7.830 -0.2716 -0.6501  0.0439
17730SOL    HW156082   5.744   1.962   7.743  0.6339 -2.4528  0.8931
17730SOL    HW256083   5.764   1.934   7.891 -1.5913 -0.0256  1.7223
17731SOL     OW56084   9.056   2.613   7.219 -0.2818 -0.0751 -0.2701
17731SOL    HW156085   8.972   2.621   7.175  0.1005  1.1543 -0.8312
17731SOL    HW256086   9.066   2.520   7.237 -1.0013 -0.4433 -1.7081
17732SOL     OW56087   9.147   1.317   4.931 -0.4160 -0.2720 -0.5246
17732SOL    HW156088   9.098   1.325   5.013 -1.7164  1.5828 -1.4170
17732SOL    HW256089   9.180   1.405   4.914 -0.8772 -0.4290 -2.4012
17733SOL     OW56090   0.491   4.365   4.534 -0.3724 -0.2461  0.2015
17733SOL    HW156091   0.465   4.314   4.611 -0.2106  1.4603  1.4440
17733SOL    HW256092   0.534   4.442   4.571  1.0424 -0.0841 -1.6555
17734SOL     OW56093   8.948   7.126   5.186 -0.4575 -0.0654  0.3662
17734SOL    HW156094   9.032   7.093   5.155 -0.1972  0.0378  0.9409
17734SOL    HW256095   8.895   7.136   5.107  0.2028  0.2443 -0.0509
17735SOL     OW56096   8.319   2.519   0.011  0.6929 -0.3203  0.4393
17735SOL    HW156097   8.376   2.455   0.054 -1.1154 -1.5124  1.2073
17735SOL    HW256098   8.285   2.472  -0.066  1.1804  0.5775 -0.3401
17736SOL     OW56099   3.005   6.858   6.972 -0.6611  0.4329  0.1615
17736SOL    HW156100   2.979   6.949   6.991 -0.6889  0.3887  0.3368
17736SOL    HW256101   2.962   6.806   7.040  1.0804  0.5061  1.4089
17737SOL     OW56102   3.859   6.423   7.660  0.2369 -0.4022  0.2171
17737SOL    HW156103   3.869   6.414   7.566 -0.4541  1.8630 -0.1343
17737SOL    HW256104   3.802   6.498   7.671  1.6670  0.4697  2.4650
17738SOL     OW56105   3.682   3.990   2.730  0.2666 -0.8089  0.2918
17738SOL    HW156106   3.679   3.899   2.761  0.4943 -0.2925  1.9306
17738SOL    HW256107   3.599   4.028   2.759  0.3697 -0.3758  0.0210
17739SOL     OW56108   3.349   4.932   2.052 -0.3014 -0.2578  0.3104
17739SOL    HW156109   3.418   4.933   1.985 -2.6702  3.2719 -2.4493
17739SOL    HW256110   3.298   4.853   2.033  1.1221 -1.2330  0.3938
17740SOL     OW56111   4.201   8.480   3.953 -0.0141 -0.3424  0.2799
17740SOL    HW156112   4.112   8.445   3.949 -0.4785  0.5575  1.7607
17740SOL    HW256113   4.224   8.475   4.046  0.5823  1.5240  0.2819
17741SOL     OW56114   5.578   3.715   6.364 -0.8992 -0.6222  0.6454
17741SOL    HW156115   5.616   3.691   6.448  1.2700  1.1323  0.2772
17741SOL    HW256116   5.618   3.655   6.301  0.4170  0.4133  0.4338
17742SOL     OW56117   8.464   8.973   4.170 -0.5202 -0.1214 -0.4564
17742SOL    HW156118   8.414   9.030   4.112  1.3143  0.0967 -1.9039
17742SOL    HW256119   8.400   8.908   4.200 -1.8021  0.4965 -1.7176
17743SOL     OW56120   2.660   2.033   7.564 -0.2227 -0.1680  0.0288
17743SOL    HW156121   2.716   2.030   7.486 -0.9821 -0.7074 -0.5118
17743SOL    HW256122   2.710   1.986   7.631  0.8476  1.1105  0.1592
17744SOL     OW56123   8.798   5.071   9.548 -0.4542 -0.1802 -0.4375
17744SOL    HW156124   8.841   4.985   9.552  2.0202  1.0484  1.5702
17744SOL    HW256125   8.791   5.099   9.639 -1.1151  1.8151 -1.0464
17745SOL     OW56126   7.183   4.248   6.288  0.2733 -0.0301 -0.2377
17745SOL    HW156127   7.150   4.306   6.219 -1.5905  0.5620  1.0685
17745SOL    HW256128   7.278   4.259   6.286  0.6134 -1.8845 -4.2693
17746SOL     OW56129   9.006   8.222   5.676 -0.2396 -0.2654 -0.2255
17746SOL    HW156130   8.935   8.195   5.735 -0.2040 -0.3296 -0.2123
17746SOL    HW256131   9.065   8.147   5.674 -0.9767 -0.8607 -1.4953
17747SOL     OW56132   0.983   4.794   5.084  0.0651  0.1506 -0.1613
17747SOL    HW156133   0.900   4.830   5.115 -0.4385  0.0159 -1.2989
17747SOL    HW256134   1.041   4.870   5.075 -0.3244  0.4047 -0.5376
17748SOL     OW56135   2.005   6.297   3.930  0.1103  0.1543  0.5104
17748SOL    HW156136   1.980   6.300   3.837  0.4113  1.1585  0.4423
17748SOL    HW256137   2.063   6.222   3.937 -0.3667 -0.2685 -0.0005
17749SOL     OW56138   0.021   2.565   5.966  0.1349 -0.0948  0.1144
17749SOL    HW156139   0.033   2.654   5.932 -3.4167  0.4472 -0.1854
17749SOL    HW256140   0.010   2.576   6.060  1.6305 -0.5199  0.3595
17750SOL     OW56141   4.873   1.547   2.501  0.3792  0.2754  0.4548
17750SOL    HW156142   4.883   1.457   2.472 -1.0896 -0.3086  1.6582
17750SOL    HW256143   4.782   1.569   2.481  0.5417  1.2740  0.7642
17751SOL     OW56144   2.347   6.182   7.324  0.2841 -0.0323  0.3720
17751SOL    HW156145   2.258   6.202   7.295  0.2454  0.5099  0.8284
17751SOL    HW256146   2.346   6.088   7.343  0.2892 -0.3875 -1.2370
17752SOL     OW56147   3.863   8.007   9.583 -0.0198 -0.2300  0.1743
17752SOL    HW156148   3.941   8.063   9.579 -0.4537  0.3527 -2.7994
17752SOL    HW256149   3.886   7.932   9.527 -1.6811  0.1513 -1.0845
17753SOL     OW56150   2.838   1.779   6.070 -0.1036 -0.0135 -0.4238
17753SOL    HW156151   2.776   1.823   6.012  1.9539  2.3882 -0.9658
17753SOL    HW256152   2.895   1.730   6.012  1.4113  1.6849 -0.4654
17754SOL     OW56153   4.438   2.408   8.815  0.6156  0.6522 -0.0190
17754SOL    HW156154   4.378   2.388   8.886 -1.8626  0.1251 -2.1110
17754SOL    HW256155   4.482   2.489   8.842 -1.3196  1.2720  1.4815
17755SOL     OW56156   0.538   8.728   0.969  0.0293  0.2262 -0.3525
17755SOL    HW156157   0.626   8.698   0.947 -0.6518 -1.3186 -1.1026
17755SOL    HW256158   0.525   8.807   0.917  1.1830  0.8236  0.2371
17756SOL     OW56159   1.482   9.436   4.030  0.1944  0.2159  0.3063
17756SOL    HW156160   1.501   9.390   3.948 -1.8395 -0.3747  0.1214
17756SOL    HW256161   1.551   9.502   4.036  2.0702 -1.5352 -0.4141
17757SOL     OW56162   8.683   5.409   9.185 -0.1684 -0.2043 -0.3634
17757SOL    HW156163   8.591   5.421   9.209  0.1523  0.4007  0.6297
17757SOL    HW256164   8.728   5.396   9.268  0.7145 -0.0039 -0.7986
17758SOL     OW56165   0.221   0.932   0.021 -0.0702 -0.0694 -0.0059
17758SOL    HW156166   0.178   0.848   0.034  0.1539 -0.1106  0.4833
17758SOL    HW256167   0.239   0.936  -0.073 -1.3755  0.0626 -0.2632
17759SOL     OW56168   7.408   4.009   9.343 -0.8379  0.3625 -0.4813
17759SOL    HW156169   7.346   3.936   9.345 -1.0484  0.5195  2.1598
17759SOL    HW256170   7.494   3.968   9.351 -0.8897  0.3321 -0.0441
17760SOL     OW56171   3.606   2.124   9.011 -0.5524  0.0406 -0.2338
17760SOL    HW156172   3.555   2.044   8.999 -0.9993  0.1355  0.8849
17760SOL    HW256173   3.545   2.195   8.989 -0.1445  0.0896 -1.2664
17761SOL     OW56174   9.179   8.345   6.040  0.6356  0.3819 -0.4555
17761SOL    HW156175   9.237   8.411   6.078  0.1955  1.3289 -1.3305
17761SOL    HW256176   9.236   8.273   6.016  1.0949  0.3144  0.7907
17762SOL     OW56177   5.381   7.574   0.840  0.2485  0.0934 -0.5253
17762SOL    HW156178   5.290   7.591   0.867 -0.3218 -1.5016 -1.2923
17762SOL    HW256179   5.430   7.572   0.922 -0.3936  1.0234 -0.0989
17763SOL     OW56180   0.340   0.616   4.990 -0.5001 -0.2544  0.9474
17763SOL    HW156181   0.364   0.678   5.059  1.0025  0.9904 -0.6273
17763SOL    HW256182   0.424   0.591   4.950 -1.3269 -1.0334 -0.3643
17764SOL     OW56183   6.106   1.352   2.581  0.6386 -0.1056  0.6080
17764SOL    HW156184   6.101   1.431   2.634  1.0171  2.0243 -2.3295
17764SOL    HW256185   6.198   1.345   2.557 -0.0217  1.1000 -2.6380
17765SOL     OW56186   3.958   8.544   4.942 -0.4360  0.2705 -0.3842
17765SOL    HW156187   4.042   8.552   4.897 -0.6716  2.0475 -0.5566
17765SOL    HW256188   3.932   8.634   4.963 -0.7306 -0.4013  2.5937
17766SOL     OW56189   7.169   6.213   0.086 -0.5771 -0.0506  0.3096
17766SOL    HW156190   7.173   6.283   0.020 -2.3007 -1.8660 -1.8670
17766SOL    HW256191   7.184   6.258   0.169  0.3735  2.5688 -1.1650
17767SOL     OW56192   1.635   8.941   0.546  0.0268 -0.5159 -0.2272
17767SOL    HW156193   1.717   8.906   0.510  0.1209 -0.1082 -0.4114
17767SOL    HW256194   1.647   9.035   0.547 -0.6164 -0.4201 -0.6786
17768SOL     OW56195   9.332   0.965   2.815  0.0312 -0.1394  0.1283
17768SOL    HW156196   9.402   0.999   2.869 -0.1618 -1.4139  1.2241
17768SOL    HW256197   9.256   1.019   2.837 -0.8103 -2.3734  3.3910
17769SOL     OW56198   4.362   6.451   9.228  0.1469 -0.3252  0.0917
17769SOL    HW156199   4.423   6.379   9.214  0.4001 -0.2814  0.9253
17769SOL    HW256200   4.308   6.423   9.301 -0.3936 -0.0779 -0.2098
17770SOL     OW56201   2.016   3.023   1.009 -0.1862  0.0355 -0.5208
17770SOL    HW156202   2.038   2.937   1.044 -0.0836  0.0672 -0.5077
17770SOL    HW256203   2.019   3.081   1.085 -1.6227 -0.1939 -0.2627
17771SOL     OW56204   6.701   1.142   0.266  0.0568 -0.4315 -0.1047
17771SOL    HW156205   6.699   1.178   0.177  1.6294  1.0145  0.3966
17771SOL    HW256206   6.686   1.048   0.254  0.8391 -0.3647 -1.9576
17772SOL     OW56207   0.939   5.224   3.528  0.2592 -0.6399  0.1156
17772SOL    HW156208   0.942   5.130   3.507 -0.6044 -0.3469 -1.5184
17772SOL    HW256209   1.023   5.258   3.497 -0.2386 -0.5483 -1.1920
17773SOL     OW56210   9.402   9.023   9.338 -0.0695 -0.4873 -0.4246
17773SOL    HW156211   9.388   8.960   9.268  0.8204 -2.8605  1.3742
17773SOL    HW256212   9.488   9.000   9.374  0.8141  2.5257 -0.3567
17774SOL     OW56213   8.597   4.506   2.697 -0.3620 -0.3244  0.1347
17774SOL    HW156214   8.503   4.498   2.713 -1.0709  1.8070 -2.1470
17774SOL    HW256215   8.617   4.598   2.717  1.0962 -0.5953  0.0368
17775SOL     OW56216   5.270   2.095   4.832 -0.0300  0.0488 -0.1080
17775SOL    HW156217   5.298   2.012   4.872 -0.6724  0.5192  1.3992
17775SOL    HW256218   5.265   2.076   4.738  1.4133 -1.1523  0.0221
17776SOL     OW56219   7.085   0.598   0.362  0.0287 -0.4067  0.5592
17776SOL    HW156220   7.010   0.654   0.343  0.3402 -0.2562 -0.2626
17776SOL    HW256221   7.086   0.591   0.457 -0.1599  0.7828  0.6616
17777SOL     OW56222   9.204   4.044   5.441  0.1745  0.6844  0.3285
17777SOL    HW156223   9.230   3.975   5.502  0.0201 -0.2193 -0.6027
17777SOL    HW256224   9.111   4.028   5.424  0.8039 -0.8179 -2.2523
17778SOL     OW56225   4.586   5.107   3.548 -0.2818  0.4220  0.6809
17778SOL    HW156226   4.614   5.165   3.619  0.9852 -0.1086  0.6415
17778SOL    HW256227   4.610   5.154   3.468  0.4053  0.0289  0.6458
17779SOL     OW56228   1.585   8.710   0.346  0.0281 -0.0090 -0.4426
17779SOL    HW156229   1.621   8.628   0.379  1.3123  0.3869 -0.8096
17779SOL    HW256230   1.603   8.773   0.415 -0.2580  0.1316 -0.4947
17780SOL     OW56231   4.437   4.048   9.574 -0.2597 -0.3731  0.3313
17780SOL    HW156232   4.418   3.996   9.496  1.2782 -1.1299  0.4308
17780SOL    HW256233   4.354   4.051   9.622 -0.5866 -2.0469 -0.0831
17781SOL     OW56234   4.157   8.139   8.780  0.0722 -0.4941  0.3965
17781SOL    HW156235   4.112   8.201   8.838 -1.8509 -2.3969  1.0884
17781SOL    HW256236   4.239   8.119   8.825 -0.4101 -0.2883  1.3915
17782SOL     OW56237   5.071   6.360   0.186 -0.1657 -0.4867 -0.8083
17782SOL    HW156238   4.976   6.372   0.185 -0.1350 -0.2611 -1.1132
17782SOL    HW256239   5.087   6.300   0.259 -0.3049  1.2957  0.7413
17783SOL     OW56240   1.236   2.613   7.084 -0.2296 -0.2241  0.9333
17783SOL    HW156241   1.155   2.616   7.136 -1.6742 -0.2236 -1.1861
17783SOL    HW256242   1.271   2.525   7.101 -0.9829 -0.4464  1.4267
17784SOL     OW56243   4.906   6.903   2.806  0.5782 -0.1740 -0.0445
17784SOL    HW156244   4.991   6.865   2.782  0.1661 -1.2532  0.1315
17784SOL    HW256245   4.849   6.827   2.818 -0.0749  0.4731  1.1244
17785SOL     OW56246   5.985   0.675   6.556  0.8315  0.5408  0.6869
17785SOL    HW156247   6.067   0.627   6.566  0.3429 -1.0219 -1.8304
17785SOL    HW256248   5.918   0.606   6.551 -0.5533  1.7373  1.7687
17786SOL     OW56249   3.183   1.903   6.906 -0.5413  0.4201  0.1077
17786SOL    HW156250   3.238   1.870   6.836  1.2852 -0.1290  1.7186
17786SOL    HW256251   3.222   1.987   6.930  0.7356 -0.6841  2.3269
17787SOL     OW56252   6.642   3.854   6.979 -0.9856 -0.0950  0.0945
17787SOL    HW156253   6.557   3.880   7.013 -1.1988  0.2798 -0.6912
17787SOL    HW256254   6.682   3.936   6.950 -1.1493 -0.4667 -1.2707
17788SOL     OW56255   5.841   4.447   8.588 -0.2102  0.3272  0.0696
17788SOL    HW156256   5.787   4.411   8.658 -1.0399 -0.1392 -0.7808
17788SOL    HW256257   5.782   4.453   8.513  1.3061 -1.7503 -1.3912
17789SOL     OW56258   4.736   3.771   0.816  0.0770 -0.7410  0.2662
17789SOL    HW156259   4.824   3.800   0.791 -0.3661 -0.0366 -0.5110
17789SOL    HW256260   4.689   3.851   0.838 -1.6625 -0.5320 -3.4432
17790SOL     OW56261   6.433   9.507   6.435  0.2573  0.3088 -0.0263
17790SOL    HW156262   6.368   9.439   6.449  1.1473 -0.6804 -0.5885
17790SOL    HW256263   6.423   9.531   6.343  1.2946 -0.5246 -0.3773
17791SOL     OW56264   9.365   2.609   1.154 -0.2155 -0.0652 -0.2239
17791SOL    HW156265   9.319   2.527   1.138 -1.4626 -0.2516  3.3632
17791SOL    HW256266   9.356   2.658   1.072 -0.8384 -2.8062 -1.9233
17792SOL     OW56267   3.081   6.650   4.315 -0.5958  0.1990 -0.2275
17792SOL    HW156268   3.104   6.640   4.222 -0.3838  1.6820 -0.3560
17792SOL    HW256269   3.003   6.596   4.325  1.3623 -2.8915 -0.3745
17793SOL     OW56270   9.409   7.614   6.877  0.4544  0.4099 -0.4308
17793SOL    HW156271   9.499   7.623   6.909  0.4278  2.9685 -0.8885
17793SOL    HW256272   9.418   7.586   6.787  0.8790  1.6220 -0.7880
17794SOL     OW56273   8.128   0.834   0.032  0.0288  0.0141  0.0955
17794SOL    HW156274   8.165   0.917   0.062  0.8295  0.1843 -1.2901
17794SOL    HW256275   8.043   0.829   0.074 -0.3006  1.8506 -0.2729
17795SOL     OW56276   2.941   8.804   4.333  0.0168  0.5759  0.0479
17795SOL    HW156277   2.890   8.840   4.406 -0.7734  1.6377 -1.0023
17795SOL    HW256278   2.934   8.710   4.343 -1.2552  0.7128  0.5441
17796SOL     OW56279   8.048   5.941   4.112 -0.1057  0.6370 -0.2610
17796SOL    HW156280   8.009   5.895   4.038  1.6787 -0.9108 -0.3133
17796SOL    HW256281   8.031   6.034   4.095 -2.9405  0.1278 -0.6670
17797SOL     OW56282   5.565   6.118   7.933 -0.0941 -0.2416  0.2136
17797SOL    HW156283   5.508   6.174   7.881 -0.0423 -0.0772  0.3360
17797SOL    HW256284   5.569   6.160   8.019  1.0647  0.3134 -0.0969
17798SOL     OW56285   1.548   3.413   6.174 -0.3661 -0.1276 -0.0599
17798SOL    HW156286   1.631   3.459   6.193 -1.3593  0.8508  2.4139
17798SOL    HW256287   1.556   3.386   6.083  1.1997  3.1310 -1.0608
17799SOL     OW56288   8.229   5.016   0.553  0.0609  0.0036  0.2867
17799SOL    HW156289   8.282   5.078   0.503  1.6687 -1.2784  0.3037
17799SOL    HW256290   8.193   5.068   0.625 -0.2095  1.3100 -0.7517
17800SOL     OW56291   8.788   2.281   9.488  0.4991 -0.0337 -0.0586
17800SOL    HW156292   8.697   2.309   9.481 -0.1723 -1.9674  0.1668
17800SOL    HW256293   8.811   2.298   9.580 -0.3730 -1.4805  0.4600
17801SOL     OW56294   6.721   1.490   9.367 -0.8638 -0.0174  0.4358
17801SOL    HW156295   6.764   1.519   9.287 -0.4124  0.2673  0.7774
17801SOL    HW256296   6.696   1.571   9.411  0.7814 -0.0876  1.6048
17802SOL     OW56297   6.671   1.726   2.177  0.1329  0.0001 -0.6712
17802SOL    HW156298   6.656   1.641   2.219 -2.5678  1.5179  1.6700
17802SOL    HW256299   6.753   1.757   2.215 -0.0997 -0.5260  0.2957
17803SOL     OW56300   5.988   5.605   4.949  0.4735  0.1472  0.0192
17803SOL    HW156301   6.033   5.661   4.886 -0.7707  0.0771 -0.9652
17803SOL    HW256302   6.034   5.521   4.944 -0.1826 -0.1425 -1.4975
17804SOL     OW56303   2.064   7.411   3.952  0.0014  0.7062 -0.3558
17804SOL    HW156304   2.036   7.368   3.872 -0.1017  0.5424 -0.2313
17804SOL    HW256305   2.143   7.459   3.927  1.1797 -1.0140 -0.0705
17805SOL     OW56306   8.042   9.534   9.241  0.5436  0.2465 -0.0266
17805SOL    HW156307   8.063   9.627   9.238  0.4015  0.2670 -0.5136
17805SOL    HW256308   8.126   9.490   9.231  0.6093  0.3196  0.1940
17806SOL     OW56309   7.608   8.295   3.079  0.0812 -0.0163  0.6442
17806SOL    HW156310   7.583   8.204   3.094 -1.2792 -0.3362 -2.5796
17806SOL    HW256311   7.611   8.334   3.166 -1.1993 -2.6541  2.0082
17807SOL     OW56312   4.181   4.139   5.407  0.0102  0.4485 -0.5747
17807SOL    HW156313   4.136   4.061   5.375 -0.1325  0.2454  0.1102
17807SOL    HW256314   4.152   4.209   5.348 -0.4758  0.1372 -0.7098
17808SOL     OW56315   5.192   6.030   1.336 -0.1918 -0.3422 -0.3177
17808SOL    HW156316   5.198   6.098   1.403  0.8659  0.5007 -1.2281
17808SOL    HW256317   5.103   6.039   1.301 -0.2028  0.2873 -0.1392
17809SOL     OW56318   8.081   3.682   6.574 -0.3035 -0.1228 -0.0579
17809SOL    HW156319   8.127   3.606   6.541  1.5372  1.3484 -1.0774
17809SOL    HW256320   8.047   3.726   6.496  0.6849  1.2884  0.2556
17810SOL     OW56321   4.226   2.717   2.085 -0.0069 -0.0806 -0.4787
17810SOL    HW156322   4.194   2.761   2.164 -3.0437 -0.1230 -1.5419
17810SOL    HW256323   4.207   2.625   2.100 -1.1377 -0.0235 -1.4438
17811SOL     OW56324   3.926   3.948   2.121  0.1430 -0.2518  0.4623
17811SOL    HW156325   3.864   4.004   2.168  1.2563  0.4551  1.1406
17811SOL    HW256326   3.933   3.870   2.175  0.5947  0.1008  0.9304
17812SOL     OW56327   9.328   0.123   8.651 -0.8209  0.4354 -0.1660
17812SOL    HW156328   9.424   0.125   8.646 -0.8498 -0.0318 -1.0641
17812SOL    HW256329   9.309   0.077   8.733 -0.2769 -0.3000 -0.4458
17813SOL     OW56330   7.006   8.978   8.164  0.3251  0.1673 -0.5384
17813SOL    HW156331   7.085   8.964   8.217 -0.1716  0.8334  0.4181
17813SOL    HW256332   7.038   8.981   8.074  1.5145  1.2207 -0.1192
17814SOL     OW56333   1.943   1.267   8.967 -0.0905  0.6059  0.1563
17814SOL    HW156334   2.007   1.317   9.018  0.5243  1.8233 -1.7128
17814SOL    HW256335   1.996   1.221   8.901 -1.1379  2.9361 -2.5006
17815SOL     OW56336   2.270   4.059   7.083 -0.7359 -0.5608 -1.1306
17815SOL    HW156337   2.330   4.116   7.035 -1.6031  0.6665 -0.7855
17815SOL    HW256338   2.208   4.119   7.126 -0.0555 -1.5695  1.4637
17816SOL     OW56339   0.412   5.900   2.580 -0.2398  0.0831  0.4726
17816SOL    HW156340   0.412   5.820   2.633  1.0584 -0.0252  0.3581
17816SOL    HW256341   0.435   5.870   2.492  2.8069  0.7854  0.9093
17817SOL     OW56342   7.364   6.437   2.334 -0.6340  0.3341  0.0503
17817SOL    HW156343   7.366   6.488   2.415 -0.0507  2.3495 -1.1598
17817SOL    HW256344   7.439   6.470   2.283 -0.3226 -1.6582 -0.8828
17818SOL     OW56345   0.090   4.962   0.409 -0.1304  0.2007  0.4728
17818SOL    HW156346   0.111   4.905   0.335  1.1275 -0.1007  1.0363
17818SOL    HW256347   0.003   4.996   0.389  0.6917  1.1393 -1.7637
17819SOL     OW56348   8.705   6.895   0.276 -0.3107  0.1242 -0.7298
17819SOL    HW156349   8.618   6.923   0.248 -0.2684  0.7526 -0.2652
17819SOL    HW256350   8.703   6.901   0.371  0.9302  2.3178 -0.7747
17820SOL     OW56351   6.306   5.908   6.107 -0.0304 -0.2042 -0.2187
17820SOL    HW156352   6.401   5.896   6.103 -0.3079 -2.5381 -2.5957
17820SOL    HW256353   6.276   5.890   6.018 -3.0720 -4.5026  1.3446
17821SOL     OW56354   5.894   8.455   7.012 -0.5732  0.0166  0.0851
17821SOL    HW156355   5.975   8.449   6.962 -1.2891  2.4561 -1.5464
17821SOL    HW256356   5.825   8.454   6.946 -1.6296  1.9864  1.0964
17822SOL     OW56357   6.398   3.626   3.964  0.5398 -0.4711 -0.1833
17822SOL    HW156358   6.303   3.620   3.950  0.4512  1.1865 -0.5052
17822SOL    HW256359   6.432   3.542   3.932 -1.0934 -2.5899  3.1513
17823SOL     OW56360   8.342   8.077   1.356 -0.1316  0.1088  0.5119
17823SOL    HW156361   8.399   8.003   1.332  0.3299  0.2171  1.2492
17823SOL    HW256362   8.388   8.120   1.428 -1.1359  0.2215  1.1009
17824SOL     OW56363   3.720   9.023   1.821 -0.3536  0.3030  0.3290
17824SOL    HW156364   3.722   9.107   1.775  0.6459 -0.2017 -0.5891
17824SOL    HW256365   3.691   8.960   1.755 -0.6661 -0.1541  0.8939
17825SOL     OW56366   7.798   1.068   6.054 -0.1710 -0.4319  0.9225
17825SOL    HW156367   7.879   1.074   6.003  0.4304 -2.7791  1.4891
17825SOL    HW256368   7.729   1.092   5.993  0.8261  0.3155  0.0530
17826SOL     OW56369   5.752   7.448   3.835 -0.4105 -0.0731 -0.2071
17826SOL    HW156370   5.659   7.455   3.855 -0.3069 -0.6115  0.5291
17826SOL    HW256371   5.756   7.389   3.760 -0.8224  2.1279 -2.0526
17827SOL     OW56372   8.497   0.530   0.822  0.0466 -0.5158  0.2045
17827SOL    HW156373   8.425   0.545   0.761  0.1754 -1.6288 -0.2565
17827SOL    HW256374   8.560   0.477   0.772  1.9149  1.6522  0.0812
17828SOL     OW56375   7.020   1.592   4.701 -0.1277  0.4937  0.1775
17828SOL    HW156376   7.091   1.539   4.665  1.5361  1.5297  1.7438
17828SOL    HW256377   6.986   1.642   4.627  1.5995  0.8519 -0.4032
17829SOL     OW56378   6.572   0.881   3.524  0.2639 -0.2295 -0.1324
17829SOL    HW156379   6.563   0.806   3.465  1.4787 -0.1813 -0.4000
17829SOL    HW256380   6.578   0.957   3.466  1.5363 -0.1868  0.0457
17830SOL     OW56381   3.255   9.588   4.196 -0.0037  0.0928  0.7459
17830SOL    HW156382   3.265   9.603   4.102  0.9353 -1.8051  0.4903
17830SOL    HW256383   3.338   9.618   4.234  0.2554 -0.6046  0.7467
17831SOL     OW56384   6.900   4.303   4.924 -0.2908 -0.3005  0.6708
17831SOL    HW156385   6.993   4.294   4.944  0.1770 -0.2813 -1.3480
17831SOL    HW256386   6.870   4.213   4.907 -1.2800 -0.6471  3.6317
17832SOL     OW56387   1.337   4.636   8.226  0.5418 -0.1049 -0.6118
17832SOL    HW156388   1.352   4.547   8.258 -0.0520 -0.2536 -0.7490
17832SOL    HW256389   1.370   4.692   8.297 -1.9860 -0.4189  0.9255
17833SOL     OW56390   1.948   8.214   8.200  0.0822 -0.9792 -0.0722
17833SOL    HW156391   2.027   8.264   8.221  0.4592 -0.7743 -1.8509
17833SOL    HW256392   1.910   8.193   8.286  0.5355  1.3503  0.7899
17834SOL     OW56393   9.375   3.521   5.110  0.3440 -0.1563 -0.0419
17834SOL    HW156394   9.423   3.598   5.142  1.3038 -0.7468 -0.0175
17834SOL    HW256395   9.286   3.533   5.142  0.5908  0.7137  0.3544
17835SOL     OW56396   1.023   4.379   3.601 -0.2885  0.0376  0.1317
17835SOL    HW156397   0.953   4.367   3.666 -1.6824 -0.1633 -1.3267
17835SOL    HW256398   1.102   4.350   3.645 -1.4794 -1.9767  1.1262
17836SOL     OW56399   3.150   4.409   0.452  0.3549 -0.1685 -0.2360
17836SOL    HW156400   3.198   4.460   0.518  1.3296 -1.3958  0.0501
17836SOL    HW256401   3.218   4.359   0.406 -0.5933 -1.7125 -0.0469
17837SOL     OW56402   5.056   6.711   7.053  0.1380  0.4900 -0.0453
17837SOL    HW156403   5.126   6.650   7.031  0.1832 -0.3341  2.1525
17837SOL    HW256404   5.068   6.784   6.992  1.8235 -0.4161 -0.8665
17838SOL     OW56405   6.964   3.488   7.004 -0.0091  0.1028  0.1011
17838SOL    HW156406   6.994   3.494   6.914  1.9038 -0.7639  0.6276
17838SOL    HW256407   6.961   3.394   7.022  0.6351  0.2804  1.2349
17839SOL     OW56408   4.388   6.948   9.354  0.5864  0.4072  0.4516
17839SOL    HW156409   4.389   6.887   9.427 -0.5188  0.2461  0.3513
17839SOL    HW256410   4.451   6.912   9.291  0.8225  0.0291  0.8998
17840SOL     OW56411   1.469   3.336   2.862 -0.9606  0.4300 -0.1001
17840SOL    HW156412   1.488   3.371   2.949 -2.4022  0.1654  0.3495
17840SOL    HW256413   1.415   3.402   2.820 -0.6845  0.3373 -0.6116
17841SOL     OW56414   3.047   6.584   4.628 -0.4158 -0.0160  0.6043
17841SOL    HW156415   3.061   6.555   4.718 -1.5855  1.1465  1.1956
17841SOL    HW256416   3.024   6.505   4.580 -1.0168 -0.4601  1.6021
17842SOL     OW56417   5.698   2.376   0.389 -0.2532  0.4414 -0.2291
17842SOL    HW156418   5.718   2.326   0.310 -1.3995  0.4957 -0.5762
17842SOL    HW256419   5.602   2.376   0.393 -0.2413 -1.2163  2.2140
17843SOL     OW56420   0.330   2.571   7.876  0.6118 -0.1736  0.5342
17843SOL    HW156421   0.349   2.584   7.783 -1.9523 -0.2538 -0.0664
17843SOL    HW256422   0.379   2.493   7.900  0.9711 -0.4009 -0.8724
17844SOL     OW56423   0.600   2.933   9.283  0.6285 -0.3519  0.5423
17844SOL    HW156424   0.609   2.986   9.362 -0.0269 -1.1019  1.1372
17844SOL    HW256425   0.511   2.949   9.253  0.0886 -1.8041  1.2645
17845SOL     OW56426   5.121   0.347   1.247 -0.5645  0.8336  0.2361
17845SOL    HW156427   5.215   0.365   1.256 -0.3072  1.2984 -2.3981
17845SOL    HW256428   5.111   0.255   1.271  0.2147  1.2061  2.2063
17846SOL     OW56429   9.329   5.357   6.145  1.1381 -0.2512  0.2337
17846SOL    HW156430   9.245   5.386   6.180  0.5524 -0.1451 -1.2063
17846SOL    HW256431   9.324   5.261   6.148  1.0323 -0.2436  0.3144
17847SOL     OW56432   3.406   8.922   6.800  0.2988  0.4896 -0.1462
17847SOL    HW156433   3.455   8.948   6.722 -1.8738 -0.4582 -1.9094
17847SOL    HW256434   3.423   8.993   6.863  1.7955  1.4806 -1.5805
17848SOL     OW56435   7.840   5.250   6.147 -0.1485 -0.2480 -0.6369
17848SOL    HW156436   7.853   5.172   6.201 -0.8789  1.1265  1.6865
17848SOL    HW256437   7.924   5.262   6.103  1.3427 -0.2001  2.0008
17849SOL     OW56438   7.795   2.777   5.523  0.1183 -0.0068  0.2580
17849SOL    HW156439   7.827   2.792   5.434  0.8909 -0.6661  0.4167
17849SOL    HW256440   7.700   2.786   5.516  0.1474 -0.3732 -0.6935
17850SOL     OW56441   6.265   6.698   8.847  0.2204 -0.0258 -0.3914
17850SOL    HW156442   6.279   6.613   8.805  0.7226 -0.3014  0.3248
17850SOL    HW256443   6.351   6.740   8.845 -0.2901  1.0241 -1.9147
17851SOL     OW56444   2.715   8.222   0.330 -0.0608  0.3422 -0.1569
17851SOL    HW156445   2.705   8.132   0.361  1.2237  0.7592  1.6518
17851SOL    HW256446   2.643   8.270   0.369 -0.3154  0.2452 -0.5057
17852SOL     OW56447   7.970   3.684   8.321  0.0452  0.4573  0.2717
17852SOL    HW156448   7.997   3.752   8.382 -0.3801  1.1116 -0.2444
17852SOL    HW256449   8.031   3.692   8.248 -1.9151  2.5372 -1.3131
17853SOL     OW56450   2.754   6.614   8.029  0.9407  0.3586 -0.4735
17853SOL    HW156451   2.674   6.667   8.034  0.1001 -0.7270 -1.8129
17853SOL    HW256452   2.806   6.643   8.105 -0.4431  1.5111  0.0921
17854SOL     OW56453   2.049   6.864   9.187 -0.3424  0.2139 -0.0922
17854SOL    HW156454   2.096   6.822   9.115  0.2393 -0.5763  0.7166
17854SOL    HW256455   2.041   6.956   9.161  1.3177  0.2992 -0.4475
17855SOL     OW56456   2.289   4.411   0.955 -0.1349 -0.5786 -0.0293
17855SOL    HW156457   2.339   4.423   1.035  0.6505  0.0139 -0.5978
17855SOL    HW256458   2.344   4.448   0.886 -1.2391 -0.1428 -0.7020
17856SOL     OW56459   7.773   5.590   2.014 -0.7052  0.1153 -0.5883
17856SOL    HW156460   7.762   5.683   1.995  0.2916  0.2913 -0.3337
17856SOL    HW256461   7.861   5.569   1.983  0.5828  0.1337  2.6581
17857SOL     OW56462   2.251   9.590   3.655  0.2233 -0.5231 -0.2166
17857SOL    HW156463   2.279   9.631   3.574 -0.4559 -0.1485 -0.2728
17857SOL    HW256464   2.205   9.659   3.703  1.3279 -0.5013  0.8675
17858SOL     OW56465   9.212   9.327   3.555  0.4060  0.1681  0.5123
17858SOL    HW156466   9.235   9.239   3.584 -1.7183 -1.3800 -1.9425
17858SOL    HW256467   9.295   9.368   3.530  1.2521 -2.6093 -1.7956
17859SOL     OW56468   9.317   4.986   1.154  0.2911 -0.1962 -0.0603
17859SOL    HW156469   9.337   4.904   1.199 -0.9668 -0.0343  0.8309
17859SOL    HW256470   9.232   5.013   1.188 -0.9176 -0.2229 -2.7592
17860SOL     OW56471   3.980   1.427   0.065  0.3848  0.0584  0.9404
17860SOL    HW156472   4.029   1.355   0.105 -0.2536 -0.0536  1.5326
17860SOL    HW256473   3.903   1.438   0.121 -0.5390 -0.1000 -0.2538
17861SOL     OW56474   3.386   5.128   5.173 -0.3352  0.1042  0.2794
17861SOL    HW156475   3.476   5.101   5.154 -1.0405 -1.4938 -0.9609
17861SOL    HW256476   3.363   5.078   5.251  0.5185  2.1518  1.9549
17862SOL     OW56477   4.812   8.984   1.793 -0.5696 -0.5723  0.3746
17862SOL    HW156478   4.869   8.962   1.867  0.7342  0.1118 -0.4011
17862SOL    HW256479   4.739   9.031   1.833 -0.5824 -1.4027  1.3791
17863SOL     OW56480   8.313   2.254   4.267  0.3095 -0.2611 -0.0868
17863SOL    HW156481   8.311   2.159   4.257  1.2345 -0.2231 -0.7677
17863SOL    HW256482   8.341   2.268   4.357  2.7541 -0.6671 -0.7150
17864SOL     OW56483   6.745   1.448   5.201  0.3461  0.0212 -0.1227
17864SOL    HW156484   6.690   1.479   5.130 -2.8864  1.4843  2.7225
17864SOL    HW256485   6.764   1.526   5.253  1.5535 -1.1438  1.2797
17865SOL     OW56486   7.029   9.602   0.607 -0.2167 -0.0403 -0.4472
17865SOL    HW156487   7.062   9.638   0.525 -1.2978 -2.1239 -1.8872
17865SOL    HW256488   7.089   9.530   0.627 -2.2251 -2.2173 -1.7341
17866SOL     OW56489   3.301   3.472   0.602  0.6413  0.8508 -0.0210
17866SOL    HW156490   3.223   3.421   0.581  0.4729  0.7416  0.8139
17866SOL    HW256491   3.267   3.559   0.623  0.7569  0.8468  0.1841
17867SOL     OW56492   2.286   0.342   8.940  0.0919  0.7466 -0.2863
17867SOL    HW156493   2.226   0.268   8.939  0.5337  0.2971 -3.3205
17867SOL    HW256494   2.373   0.303   8.948  0.3018  0.9141 -1.5314
17868SOL     OW56495   6.186   8.887   5.793  0.3516  0.0409 -0.0855
17868SOL    HW156496   6.241   8.964   5.785  1.5910 -0.5653  1.7417
17868SOL    HW256497   6.243   8.821   5.834 -0.6339 -1.8713 -1.6232
17869SOL     OW56498   0.155   8.453   4.711  0.0556 -0.5040 -0.3556
17869SOL    HW156499   0.184   8.364   4.732  0.6643 -0.0062  0.9857
17869SOL    HW256500   0.100   8.478   4.785 -0.5979  0.0398 -1.0071
17870SOL     OW56501   1.561   6.080   0.715 -0.4610 -0.0891 -0.1919
17870SOL    HW156502   1.646   6.057   0.677 -0.1724  1.5027 -0.6125
17870SOL    HW256503   1.566   6.175   0.726 -1.9675 -0.0564  0.3512
17871SOL     OW56504   2.620   7.704   6.309  0.0369 -0.0535  0.1819
17871SOL    HW156505   2.643   7.707   6.216 -0.4234 -0.6932  0.0380
17871SOL    HW256506   2.598   7.795   6.331 -1.2437 -0.1269 -0.7066
17872SOL     OW56507   3.658   2.723   6.693  0.0030  0.8652  0.1991
17872SOL    HW156508   3.651   2.810   6.732  1.9300  1.1807 -0.0489
17872SOL    HW256509   3.751   2.702   6.699 -0.1782 -0.4877 -1.2055
17873SOL     OW56510   8.089   8.108   4.399 -0.2038  0.0895  0.0348
17873SOL    HW156511   8.045   8.031   4.364 -1.4793  1.3533 -1.2962
17873SOL    HW256512   8.161   8.073   4.452 -1.1627 -1.9967  0.0450
17874SOL     OW56513   4.691   7.008   9.018  0.3458  0.3252 -0.0402
17874SOL    HW156514   4.612   7.043   8.978 -0.5850 -2.5722 -0.9586
17874SOL    HW256515   4.660   6.942   9.080  1.9824 -1.5169 -1.0621
17875SOL     OW56516   9.266   6.244   9.437  0.0519  0.1908 -0.1720
17875SOL    HW156517   9.348   6.214   9.397  0.3219  0.7307 -0.0286
17875SOL    HW256518   9.198   6.198   9.389  0.5005 -1.9683  1.0982
17876SOL     OW56519   8.758   7.617   8.788  0.1366  1.4435  0.3565
17876SOL    HW156520   8.761   7.564   8.867  1.1642 -0.0236 -0.5976
17876SOL    HW256521   8.672   7.601   8.751  0.2354  0.8847  0.3693
17877SOL     OW56522   1.934   7.417   8.779  0.1664  0.2756  0.0023
17877SOL    HW156523   2.026   7.410   8.753 -0.6009 -1.1380 -2.6334
17877SOL    HW256524   1.936   7.469   8.860  3.2316  0.4645 -0.0843
17878SOL     OW56525   4.421   6.539   4.346  0.0124 -0.0547 -0.2374
17878SOL    HW156526   4.329   6.526   4.369  0.0829 -0.8704 -0.3667
17878SOL    HW256527   4.419   6.608   4.280 -0.2221  2.0250  1.8180
17879SOL     OW56528   5.312   2.077   1.545  0.0468 -0.2537  0.1037
17879SOL    HW156529   5.250   2.150   1.552  0.7813  0.2638  1.5017
17879SOL    HW256530   5.398   2.119   1.541  0.3726 -0.9877 -1.2474
17880SOL     OW56531   8.676   8.532   7.487 -0.6083 -0.4438 -0.1880
17880SOL    HW156532   8.661   8.619   7.524 -0.6622 -0.5586  0.0661
17880SOL    HW256533   8.610   8.477   7.530  0.4272 -0.9275  0.8232
17881SOL     OW56534   6.730   1.245   0.849  0.7257  0.1665  0.4859
17881SOL    HW156535   6.710   1.261   0.941  1.4715  0.1624  0.6567
17881SOL    HW256536   6.677   1.169   0.825 -1.0269  1.3927  0.3354
17882SOL     OW56537   8.377   4.206   0.264  0.5342  0.0579  0.1945
17882SOL    HW156538   8.424   4.194   0.181  1.2029 -0.8642  0.6838
17882SOL    HW256539   8.358   4.300   0.268  1.1138  0.2218 -0.6693
17883SOL     OW56540   7.797   1.805   9.159  0.2119  0.0793  0.1079
17883SOL    HW156541   7.708   1.816   9.126  1.0255  1.7881 -1.6794
17883SOL    HW256542   7.793   1.724   9.211 -2.4573  0.3515  0.4686
17884SOL     OW56543   1.864   0.412   7.364  0.1328 -0.0646 -0.2645
17884SOL    HW156544   1.905   0.470   7.300 -0.8572  1.0724  0.0870
17884SOL    HW256545   1.783   0.383   7.322 -0.4382  0.5492  0.3703
17885SOL     OW56546   1.540   3.698   7.756  0.4547 -0.1548  0.4978
17885SOL    HW156547   1.627   3.684   7.794  0.1503 -3.4389  0.2110
17885SOL    HW256548   1.548   3.664   7.666 -1.2642 -1.1023  0.6713
17886SOL     OW56549   0.099   2.673   5.342  0.5531 -0.4672  0.5115
17886SOL    HW156550   0.026   2.624   5.380 -0.6401  1.1744  0.4418
17886SOL    HW256551   0.177   2.620   5.362 -0.7996 -3.3864 -1.2573
17887SOL     OW56552   1.331   2.033   8.361 -0.4961 -0.4893 -0.0357
17887SOL    HW156553   1.330   2.052   8.455  2.4789  0.0299 -0.0187
17887SOL    HW256554   1.314   2.117   8.319  0.7501 -0.1698  0.0678
17888SOL     OW56555   0.305   9.550   0.029 -0.1891  0.1244  0.6207
17888SOL    HW156556   0.378   9.492   0.010  1.0973  2.1798 -1.2786
17888SOL    HW256557   0.257   9.556  -0.054 -0.5117  1.4116  0.8757
17889SOL     OW56558   6.848   7.363   6.251  0.4116  0.8001  0.5407
17889SOL    HW156559   6.804   7.279   6.238  0.4289  0.8849 -0.0846
17889SOL    HW256560   6.874   7.391   6.163  1.3556  0.9458  0.8520
17890SOL     OW56561   6.994   4.530   2.651 -0.0136 -0.4278 -0.7890
17890SOL    HW156562   7.038   4.553   2.570 -0.5610  1.1568 -0.6711
17890SOL    HW256563   6.902   4.522   2.628 -0.2276  0.4112 -0.2649
17891SOL     OW56564   7.776   8.804   7.063 -0.4133 -0.7633  0.6240
17891SOL    HW156565   7.720   8.880   7.078 -0.5896 -0.7460 -0.0757
17891SOL    HW256566   7.864   8.840   7.055 -0.2246 -0.8390  2.1997
17892SOL     OW56567   0.988   8.633   2.033 -0.3667 -0.1340  0.4182
17892SOL    HW156568   1.083   8.621   2.041 -0.2976  0.7364  1.1433
17892SOL    HW256569   0.978   8.725   2.007 -1.0309 -0.0317  1.0032
17893SOL     OW56570   9.526   8.297   5.906 -0.3890  0.4845 -0.0044
17893SOL    HW156571   9.526   8.352   5.984 -0.6958 -0.8299  0.9482
17893SOL    HW256572   9.603   8.240   5.916 -2.5713 -2.4393  1.3941
17894SOL     OW56573   6.299   2.792   9.455  0.4984  0.2034 -0.0558
17894SOL    HW156574   6.224   2.796   9.514  1.1683 -1.3737  0.9939
17894SOL    HW256575   6.375   2.788   9.514  1.1764 -1.7483 -0.9558
17895SOL     OW56576   6.854   8.647   4.731 -0.5070 -0.3829 -0.5737
17895SOL    HW156577   6.772   8.611   4.697 -0.8719 -1.7673  1.5793
17895SOL    HW256578   6.879   8.588   4.802 -0.3683  2.7644  2.2564
17896SOL     OW56579   3.061   1.856   7.318  0.3687 -0.6430  0.1212
17896SOL    HW156580   3.131   1.915   7.292 -1.0303 -0.3765 -3.6994
17896SOL    HW256581   3.002   1.910   7.371  0.9673  0.3428 -0.1944
17897SOL     OW56582   1.383   7.753   0.849 -0.2247  0.9199  0.1780
17897SOL    HW156583   1.453   7.688   0.854 -0.6650  0.4713  0.6352
17897SOL    HW256584   1.398   7.797   0.766 -1.1304 -1.1526 -1.1626
17898SOL     OW56585   0.600   0.561   4.951 -0.0987  0.8965  0.5625
17898SOL    HW156586   0.652   0.535   4.875  0.7271  0.3354  1.2941
17898SOL    HW256587   0.647   0.524   5.026 -1.8476 -0.1126  1.2224
17899SOL     OW56588   4.233   7.858   4.766 -0.2654 -0.6605  0.6838
17899SOL    HW156589   4.139   7.878   4.766 -0.0743  0.2658  0.3882
17899SOL    HW256590   4.243   7.793   4.836 -0.8693  0.4401  1.8243
17900SOL     OW56591   6.456   0.182   0.981  0.1154  0.0877 -0.0963
17900SOL    HW156592   6.489   0.245   0.918  1.5869 -1.5936 -1.0956
17900SOL    HW256593   6.501   0.100   0.960  0.9118 -0.5235  3.3089
17901SOL     OW56594   3.305   1.194   5.818  0.0837 -0.6824  0.1306
17901SOL    HW156595   3.242   1.203   5.890  1.4701  1.6803  1.1366
17901SOL    HW256596   3.376   1.141   5.855 -0.0056 -0.9506 -0.0803
17902SOL     OW56597   7.285   1.682   1.009 -0.0638 -0.3325 -0.0754
17902SOL    HW156598   7.379   1.668   1.001 -0.0006  0.4268 -0.8691
17902SOL    HW256599   7.249   1.596   1.030  0.6720 -0.9039 -1.0865
17903SOL     OW56600   7.504   2.838   4.378 -0.1820 -0.2457 -0.7518
17903SOL    HW156601   7.481   2.762   4.430  1.4853 -0.2094  0.1162
17903SOL    HW256602   7.533   2.802   4.294  1.7884 -0.7262  0.0788
17904SOL     OW56603   2.685   5.889   1.669 -0.7452 -0.3236 -0.3655
17904SOL    HW156604   2.661   5.800   1.643 -0.2108 -0.8682  0.8957
17904SOL    HW256605   2.621   5.911   1.737 -0.1072 -0.2442  0.2116
17905SOL     OW56606   9.525   1.003   2.073 -0.0768  0.0975 -0.1181
17905SOL    HW156607   9.506   1.097   2.063 -0.2934  0.0097 -0.5447
17905SOL    HW256608   9.531   0.970   1.983  0.6625 -0.1678  0.0162
17906SOL     OW56609   5.890   0.372   3.610  0.0066 -0.1072 -0.2565
17906SOL    HW156610   5.833   0.386   3.534  0.9231 -0.1620 -0.9712
17906SOL    HW256611   5.873   0.447   3.667  0.7944  1.0560 -1.4687
17907SOL     OW56612   2.446   0.662   7.500 -0.4743 -0.2968 -0.6328
17907SOL    HW156613   2.472   0.751   7.475 -2.0619  0.4304  0.1851
17907SOL    HW256614   2.459   0.659   7.595 -0.0435 -1.0988 -0.7071
17908SOL     OW56615   4.945   8.891   8.539 -0.2741  0.5135 -0.5809
17908SOL    HW156616   4.989   8.806   8.536  0.5770  0.8643  1.1578
17908SOL    HW256617   4.860   8.875   8.498 -0.5644 -1.4734  0.6742
17909SOL     OW56618   8.931   1.486   1.388 -0.1973 -0.0608  0.1782
17909SOL    HW156619   8.998   1.418   1.379  0.6098  0.9657 -2.5964
17909SOL    HW256620   8.916   1.517   1.299 -2.4246  1.6419  1.0452
17910SOL     OW56621   1.913   3.768   6.003 -0.3134  0.0191 -0.2098
17910SOL    HW156622   1.833   3.807   5.966 -0.2595  0.9811  0.6420
17910SOL    HW256623   1.959   3.733   5.927 -2.1736 -1.8373 -0.5939
17911SOL     OW56624   5.080   2.948   4.291  0.2414  0.2249  1.1749
17911SOL    HW156625   5.044   2.901   4.366 -0.4992  0.6541  1.0911
17911SOL    HW256626   5.165   2.906   4.275 -0.6686 -1.4906  0.7088
17912SOL     OW56627   8.139   0.220   0.651  1.0496 -0.6286  0.2938
17912SOL    HW156628   8.129   0.135   0.693  0.1206 -0.7030 -0.0678
17912SOL    HW256629   8.202   0.204   0.580  1.3709 -0.8646  0.6290
17913SOL     OW56630   6.246   3.732   1.761 -0.6369 -0.1351 -0.0518
17913SOL    HW156631   6.227   3.658   1.704 -0.2007 -0.3814  0.1180
17913SOL    HW256632   6.309   3.698   1.824  1.6582  1.0777 -1.5592
17914SOL     OW56633   0.441   5.495   3.332  0.6706 -0.1707  0.4121
17914SOL    HW156634   0.429   5.496   3.237 -0.5834  4.5903  0.3474
17914SOL    HW256635   0.534   5.514   3.345  0.6848 -0.0195  0.1055
17915SOL     OW56636   8.324   8.766   8.584  0.3538 -0.5724  0.3241
17915SOL    HW156637   8.322   8.772   8.489 -0.3654 -1.9863  0.2123
17915SOL    HW256638   8.395   8.705   8.603 -0.3106 -1.2958  0.5870
17916SOL     OW56639   8.364   9.452   2.364 -0.0291 -0.1698 -0.0365
17916SOL    HW156640   8.362   9.359   2.389 -0.1800 -0.0277  0.4905
17916SOL    HW256641   8.387   9.498   2.444 -0.2492  0.2761 -0.2255
17917SOL     OW56642   8.075   1.905   6.603 -0.0194  0.0736 -0.5746
17917SOL    HW156643   7.982   1.923   6.590 -0.4105 -1.2653  0.1797
17917SOL    HW256644   8.081   1.809   6.604  1.0246  0.1110  1.4466
17918SOL     OW56645   5.769   4.741   0.656  0.2910  0.4132  0.3923
17918SOL    HW156646   5.855   4.741   0.698  0.5098 -0.6515 -0.0211
17918SOL    HW256647   5.785   4.708   0.568 -0.5069  0.4259  0.2318
17919SOL     OW56648   5.528   6.789   4.356  0.0660 -0.4575  0.5322
17919SOL    HW156649   5.437   6.767   4.337 -0.5094  1.1719  1.3001
17919SOL    HW256650   5.570   6.704   4.372 -1.1137 -1.2891 -0.5981
17920SOL     OW56651   8.534   9.401   7.990  0.0041  0.5096  0.0243
17920SOL    HW156652   8.572   9.333   7.935 -0.5812 -0.6275  0.9840
17920SOL    HW256653   8.584   9.396   8.072 -0.1269  1.1693  0.1520
17921SOL     OW56654   2.560   1.390   9.533 -0.2629  0.3950  0.3617
17921SOL    HW156655   2.522   1.328   9.595 -0.6212  0.5103  0.2575
17921SOL    HW256656   2.633   1.342   9.493 -0.2047  0.2258  0.6651
17922SOL     OW56657   0.700   7.012   1.251  0.3695 -0.7545 -0.4269
17922SOL    HW156658   0.728   7.071   1.181 -2.5490 -0.9261 -1.8925
17922SOL    HW256659   0.777   6.958   1.269  1.9204  0.8615 -1.8351
17923SOL     OW56660   6.644   5.957   2.969  0.6692  0.1051 -0.0827
17923SOL    HW156661   6.738   5.941   2.966  0.3355 -2.7835  1.4801
17923SOL    HW256662   6.629   5.997   3.054  0.5550  1.8293 -0.8610
17924SOL     OW56663   0.566   1.953   6.766  0.7841 -0.0744 -0.6525
17924SOL    HW156664   0.660   1.937   6.778  0.8386  0.8658  0.2711
17924SOL    HW256665   0.524   1.907   6.838  0.4783 -0.8920 -1.3313
17925SOL     OW56666   1.687   0.401   4.624  0.1688  0.0033 -0.2782
17925SOL    HW156667   1.691   0.464   4.552 -0.0190 -1.7185 -1.8596
17925SOL    HW256668   1.682   0.315   4.582  0.6195 -1.1259  1.7907
17926SOL     OW56669   8.614   0.278   9.591 -0.7535 -0.1582 -0.2560
17926SOL    HW156670   8.692   0.295   9.643 -1.1834 -0.1826  0.4104
17926SOL    HW256671   8.626   0.188   9.559 -0.5874 -0.2247 -0.0125
17927SOL     OW56672   3.434   0.080   7.790  0.0611  0.3936 -0.0550
17927SOL    HW156673   3.522   0.117   7.795 -0.1126  0.6928  1.0996
17927SOL    HW256674   3.449  -0.014   7.778  0.5813  0.2612  1.4080
17928SOL     OW56675   8.675   2.884   5.670 -0.2523  0.4493  0.3371
17928SOL    HW156676   8.649   2.796   5.698  0.0961  0.3370  0.3159
17928SOL    HW256677   8.714   2.870   5.583 -3.3847  1.0714 -1.3153
17929SOL     OW56678   3.530   0.184   0.733 -0.1777 -0.0751 -0.1719
17929SOL    HW156679   3.469   0.239   0.685 -2.8052 -0.5299  2.3124
17929SOL    HW256680   3.536   0.103   0.682 -1.0035  0.2961 -0.8704
17930SOL     OW56681   8.303   2.608   5.302 -0.5740 -0.4212  0.4701
17930SOL    HW156682   8.208   2.598   5.309 -0.5380 -1.4019 -0.2852
17930SOL    HW256683   8.330   2.640   5.389 -1.2458 -3.0826  1.7591
17931SOL     OW56684   4.834   0.828   4.819  0.0433 -0.0405  0.1948
17931SOL    HW156685   4.825   0.832   4.723 -0.8927  0.1561  0.2842
17931SOL    HW256686   4.918   0.871   4.836  0.1025  0.1517 -0.5242
17932SOL     OW56687   2.114   8.370   2.985 -0.3044 -0.2944  0.1371
17932SOL    HW156688   2.048   8.422   2.939 -0.4302 -0.8541 -0.3326
17932SOL    HW256689   2.197   8.395   2.944 -0.0607  1.1548  1.3996
17933SOL     OW56690   3.430   3.176   0.793  0.3191 -0.2577 -0.0854
17933SOL    HW156691   3.460   3.204   0.706 -0.1129  0.2481 -0.0779
17933SOL    HW256692   3.506   3.186   0.849  0.8353 -1.3513 -0.5605
17934SOL     OW56693   5.786   3.541   2.293  0.1312 -0.2255  0.3841
17934SOL    HW156694   5.829   3.457   2.304  0.4910 -0.0356  0.4695
17934SOL    HW256695   5.850   3.605   2.325  0.3650  0.1814 -0.8556
17935SOL     OW56696   6.654   4.412   5.154  0.6212  0.1399 -0.0726
17935SOL    HW156697   6.746   4.393   5.132  0.5501  0.6778 -0.8661
17935SOL    HW256698   6.646   4.386   5.246  0.6978 -3.1630 -0.8451
17936SOL     OW56699   3.739   4.025   1.452  0.1033  0.0745  0.2319
17936SOL    HW156700   3.673   3.961   1.425  1.2822 -1.3495  0.5660
17936SOL    HW256701   3.745   4.015   1.547  0.6381  0.3392  0.2300
17937SOL     OW56702   0.279   5.837   3.957 -0.2282  0.0733 -0.4001
17937SOL    HW156703   0.258   5.921   3.915 -2.3392 -1.0794 -1.8515
17937SOL    HW256704   0.244   5.844   4.045  0.9419  1.2109  0.0030
17938SOL     OW56705   7.405   5.608   1.261  0.3622 -0.7350 -0.4783
17938SOL    HW156706   7.491   5.651   1.260  0.3191 -0.6431 -0.0362
17938SOL    HW256707   7.424   5.515   1.256  0.4427 -0.6671 -2.2082
17939SOL     OW56708   7.674   0.712   4.543 -0.3612  0.6387  0.1182
17939SOL    HW156709   7.653   0.713   4.450 -0.4625  0.8637  0.1415
17939SOL    HW256710   7.766   0.685   4.547 -1.0566 -1.8926  0.1126
17940SOL     OW56711   4.334   6.670   9.075  0.5724 -0.2962 -0.5800
17940SOL    HW156712   4.260   6.722   9.108  0.2871 -1.4116  0.6247
17940SOL    HW256713   4.341   6.597   9.137 -0.1729 -2.7179 -3.1127
17941SOL     OW56714   8.671   6.406   5.235 -0.6195 -0.4694 -0.2899
17941SOL    HW156715   8.619   6.361   5.302 -3.0153  0.7676 -1.2178
17941SOL    HW256716   8.702   6.486   5.278 -2.9265  0.7905 -0.8028
17942SOL     OW56717   4.912   0.333   5.496 -0.3201 -0.6019  0.5173
17942SOL    HW156718   4.882   0.422   5.476  0.5581 -0.2530  0.6821
17942SOL    HW256719   4.848   0.299   5.558 -1.6060 -0.7240 -0.8398
17943SOL     OW56720   5.679   5.977   7.419  0.2174 -0.4709  0.2144
17943SOL    HW156721   5.616   5.912   7.449 -0.6834 -0.1985 -1.0019
17943SOL    HW256722   5.710   5.944   7.335  0.9878 -0.1264  0.3557
17944SOL     OW56723   9.336   6.901   4.292  0.1088 -0.0156  0.0155
17944SOL    HW156724   9.363   6.986   4.328 -0.7212 -0.3115  1.4231
17944SOL    HW256725   9.370   6.901   4.203  0.7215  1.5100  0.2125
17945SOL     OW56726   9.372   3.598   1.081  0.0276  0.7560 -0.4781
17945SOL    HW156727   9.459   3.635   1.064  0.2773  0.5478  0.2818
17945SOL    HW256728   9.363   3.603   1.177  0.9574 -3.0199 -0.0282
17946SOL     OW56729   2.083   7.666   0.726  1.0264  0.3721 -0.1153
17946SOL    HW156730   2.134   7.739   0.692  0.7320  0.7746  0.2825
17946SOL    HW256731   2.104   7.663   0.820 -1.7660  2.3970  0.7087
17947SOL     OW56732   5.584   2.333   6.167 -0.0974  0.0579 -0.4807
17947SOL    HW156733   5.579   2.359   6.075  1.4481 -0.3439 -0.7004
17947SOL    HW256734   5.549   2.408   6.215 -3.2460 -0.6151 -1.4470
17948SOL     OW56735   3.981   9.303   0.278  0.1893  0.3549 -0.1749
17948SOL    HW156736   3.928   9.261   0.211 -1.1566  0.7585  0.5857
17948SOL    HW256737   3.963   9.397   0.268 -0.2876  0.4026  0.9114
17949SOL     OW56738   4.999   9.099   1.981  0.4217  0.5709  0.2617
17949SOL    HW156739   5.062   9.139   1.921 -0.0627  0.9136 -0.0224
17949SOL    HW256740   5.053   9.068   2.054  0.8808  1.1690  0.1896
17950SOL     OW56741   5.912   0.130   4.292 -0.0675 -0.4265  0.1710
17950SOL    HW156742   5.855   0.199   4.327  0.5575  1.4910 -2.2712
17950SOL    HW256743   6.000   0.169   4.295  0.0546 -0.1408 -3.1493
17951SOL     OW56744   4.478   0.334   4.880 -0.3639 -0.3437  0.0715
17951SOL    HW156745   4.537   0.261   4.902 -0.4287 -0.5774 -0.4905
17951SOL    HW256746   4.446   0.366   4.964 -0.8982 -1.4372  0.2996
17952SOL     OW56747   3.143   2.809   8.021 -0.0650 -0.4324 -0.3026
17952SOL    HW156748   3.165   2.895   8.055 -0.1779 -0.0998 -1.0405
17952SOL    HW256749   3.165   2.814   7.928 -1.4944 -0.6913 -0.6874
17953SOL     OW56750   2.254   2.723   8.202  0.0076  0.3688 -0.4684
17953SOL    HW156751   2.254   2.714   8.106  2.5789 -1.3030 -0.4069
17953SOL    HW256752   2.168   2.691   8.229  0.4869 -2.6199 -2.0581
17954SOL     OW56753   4.865   9.358   7.737 -0.0212 -0.1391  0.7453
17954SOL    HW156754   4.794   9.378   7.677  2.9366  1.5411 -2.5221
17954SOL    HW256755   4.901   9.276   7.705  0.6538 -0.0168  1.1692
17955SOL     OW56756   5.249   9.215   9.626 -0.2611  0.1006 -0.3593
17955SOL    HW156757   5.192   9.147   9.660 -0.1508  0.0566 -0.2614
17955SOL    HW256758   5.281   9.181   9.542  0.2108 -0.1967 -0.0654
17956SOL     OW56759   2.937   4.709   8.117  0.4097  0.5221 -0.0355
17956SOL    HW156760   2.971   4.767   8.048  1.0021 -0.6225 -0.7450
17956SOL    HW256761   2.953   4.620   8.083  0.9417 -0.0692  1.6877
17957SOL     OW56762   2.448   8.874   0.455 -0.0747 -0.0788  0.7399
17957SOL    HW156763   2.496   8.877   0.538 -1.3394 -0.1036  1.4963
17957SOL    HW256764   2.485   8.799   0.408  1.2200  0.4200  0.9006
17958SOL     OW56765   1.705   1.507   7.881 -0.0733 -0.1122 -0.4522
17958SOL    HW156766   1.704   1.603   7.879 -1.2751 -0.0746  0.6328
17958SOL    HW256767   1.795   1.484   7.857  0.0115  1.2448 -1.5367
17959SOL     OW56768   9.539   0.803   1.266 -0.1410  0.2162 -0.3548
17959SOL    HW156769   9.608   0.767   1.322 -1.3191  0.1670  1.1229
17959SOL    HW256770   9.462   0.750   1.287 -1.2607  1.8803 -0.0878
17960SOL     OW56771   2.088   6.367   1.069 -0.4175 -0.8068  0.5438
17960SOL    HW156772   2.032   6.411   1.005  0.5396 -3.7340 -2.5707
17960SOL    HW256773   2.041   6.286   1.090  1.2527 -1.9464  0.1020
17961SOL     OW56774   1.314   6.412   8.147 -0.3213  0.6892 -0.7738
17961SOL    HW156775   1.272   6.449   8.224  2.4415  0.8996  0.7910
17961SOL    HW256776   1.248   6.355   8.108 -1.2887 -1.0720  2.9516
17962SOL     OW56777   7.143   7.454   9.377 -0.3338 -0.2725 -0.2739
17962SOL    HW156778   7.216   7.426   9.321 -0.4660 -1.5765  0.1877
17962SOL    HW256779   7.159   7.548   9.391 -0.0721  0.0146 -2.1420
17963SOL     OW56780   3.736   0.233   4.450 -0.0700 -0.0511 -0.3813
17963SOL    HW156781   3.720   0.300   4.517  2.0644  2.1009 -1.8639
17963SOL    HW256782   3.655   0.230   4.399  0.1642  2.3326 -1.0021
17964SOL     OW56783   0.869   7.356   2.502 -0.0874 -0.3523 -0.0156
17964SOL    HW156784   0.901   7.307   2.578 -1.2793 -0.0726  0.6784
17964SOL    HW256785   0.844   7.442   2.537 -2.1842 -0.7653 -0.3875
17965SOL     OW56786   2.553   9.529   4.389 -0.5344  0.0517  0.2222
17965SOL    HW156787   2.465   9.567   4.384 -0.7259 -0.3274  0.6233
17965SOL    HW256788   2.582   9.525   4.298 -0.5799  0.9872  0.1482
17966SOL     OW56789   3.537   3.385   6.925  0.2328 -0.6732 -0.2286
17966SOL    HW156790   3.597   3.400   6.852  2.1370 -2.5294  0.8332
17966SOL    HW256791   3.576   3.311   6.973 -0.8758  0.4832  2.6949
17967SOL     OW56792   3.996   4.120   3.926 -0.6285  0.1527  0.3193
17967SOL    HW156793   3.994   4.110   4.021 -0.9298  0.5622  0.3592
17967SOL    HW256794   4.004   4.031   3.892 -1.8445 -0.1104  0.6896
17968SOL     OW56795   5.450   7.306   1.170  0.4023  0.2942 -0.2346
17968SOL    HW156796   5.515   7.237   1.187  0.1406 -0.1574 -1.0243
17968SOL    HW256797   5.371   7.258   1.145 -0.0914  0.8568  0.2197
17969SOL     OW56798   1.480   1.363   6.745  0.0705  0.3221 -0.4018
17969SOL    HW156799   1.528   1.300   6.800 -1.7695 -0.7870  0.0063
17969SOL    HW256800   1.395   1.371   6.787 -0.2193  2.0610 -1.2486
17970SOL     OW56801   4.367   8.900   4.057 -0.2367 -0.5636 -0.4143
17970SOL    HW156802   4.419   8.866   3.984  1.4283 -0.4090  0.6465
17970SOL    HW256803   4.283   8.922   4.018  0.2873 -1.3658 -2.0959
17971SOL     OW56804   3.804   3.350   1.192 -0.3910  0.1648 -0.0369
17971SOL    HW156805   3.811   3.259   1.223 -0.3702  0.2082  0.0859
17971SOL    HW256806   3.879   3.394   1.230 -0.6421  0.3366  0.2653
17972SOL     OW56807   6.734   8.409   6.363  0.3529 -0.4966 -0.2359
17972SOL    HW156808   6.656   8.448   6.324  0.9759  0.5729 -0.4764
17972SOL    HW256809   6.798   8.407   6.291  0.9722 -0.0822  0.2884
17973SOL     OW56810   7.476   9.634   1.651 -0.5706 -0.0848  0.1918
17973SOL    HW156811   7.396   9.685   1.666 -0.1262  0.3772  1.0616
17973SOL    HW256812   7.484   9.579   1.728 -0.5368 -0.8117 -0.3168
17974SOL     OW56813   6.243   3.237   3.007 -0.2335  0.2884 -0.4270
17974SOL    HW156814   6.156   3.264   2.977 -0.5287  0.4582  0.5381
17974SOL    HW256815   6.243   3.260   3.100  0.9543  0.5666 -0.4894
17975SOL     OW56816   8.020   3.775   7.101 -0.5467 -0.2337  0.2096
17975SOL    HW156817   8.084   3.791   7.031  0.5438 -0.1451  1.2035
17975SOL    HW256818   7.943   3.823   7.073 -0.2715 -0.5219 -1.1297
17976SOL     OW56819   4.009   2.852   6.962 -0.2176  0.0075  0.0584
17976SOL    HW156820   4.021   2.807   7.045 -0.3500  0.5089  0.3550
17976SOL    HW256821   4.096   2.888   6.942  0.0432 -0.9184 -0.5016
17977SOL     OW56822   5.022   1.334   3.392  0.0451  0.5473 -0.1951
17977SOL    HW156823   5.037   1.354   3.484  0.6899  1.0905 -0.4159
17977SOL    HW256824   4.994   1.417   3.353 -0.8747  0.1721 -0.3577
17978SOL     OW56825   9.432   9.309   5.601  0.6560  0.1177 -0.6584
17978SOL    HW156826   9.466   9.369   5.668  1.2529  0.9166 -1.6395
17978SOL    HW256827   9.408   9.367   5.528 -0.2133 -0.7128 -1.0460
17979SOL     OW56828   0.284   2.548   4.780  0.5741  0.0821  0.2038
17979SOL    HW156829   0.272   2.643   4.787 -1.6799 -0.2376  2.4674
17979SOL    HW256830   0.273   2.529   4.687 -2.7660  1.7407  0.0990
17980SOL     OW56831   3.022   7.646   2.447 -0.0034  0.5099  0.4970
17980SOL    HW156832   2.927   7.658   2.444 -0.0400  0.3339  0.8962
17980SOL    HW256833   3.050   7.690   2.527  0.2700  0.6815  0.3078
17981SOL     OW56834   4.806   6.246   8.995 -0.3036  0.2341  0.9174
17981SOL    HW156835   4.890   6.284   8.968  1.0869 -2.9213  0.4494
17981SOL    HW256836   4.792   6.279   9.084  0.4181  2.2865  0.3391
17982SOL     OW56837   6.437   7.668   3.106  0.0040  0.1360  0.3365
17982SOL    HW156838   6.352   7.681   3.149  0.9102  0.7103  2.0207
17982SOL    HW256839   6.469   7.584   3.140  0.1977  0.0114 -0.1474
17983SOL     OW56840   8.251   6.899   7.409 -0.6997  0.8118  0.0384
17983SOL    HW156841   8.332   6.925   7.365 -1.0014  1.8600  0.0678
17983SOL    HW256842   8.182   6.918   7.345 -0.9411  0.1651  0.1072
17984SOL     OW56843   5.416   4.193   2.181 -0.2429  0.2397 -0.3075
17984SOL    HW156844   5.500   4.149   2.192 -1.0043 -1.1112  0.4230
17984SOL    HW256845   5.411   4.253   2.255 -0.5160 -0.7091  0.4613
17985SOL     OW56846   9.474   6.325   5.550  0.6656 -0.2876 -0.2941
17985SOL    HW156847   9.402   6.388   5.544  1.1948  0.4912  0.9018
17985SOL    HW256848   9.481   6.306   5.644  1.5122 -0.9485 -0.4775
17986SOL     OW56849   2.571   7.459   2.423  0.4671 -0.4662 -0.4575
17986SOL    HW156850   2.614   7.451   2.338 -1.6279 -2.4659 -1.4466
17986SOL    HW256851   2.481   7.430   2.407  0.0418 -1.0807  2.4963
17987SOL     OW56852   9.470   3.679   3.726 -0.5601 -0.2568 -0.1293
17987SOL    HW156853   9.563   3.683   3.746 -0.6034 -1.7700  0.5471
17987SOL    HW256854   9.427   3.673   3.811 -1.2496  0.0417 -0.4463
17988SOL     OW56855   7.187   9.569   5.568 -0.5438  0.0898 -0.0268
17988SOL    HW156856   7.228   9.575   5.654 -0.9499  1.3847  0.0959
17988SOL    HW256857   7.250   9.520   5.515  1.1400  1.9099  0.1934
17989SOL     OW56858   3.586   9.277   0.851  0.6438  0.4014  0.1447
17989SOL    HW156859   3.584   9.208   0.785 -0.4462  0.2881  0.2781
17989SOL    HW256860   3.538   9.350   0.811 -0.3722  0.1967  0.9406
17990SOL     OW56861   2.054   1.832   6.764 -0.5601 -0.5119  0.9216
17990SOL    HW156862   2.149   1.824   6.756 -0.4397  1.2437  0.1270
17990SOL    HW256863   2.023   1.839   6.674 -1.4846 -1.2479  1.1669
17991SOL     OW56864   7.507   0.177   2.694  0.2835 -0.2174  0.3164
17991SOL    HW156865   7.494   0.083   2.689 -1.9195 -0.0038  0.8863
17991SOL    HW256866   7.553   0.200   2.614 -0.9554 -1.5340 -0.8118
17992SOL     OW56867   2.891   6.450   5.902  0.0663  0.2354  0.1709
17992SOL    HW156868   2.985   6.462   5.887  0.0490  0.4915  0.2674
17992SOL    HW256869   2.851   6.532   5.873 -0.2496 -0.3011 -0.9435
17993SOL     OW56870   8.026   3.817   7.860  0.0809 -0.2136  0.1426
17993SOL    HW156871   8.090   3.765   7.812  1.3149  0.1846  1.3050
17993SOL    HW256872   8.050   3.908   7.842 -1.1002 -0.0348 -0.6169
17994SOL     OW56873   1.425   2.859   6.095 -0.5214 -0.2270 -0.2113
17994SOL    HW156874   1.357   2.918   6.130 -0.9713 -0.8741  0.0302
17994SOL    HW256875   1.494   2.918   6.065 -0.6648  0.4025  0.6441
17995SOL     OW56876   0.933   0.472   5.010  0.2642  0.1805  0.5554
17995SOL    HW156877   0.899   0.389   5.044  0.7908 -0.3955 -0.2974
17995SOL    HW256878   0.947   0.525   5.088  0.6803 -0.8254  1.1964
17996SOL     OW56879   8.977   6.107   5.531  0.6149 -0.1376 -0.5843
17996SOL    HW156880   9.018   6.180   5.485 -2.1844  0.6759 -2.0580
17996SOL    HW256881   8.897   6.090   5.481 -0.2912 -2.3087  1.4258
17997SOL     OW56882   7.338   8.153   9.549  0.0770  0.3589 -0.1073
17997SOL    HW156883   7.349   8.247   9.536  2.0026  0.1874 -0.0869
17997SOL    HW256884   7.246   8.142   9.573 -0.4340  2.1147 -1.0663
17998SOL     OW56885   7.992   8.607   6.119 -0.5387 -0.3329 -0.4328
17998SOL    HW156886   8.006   8.701   6.107  0.3269 -0.2750  0.8767
17998SOL    HW256887   8.004   8.570   6.031 -0.0524  0.6857 -0.8104
17999SOL     OW56888   1.223   9.287   0.366 -0.0902 -0.3855 -0.2083
17999SOL    HW156889   1.163   9.359   0.346 -2.1223 -2.1624 -0.8091
17999SOL    HW256890   1.232   9.290   0.461  1.6325  1.9402 -0.3476
18000SOL     OW56891   2.547   9.191   4.163 -0.1616  0.2304 -0.3152
18000SOL    HW156892   2.567   9.270   4.115 -1.1030  0.3883 -0.4539
18000SOL    HW256893   2.452   9.189   4.169 -0.1770 -1.1415 -0.7377
18001SOL     OW56894   4.453   1.478   4.766 -0.2507 -0.6478 -0.4952
18001SOL    HW156895   4.536   1.432   4.778 -0.8342 -1.4797  0.4872
18001SOL    HW256896   4.424   1.452   4.678 -0.0344 -1.2832 -0.3832
18002SOL     OW56897   1.976   2.793   5.356  0.1083  0.2048 -0.2907
18002SOL    HW156898   2.021   2.709   5.348 -0.0517  0.2060 -1.2878
18002SOL    HW256899   2.039   2.857   5.321 -0.4496  0.2708 -1.2107
18003SOL     OW56900   8.999   2.736   3.574 -0.3700 -0.2664  0.2290
18003SOL    HW156901   9.012   2.824   3.609  1.1654 -0.9932  1.6425
18003SOL    HW256902   8.914   2.709   3.611 -0.4419  0.2913  0.5005
18004SOL     OW56903   2.887   1.921   4.929  0.6344  0.1431  0.0585
18004SOL    HW156904   2.839   1.971   4.863 -0.1994  2.9236  2.5490
18004SOL    HW256905   2.978   1.946   4.916  0.4040  1.1483  0.2828
18005SOL     OW56906   8.147   6.222   4.496 -0.6388  0.5714 -0.5327
18005SOL    HW156907   8.235   6.258   4.484  0.7854 -2.4770 -0.0036
18005SOL    HW256908   8.141   6.150   4.434 -2.1025 -0.3829  0.6435
18006SOL     OW56909   2.817   6.135   5.073 -0.5812  0.4086  0.3697
18006SOL    HW156910   2.779   6.215   5.037 -2.9072 -0.2581  1.1586
18006SOL    HW256911   2.749   6.069   5.062  1.2422 -1.4839 -0.2044
18007SOL     OW56912   2.063   5.921   9.254 -0.3287  0.1599  0.3309
18007SOL    HW156913   1.971   5.921   9.230 -0.7754 -0.1578  1.9524
18007SOL    HW256914   2.081   5.833   9.285  0.0905  0.6317  1.5104
18008SOL     OW56915   4.383   8.691   5.567  0.0017  0.3217  0.0700
18008SOL    HW156916   4.430   8.721   5.490  0.4944  0.6368  0.4849
18008SOL    HW256917   4.342   8.609   5.540  1.4539 -0.3933 -0.0794
18009SOL     OW56918   3.889   2.952   7.353  0.3153 -0.8980  0.4744
18009SOL    HW156919   3.820   2.912   7.299  1.2789  1.6029 -2.9822
18009SOL    HW256920   3.845   2.981   7.432 -1.5668 -3.4171  0.4604
18010SOL     OW56921   9.531   1.666   3.800 -0.2358 -0.2495 -0.7663
18010SOL    HW156922   9.459   1.647   3.739 -0.3508 -0.7666 -0.4794
18010SOL    HW256923   9.542   1.584   3.848 -1.8719  0.8791  1.7349
18011SOL     OW56924   1.786   5.161   6.522  0.1667  0.1545 -0.5200
18011SOL    HW156925   1.715   5.137   6.461  0.3214 -2.9087  0.3520
18011SOL    HW256926   1.745   5.157   6.608  1.0666 -0.2366 -0.1057
18012SOL     OW56927   9.250   9.586   2.556 -0.0278 -0.0859 -0.4436
18012SOL    HW156928   9.341   9.604   2.581  0.0806 -0.7314 -0.3359
18012SOL    HW256929   9.255   9.502   2.510 -0.4691  0.2374 -1.0943
18013SOL     OW56930   6.925   7.514   2.365 -0.1774 -0.4475  0.0849
18013SOL    HW156931   6.961   7.428   2.343 -0.3298 -0.8520  1.3538
18013SOL    HW256932   6.967   7.574   2.303  2.5361 -0.9317  1.3177
18014SOL     OW56933   6.809   8.504   8.163 -0.3372 -0.1695 -0.1045
18014SOL    HW156934   6.758   8.527   8.241 -0.5611 -0.8645 -0.0406
18014SOL    HW256935   6.754   8.534   8.090 -0.0441  0.6504 -0.0017
18015SOL     OW56936   3.445   3.091   6.388 -0.0049  0.4266  0.0848
18015SOL    HW156937   3.430   3.107   6.482 -1.7322  0.8518 -0.2190
18015SOL    HW256938   3.540   3.095   6.378  0.2697 -0.3820  1.9438
18016SOL     OW56939   1.738   3.130   7.231 -0.3402  0.3064 -0.3418
18016SOL    HW156940   1.686   3.069   7.283 -0.5753  0.1045 -0.8078
18016SOL    HW256941   1.736   3.212   7.281  1.1769 -0.4328  1.0070
18017SOL     OW56942   2.528   5.308   6.176  0.1652  0.0155 -0.0857
18017SOL    HW156943   2.509   5.284   6.266 -0.5379  1.2615  0.1291
18017SOL    HW256944   2.605   5.365   6.181  0.2235 -0.0429 -0.2921
18018SOL     OW56945   7.670   9.512   3.097 -0.1045 -0.0503 -0.6859
18018SOL    HW156946   7.608   9.506   3.170 -1.4962 -0.1221 -1.8467
18018SOL    HW256947   7.714   9.596   3.109 -1.2311  0.5211 -0.4590
18019SOL     OW56948   1.936   2.094   2.258 -0.2076  0.3138 -1.1663
18019SOL    HW156949   1.918   2.096   2.352  2.2235  2.5626 -0.6372
18019SOL    HW256950   1.858   2.053   2.219 -1.7716  0.3521  1.6923
18020SOL     OW56951   1.701   3.374   9.467  0.3172  0.2120 -0.2211
18020SOL    HW156952   1.701   3.322   9.548 -1.1637  1.1275  0.4037
18020SOL    HW256953   1.646   3.325   9.406  0.9285 -0.1634 -0.4848
18021SOL     OW56954   5.012   9.358   8.435 -0.5279 -0.3767 -0.0738
18021SOL    HW156955   5.022   9.275   8.481  0.8210 -0.6148 -0.7607
18021SOL    HW256956   4.995   9.422   8.505 -2.8121 -1.3671  0.3637
18022SOL     OW56957   6.845   0.179   7.871  0.7920 -0.1701 -1.0391
18022SOL    HW156958   6.824   0.109   7.933  1.1252  1.0320  0.4804
18022SOL    HW256959   6.840   0.137   7.785  1.4789 -2.1840 -0.1547
18023SOL     OW56960   0.239   8.940   3.147 -0.1226  0.1310  0.3574
18023SOL    HW156961   0.236   8.888   3.227 -0.4839  0.8732  0.8321
18023SOL    HW256962   0.179   8.894   3.087 -1.1763  0.5068  1.0923
18024SOL     OW56963   3.422   3.730   3.759  0.6759  0.0887 -0.4454
18024SOL    HW156964   3.357   3.765   3.698 -0.4117  0.3603  0.8227
18024SOL    HW256965   3.380   3.652   3.797  0.3765  1.1577  1.5615
18025SOL     OW56966   7.366   0.042   0.633  0.7037 -0.1617 -0.4981
18025SOL    HW156967   7.456   0.074   0.635  0.4765  0.4777 -0.1799
18025SOL    HW256968   7.355   0.005   0.546  1.2227 -0.0966 -0.5951
18026SOL     OW56969   7.167   8.387   2.655 -0.2875 -0.2022 -0.1009
18026SOL    HW156970   7.164   8.449   2.728 -1.1104  0.1237 -0.4027
18026SOL    HW256971   7.102   8.420   2.592 -0.3031 -1.0302 -0.5371
18027SOL     OW56972   2.582   9.575   5.946 -0.4545  0.3517 -0.0739
18027SOL    HW156973   2.589   9.662   5.986 -2.0516  0.9198 -0.9331
18027SOL    HW256974   2.583   9.592   5.852  1.1492 -0.7719 -0.2989
18028SOL     OW56975   3.164   8.727   8.576  0.4963  0.3374  0.1904
18028SOL    HW156976   3.257   8.721   8.598  0.5230 -1.6170 -0.3204
18028SOL    HW256977   3.161   8.792   8.506  1.4585  0.4941  0.2806
18029SOL     OW56978   3.460   9.107   3.577  0.3858 -0.3400  0.0306
18029SOL    HW156979   3.519   9.047   3.532  0.3189  0.1235 -0.6949
18029SOL    HW256980   3.517   9.163   3.629  0.8179  1.3404 -2.1024
18030SOL     OW56981   5.074   1.894   6.407 -0.3801  0.4414  0.3192
18030SOL    HW156982   4.990   1.870   6.369  0.0299 -0.8218  0.1622
18030SOL    HW256983   5.059   1.981   6.444 -1.0185  1.3934 -1.9865
18031SOL     OW56984   6.103   0.375   9.413  0.6293  0.2763  0.3416
18031SOL    HW156985   6.064   0.370   9.326 -0.7583  1.0134  0.8914
18031SOL    HW256986   6.031   0.353   9.473  1.8090 -1.2718  1.2761
18032SOL     OW56987   0.957   9.360   5.073 -0.1060 -0.4831  0.0241
18032SOL    HW156988   1.016   9.381   5.000 -0.2174  0.7488  0.2583
18032SOL    HW256989   0.954   9.441   5.124  0.4777 -1.5144  1.7740
18033SOL     OW56990   1.217   3.649   6.859  0.4476 -0.7460 -0.1955
18033SOL    HW156991   1.313   3.643   6.862  0.5530  0.5754 -0.4317
18033SOL    HW256992   1.194   3.703   6.934 -0.1825 -1.5789  0.2271
18034SOL     OW56993   6.583   1.711   5.408 -0.0612 -0.3468  0.0427
18034SOL    HW156994   6.570   1.803   5.385 -1.1416 -0.6802 -0.7432
18034SOL    HW256995   6.678   1.699   5.401 -0.0712  0.2457 -1.7178
18035SOL     OW56996   6.310   7.016   4.427 -0.3336 -0.1173  0.6384
18035SOL    HW156997   6.278   6.994   4.515  1.2749 -0.0067  1.2923
18035SOL    HW256998   6.366   7.093   4.441 -1.3949  0.9754 -0.7678
18036SOL     OW56999   5.539   9.552   8.437 -0.7865 -0.3062 -0.4079
18036SOL    HW157000   5.518   9.604   8.514 -0.1667  0.3426 -0.6634
18036SOL    HW257001   5.489   9.471   8.447 -0.6917 -0.2361  0.6775
18037SOL     OW57002   7.686   6.606   7.301 -0.1884 -0.4844  0.1654
18037SOL    HW157003   7.757   6.658   7.339 -0.0691 -0.6800  0.2116
18037SOL    HW257004   7.608   6.660   7.312  0.4599  1.4728 -3.2088
18038SOL     OW57005   4.664   9.020   7.802 -0.3186 -0.2989 -0.3321
18038SOL    HW157006   4.652   9.112   7.782  4.0972  0.9841  1.7566
18038SOL    HW257007   4.608   9.004   7.878 -0.3102  1.0012 -0.0392
18039SOL     OW57008   4.273   0.177   3.302  0.5993  0.2448 -0.1721
18039SOL    HW157009   4.365   0.181   3.331  0.4159 -0.5714  0.5589
18039SOL    HW257010   4.235   0.106   3.353 -0.0778 -0.4230 -1.5535
18040SOL     OW57011   9.417   1.941   0.037  0.0110 -0.9642  0.1708
18040SOL    HW157012   9.413   2.011  -0.029  1.2846 -1.4952 -0.5012
18040SOL    HW257013   9.331   1.899   0.032 -0.1248 -0.6095 -0.7386
18041SOL     OW57014   2.407   6.798   2.696  0.1927 -0.3415  0.1410
18041SOL    HW157015   2.411   6.811   2.601 -2.5218  2.8162  0.2856
18041SOL    HW257016   2.334   6.738   2.710  0.4857 -0.6743  0.2577
18042SOL     OW57017   9.189   8.720   5.759 -0.9824  0.3550 -0.5649
18042SOL    HW157018   9.193   8.663   5.836 -1.5231  0.2374 -0.6128
18042SOL    HW257019   9.145   8.666   5.693 -2.0156  1.0070 -0.4387
18043SOL     OW57020   9.350   8.639   5.377  0.1592  0.0010 -0.0841
18043SOL    HW157021   9.299   8.718   5.391  2.8873  2.4753 -2.7732
18043SOL    HW257022   9.430   8.653   5.429  1.7740  0.3413 -2.4902
18044SOL     OW57023   5.231   9.399   6.476  0.0021  0.3857  0.1128
18044SOL    HW157024   5.299   9.465   6.486 -0.3187  0.8769 -0.7860
18044SOL    HW257025   5.244   9.365   6.387  0.0883 -0.6819  0.5183
18045SOL     OW57026   2.621   5.226   0.939  0.2681 -0.0112  0.0891
18045SOL    HW157027   2.712   5.247   0.919  0.9369 -1.9895  0.8247
18045SOL    HW257028   2.585   5.308   0.974  1.6393  0.9061 -0.5580
18046SOL     OW57029   6.771   2.943   9.538  0.2318 -1.0207 -0.4575
18046SOL    HW157030   6.842   2.935   9.602  0.3907 -1.8684 -0.7372
18046SOL    HW257031   6.800   3.014   9.480 -0.0954  0.0329  0.6242
18047SOL     OW57032   4.238   4.805   6.301 -0.3039  0.1049  0.0717
18047SOL    HW157033   4.197   4.740   6.358  0.1502  0.3050  0.6389
18047SOL    HW257034   4.309   4.842   6.353  0.6936 -0.3233 -0.9338
18048SOL     OW57035   8.269   5.927   8.429 -0.0826  0.3377  0.2027
18048SOL    HW157036   8.274   5.892   8.340 -0.2863 -0.4275  0.4857
18048SOL    HW257037   8.219   6.008   8.420 -1.4808 -0.5396 -0.1420
18049SOL     OW57038   9.044   5.776   1.103  0.5517 -0.2279 -0.0279
18049SOL    HW157039   9.079   5.745   1.186 -1.5263 -0.8491  0.6856
18049SOL    HW257040   8.964   5.725   1.090 -0.8762  2.0492 -0.8354
18050SOL     OW57041   0.677   4.969   3.646  0.0184 -0.3682  0.3526
18050SOL    HW157042   0.607   4.913   3.613 -0.8204 -0.0825  1.5691
18050SOL    HW257043   0.648   5.058   3.627  0.8418 -0.2890 -0.6102
18051SOL     OW57044   9.019   1.335   3.707  0.7369 -0.3950  0.4540
18051SOL    HW157045   8.946   1.377   3.752  1.5238  0.2264  1.1831
18051SOL    HW257046   8.977   1.280   3.640 -0.3701  0.6226  0.2608
18052SOL     OW57047   2.038   3.312   7.059  0.3265  0.1164  0.2507
18052SOL    HW157048   2.081   3.395   7.040  0.7066 -0.2541 -0.5218
18052SOL    HW257049   1.948   3.336   7.081  0.7872  0.8588  1.4649
18053SOL     OW57050   6.176   1.125   3.314 -0.2658  0.9356 -0.8566
18053SOL    HW157051   6.231   1.203   3.308  0.5052  0.4396 -0.4462
18053SOL    HW257052   6.117   1.143   3.387 -1.8928  2.2031 -2.3827
18054SOL     OW57053   9.098   1.634   4.417 -0.0694  0.3913 -0.2400
18054SOL    HW157054   9.118   1.590   4.334 -1.4246 -1.6855  0.4761
18054SOL    HW257055   9.178   1.682   4.438  1.5637 -1.7944 -1.0422
18055SOL     OW57056   7.800   8.744   8.221 -0.1499  0.1443 -0.1944
18055SOL    HW157057   7.710   8.747   8.253  0.2609 -1.3348  1.2487
18055SOL    HW257058   7.853   8.724   8.298  1.6837  2.8144 -0.6226
18056SOL     OW57059   6.845   0.645   2.997  0.4453  0.5173 -0.2114
18056SOL    HW157060   6.815   0.587   3.067 -1.4711 -0.7053 -1.9312
18056SOL    HW257061   6.938   0.660   3.016  0.6161 -1.8435  1.1875
18057SOL     OW57062   5.788   9.526   9.554 -0.6732 -0.6273  0.3788
18057SOL    HW157063   5.761   9.447   9.600 -1.0007  0.0174  1.3330
18057SOL    HW257064   5.884   9.525   9.558 -0.7017 -0.4550  1.3231
18058SOL     OW57065   8.866   2.607   8.428  0.0006 -0.4803 -0.1248
18058SOL    HW157066   8.835   2.579   8.514  2.0143 -0.1026  0.7940
18058SOL    HW257067   8.824   2.548   8.366 -0.5441 -1.5603  1.2386
18059SOL     OW57068   2.534   3.721   2.068  0.5500 -0.6059 -0.0035
18059SOL    HW157069   2.561   3.706   2.158 -2.1902  0.7082  1.1560
18059SOL    HW257070   2.499   3.637   2.039 -0.8966 -0.4401  1.1306
18060SOL     OW57071   2.381   5.831   0.396  0.0805 -0.1609  0.0260
18060SOL    HW157072   2.313   5.766   0.379  0.9651 -1.4831  1.2775
18060SOL    HW257073   2.425   5.843   0.312  0.9429 -2.4663  0.0726
18061SOL     OW57074   3.548   2.501   9.236 -0.1239  0.6325 -0.0589
18061SOL    HW157075   3.514   2.456   9.159  0.3000  0.0711  0.0727
18061SOL    HW257076   3.549   2.433   9.304 -1.3169  1.3301  0.6878
18062SOL     OW57077   3.322   3.964   5.906  0.0313 -1.0902  0.2298
18062SOL    HW157078   3.370   3.962   5.990 -2.0497 -0.0292  1.5154
18062SOL    HW257079   3.331   4.054   5.875 -3.6713  0.1551  2.1815
18063SOL     OW57080   2.792   0.772   8.546  0.4206 -0.1627 -0.4057
18063SOL    HW157081   2.820   0.696   8.494  1.6209  0.6294 -0.9576
18063SOL    HW257082   2.828   0.848   8.499 -2.0344  0.8966 -0.7328
18064SOL     OW57083   4.847   0.515   8.326 -0.0469 -0.0331  0.4324
18064SOL    HW157084   4.921   0.478   8.278  0.6044  2.1396 -0.3700
18064SOL    HW257085   4.886   0.586   8.378 -1.3391  0.1399  1.1997
18065SOL     OW57086   5.211   6.994   7.447  0.0435  0.1164  0.3629
18065SOL    HW157087   5.283   6.964   7.391 -0.1407 -0.3345  0.3664
18065SOL    HW257088   5.133   6.950   7.412 -0.1373  0.1543  0.7172
18066SOL     OW57089   0.264   1.350   9.135  0.4570 -0.2754 -0.3962
18066SOL    HW157090   0.239   1.330   9.045  0.2529  1.0859 -0.6680
18066SOL    HW257091   0.349   1.394   9.127  0.7008 -0.6406  0.1268
18067SOL     OW57092   0.672   0.160   8.222 -0.4452  0.2192  0.1575
18067SOL    HW157093   0.601   0.207   8.178  1.1143  0.9537 -1.7387
18067SOL    HW257094   0.733   0.228   8.249  0.5989 -0.5133 -0.2837
18068SOL     OW57095   4.133   1.232   3.699  0.1636 -0.0240 -0.5032
18068SOL    HW157096   4.064   1.284   3.741  1.1431 -0.6185  2.0138
18068SOL    HW257097   4.107   1.141   3.715  0.9935 -0.2555 -0.4607
18069SOL     OW57098   9.038   7.328   9.017  0.1065 -0.7014 -0.5401
18069SOL    HW157099   9.020   7.278   9.097  0.4788 -0.8476 -0.5476
18069SOL    HW257100   9.008   7.271   8.946  2.8111 -2.0222 -0.7159
18070SOL     OW57101   5.214   9.445   9.296  0.1059  0.2682 -0.0723
18070SOL    HW157102   5.206   9.353   9.321  0.3927  0.7808  2.0913
18070SOL    HW257103   5.269   9.484   9.364 -1.8384  2.4926  0.3628
18071SOL     OW57104   6.145   9.362   3.253  0.1590 -0.2005 -1.0349
18071SOL    HW157105   6.171   9.310   3.177  2.2294 -1.9046  0.6972
18071SOL    HW257106   6.167   9.307   3.328 -1.3431  1.6038  0.8359
18072SOL     OW57107   1.070   5.889   6.276 -0.1888  0.4107  0.3443
18072SOL    HW157108   1.149   5.937   6.252  0.1229 -1.5237 -3.2219
18072SOL    HW257109   1.083   5.801   6.240 -2.1781 -1.4093  3.4946
18073SOL     OW57110   0.151   9.350   0.134 -0.4926 -0.1057 -0.2049
18073SOL    HW157111   0.075   9.347   0.076 -1.0888 -0.5628  0.5806
18073SOL    HW257112   0.207   9.418   0.096 -0.5753 -0.8019 -1.6504
18074SOL     OW57113   3.192   0.429   7.495  0.3072  0.5505 -0.2029
18074SOL    HW157114   3.277   0.429   7.539  0.7968 -1.1427 -1.0566
18074SOL    HW257115   3.155   0.344   7.516  0.4018 -0.1766 -2.6946
18075SOL     OW57116   3.414   6.595   4.589 -0.2786 -0.4167  0.5022
18075SOL    HW157117   3.406   6.507   4.551 -0.8624 -0.3199  0.3897
18075SOL    HW257118   3.508   6.608   4.599 -0.1463 -0.7282 -0.2583
18076SOL     OW57119   1.230   6.420   4.806  0.5491  0.4201  0.1436
18076SOL    HW157120   1.289   6.418   4.731  0.7910 -0.0117  0.3441
18076SOL    HW257121   1.282   6.388   4.880 -0.1986 -0.8893  0.1299
18077SOL     OW57122   2.159   8.530   6.160  0.0573 -0.0601  0.0868
18077SOL    HW157123   2.075   8.548   6.119 -0.0868 -0.1349  0.3507
18077SOL    HW257124   2.213   8.496   6.088  0.1740  0.9146 -0.3015
18078SOL     OW57125   2.535   3.873   0.762 -0.3390  0.3555 -0.6107
18078SOL    HW157126   2.513   3.794   0.810  1.1415  0.6036  0.5499
18078SOL    HW257127   2.507   3.945   0.819  2.1250  0.6591  0.3410
18079SOL     OW57128   8.514   5.337   4.262  0.0753 -0.8762  0.1218
18079SOL    HW157129   8.543   5.261   4.314  0.2559 -0.3612  0.7924
18079SOL    HW257130   8.574   5.407   4.288 -0.6519 -0.2689  0.1839
18080SOL     OW57131   1.603   1.680   7.436  0.0147 -0.0099  0.3045
18080SOL    HW157132   1.685   1.693   7.389  0.3846 -2.2104  0.2140
18080SOL    HW257133   1.544   1.638   7.372  0.2341 -2.2119  1.4274
18081SOL     OW57134   8.708   1.517   0.056 -0.1625  0.3461  0.5958
18081SOL    HW157135   8.649   1.590   0.036 -0.2826  0.2826  0.7225
18081SOL    HW257136   8.686   1.450  -0.008 -0.2805  0.2923  0.6937
18082SOL     OW57137   8.105   5.417   7.648  0.4108 -0.2302  0.5506
18082SOL    HW157138   8.149   5.369   7.578 -0.2424  0.8138 -0.5988
18082SOL    HW257139   8.086   5.350   7.714  0.7868 -1.2833 -0.3738
18083SOL     OW57140   1.448   9.003   0.080 -0.5724 -0.5241  0.5559
18083SOL    HW157141   1.543   8.999   0.093 -0.6485 -0.3045  1.2280
18083SOL    HW257142   1.436   9.066   0.009 -0.1887 -0.9934  0.0629
18084SOL     OW57143   3.013   1.161   9.524 -0.0533 -0.0010  0.6714
18084SOL    HW157144   2.989   1.139   9.614 -1.2183 -0.1935  0.3361
18084SOL    HW257145   3.043   1.251   9.528 -0.7480  0.2144  1.1532
18085SOL     OW57146   1.308   2.005   6.997 -0.1626 -0.5613  0.3909
18085SOL    HW157147   1.244   1.956   6.947 -0.0363 -0.6706  0.3342
18085SOL    HW257148   1.258   2.074   7.041  0.0976  1.3432 -2.1111
18086SOL     OW57149   2.255   6.982   3.180 -0.4612  0.0228 -0.7021
18086SOL    HW157150   2.188   6.919   3.208 -0.5101  0.8345  1.1261
18086SOL    HW257151   2.318   6.929   3.131  0.2477 -1.7919  1.9765
18087SOL     OW57152   8.362   7.236   6.306  0.3596  0.0073  0.7066
18087SOL    HW157153   8.299   7.179   6.350 -1.1875 -0.1448 -1.5514
18087SOL    HW257154   8.316   7.320   6.297  0.5901  0.0069 -0.6572
18088SOL     OW57155   2.716   2.076   2.596  0.1115 -0.4439  0.1363
18088SOL    HW157156   2.649   2.095   2.531 -2.1959 -2.9105  1.6027
18088SOL    HW257157   2.698   2.136   2.668  1.3853  0.8686 -0.5776
18089SOL     OW57158   9.129   6.922   1.191  0.3415 -0.8082  0.1518
18089SOL    HW157159   9.061   6.967   1.240 -0.0291 -0.3172 -0.7901
18089SOL    HW257160   9.189   6.991   1.163  1.3193 -1.2563  1.0978
18090SOL     OW57161   0.044   1.451   0.254 -0.8314  0.3050 -0.1870
18090SOL    HW157162   0.002   1.507   0.189 -3.3646 -0.9796  0.2305
18090SOL    HW257163  -0.014   1.376   0.263  1.0668 -1.1127  1.2512
18091SOL     OW57164   8.758   5.463   6.713 -0.1394  0.4242 -0.4143
18091SOL    HW157165   8.721   5.378   6.690 -2.5874  0.6489  2.1497
18091SOL    HW257166   8.684   5.514   6.745  1.5050  3.0329 -0.4284
18092SOL     OW57167   9.472   1.510   7.432  0.4501  0.0622 -0.1873
18092SOL    HW157168   9.517   1.594   7.427  1.4440 -0.3421  1.3580
18092SOL    HW257169   9.451   1.500   7.525 -1.3536 -0.5555 -0.6131
18093SOL     OW57170   5.943   7.878   7.919  0.2304 -0.0476  0.1542
18093SOL    HW157171   5.886   7.953   7.931  0.4069 -0.0257  0.8857
18093SOL    HW257172   5.887   7.812   7.878 -0.1162  0.2332  0.1707
18094SOL     OW57173   0.472   5.016   9.447 -0.2052 -0.3616 -0.2566
18094SOL    HW157174   0.500   4.934   9.489  0.1458  0.3228  0.8899
18094SOL    HW257175   0.382   5.028   9.475 -0.5773 -0.8378 -1.2139
18095SOL     OW57176   0.524   3.655   9.567 -0.6117  0.0289 -0.1692
18095SOL    HW157177   0.481   3.735   9.536 -1.2501 -0.4712 -0.6079
18095SOL    HW257178   0.612   3.660   9.530 -0.5208  0.6962  0.1063
18096SOL     OW57179   7.894   1.454   4.474 -0.1690 -0.2843 -0.0914
18096SOL    HW157180   7.940   1.387   4.423  0.3264 -1.3059  1.6177
18096SOL    HW257181   7.910   1.430   4.566 -0.9502  1.5266  0.5694
18097SOL     OW57182   4.288   5.808   3.770 -0.2110  0.0938  0.0211
18097SOL    HW157183   4.356   5.742   3.782  0.3921  1.0096  2.0630
18097SOL    HW257184   4.334   5.892   3.779 -1.1772  0.8026 -1.2511
18098SOL     OW57185   9.038   6.402   1.201 -0.2339 -0.3650 -0.2734
18098SOL    HW157186   8.955   6.449   1.204 -1.0019 -1.7629  1.3055
18098SOL    HW257187   9.090   6.441   1.271 -0.0818 -0.4585 -0.3341
18099SOL     OW57188   7.788   1.381   8.611 -0.0893 -0.1722 -0.8196
18099SOL    HW157189   7.806   1.411   8.522  1.3332  0.4415 -0.3637
18099SOL    HW257190   7.855   1.315   8.629 -0.5921 -0.5626 -0.3301
18100SOL     OW57191   0.605   5.270   2.380 -0.4547 -0.3568  0.6525
18100SOL    HW157192   0.629   5.179   2.360  2.0371  0.5030 -0.6941
18100SOL    HW257193   0.624   5.318   2.300  1.9320  1.9376  2.4136
18101SOL     OW57194   3.607   9.411   7.945 -0.0465  0.1250  0.1448
18101SOL    HW157195   3.610   9.355   7.868 -2.0017 -0.5610  0.5331
18101SOL    HW257196   3.528   9.385   7.992 -0.2182  2.1800  1.1234
18102SOL     OW57197   2.542   5.959   7.506 -0.0517  0.0235  0.5252
18102SOL    HW157198   2.594   6.017   7.450 -0.2266 -0.7296 -0.4241
18102SOL    HW257199   2.456   5.957   7.466  0.2575 -1.7927 -0.1171
18103SOL     OW57200   8.786   5.071   7.494 -0.4849  0.0351  0.0181
18103SOL    HW157201   8.810   5.162   7.473  2.6274 -0.7088 -0.0932
18103SOL    HW257202   8.759   5.074   7.586 -0.6436  1.0909 -0.0495
18104SOL     OW57203   8.415   5.474   8.224  0.2231 -0.3681  0.2759
18104SOL    HW157204   8.322   5.498   8.220  0.5353  0.7584 -1.2812
18104SOL    HW257205   8.461   5.557   8.211  1.4591 -0.9742  0.6776
18105SOL     OW57206   7.518   3.662   5.281  0.3245  0.2560  0.1415
18105SOL    HW157207   7.446   3.619   5.235  0.6559 -0.6697  0.4675
18105SOL    HW257208   7.582   3.681   5.213 -0.0070  0.6096 -0.0700
18106SOL     OW57209   3.728   0.259   0.912 -1.1867 -0.0254  0.4416
18106SOL    HW157210   3.664   0.223   0.851  0.0028 -1.8486  0.2025
18106SOL    HW257211   3.733   0.196   0.983  0.8207 -0.3108  0.1147
18107SOL     OW57212   7.732   5.567   5.344 -0.1450 -0.3335  0.0265
18107SOL    HW157213   7.792   5.587   5.416 -0.2321  1.4650 -0.3694
18107SOL    HW257214   7.750   5.634   5.278 -1.3929 -0.8093 -0.8290
18108SOL     OW57215   2.279   6.073   2.851 -0.6789  0.1122  0.1369
18108SOL    HW157216   2.343   6.133   2.888  0.5488 -0.6521 -0.6955
18108SOL    HW257217   2.227   6.044   2.927 -0.5270  1.2900  0.7067
18109SOL     OW57218   8.704   3.955   4.004  0.3641  0.2137 -0.1092
18109SOL    HW157219   8.715   3.968   4.098 -2.0073 -0.2426  0.3171
18109SOL    HW257220   8.649   4.029   3.976 -2.2311 -1.6196 -0.2690
18110SOL     OW57221   2.884   2.420   8.291 -0.4249 -0.1666 -0.0819
18110SOL    HW157222   2.895   2.428   8.386  1.6649 -1.1725 -0.2039
18110SOL    HW257223   2.872   2.511   8.261  0.6325  0.3417  0.9556
18111SOL     OW57224   0.517   3.315   0.618  0.4812  0.4412 -0.1941
18111SOL    HW157225   0.442   3.309   0.677  1.4529  1.8886  1.2500
18111SOL    HW257226   0.579   3.251   0.652 -0.0035 -0.6815 -1.3287
18112SOL     OW57227   6.848   2.853   8.381 -0.0587  0.7603  0.3327
18112SOL    HW157228   6.827   2.841   8.473  1.0224  1.6412  0.7147
18112SOL    HW257229   6.763   2.853   8.337 -0.5290 -0.6969  1.1800
18113SOL     OW57230   8.935   7.054   3.453  0.2500 -0.3423 -0.1847
18113SOL    HW157231   8.898   7.142   3.455  2.1968  0.5383 -0.1623
18113SOL    HW257232   8.933   7.026   3.545  1.4077  0.5275  0.1406
18114SOL     OW57233   2.819   1.689   6.654 -0.0895 -0.5982  0.1844
18114SOL    HW157234   2.794   1.697   6.746  0.0970  0.5448  0.1427
18114SOL    HW257235   2.911   1.713   6.651  0.0979 -1.3241 -0.2064
18115SOL     OW57236   4.282   7.544   5.481 -0.6530  0.5756  0.5397
18115SOL    HW157237   4.204   7.531   5.428 -1.2631  0.9283  1.3283
18115SOL    HW257238   4.249   7.561   5.570  0.3096  0.7989  0.8747
18116SOL     OW57239   6.259   5.082   0.553 -0.6578  0.1416  0.0653
18116SOL    HW157240   6.336   5.049   0.599  0.0704  1.6880  0.0021
18116SOL    HW257241   6.262   5.040   0.467 -0.7917 -1.0390  0.6180
18117SOL     OW57242   6.695   2.048   6.035  0.1885 -0.0400  1.0837
18117SOL    HW157243   6.742   1.994   6.100 -0.8827  0.0542  1.9685
18117SOL    HW257244   6.617   1.998   6.014 -1.3663  1.5660  2.7103
18118SOL     OW57245   5.486   5.002   2.206  0.1137 -0.1686  0.0754
18118SOL    HW157246   5.408   4.997   2.151 -0.3455 -0.7118  0.7670
18118SOL    HW257247   5.550   5.048   2.151 -0.6443  0.1809 -0.5443
18119SOL     OW57248   0.397   6.742   4.805  0.7753 -0.7573  0.4511
18119SOL    HW157249   0.313   6.788   4.803  0.4596 -1.2983 -2.0020
18119SOL    HW257250   0.382   6.666   4.861 -0.0835 -0.3435  0.8030
18120SOL     OW57251   7.439   7.402   3.153 -0.2717  0.6264 -0.6560
18120SOL    HW157252   7.443   7.313   3.118  0.6385  0.5091 -0.2845
18120SOL    HW257253   7.403   7.392   3.241 -1.7109  0.8206 -1.2041
18121SOL     OW57254   2.799   0.913   0.535  0.1438 -0.0337 -0.4180
18121SOL    HW157255   2.756   0.827   0.532 -0.2236  0.1696 -1.3122
18121SOL    HW257256   2.758   0.958   0.608  0.7819 -0.8361  0.4743
18122SOL     OW57257   5.339   6.912   3.855 -0.0101  0.3342 -0.1712
18122SOL    HW157258   5.335   6.916   3.759  1.0559 -1.1761 -0.3269
18122SOL    HW257259   5.290   6.833   3.877  2.5374 -1.2614  0.1950
18123SOL     OW57260   8.196   8.253   0.955 -0.1924 -0.2359 -0.0811
18123SOL    HW157261   8.171   8.345   0.943 -1.4569 -0.5181  0.2380
18123SOL    HW257262   8.195   8.216   0.866  1.7778  0.3715 -0.4117
18124SOL     OW57263   3.433   4.306   2.236 -0.0146 -0.1316  1.0370
18124SOL    HW157264   3.498   4.370   2.264  0.4641  1.1222 -2.5399
18124SOL    HW257265   3.353   4.357   2.223 -0.2139 -0.6332  0.2054
18125SOL     OW57266   7.207   1.770   4.924 -0.2362 -0.0534 -0.6920
18125SOL    HW157267   7.298   1.745   4.910 -0.4125 -0.4500 -1.1172
18125SOL    HW257268   7.165   1.691   4.957 -0.1580  0.4579  0.6963
18126SOL     OW57269   8.917   3.797   4.484 -0.1664  0.4060 -0.2236
18126SOL    HW157270   8.844   3.793   4.545  0.8301 -3.0780  0.9704
18126SOL    HW257271   8.921   3.889   4.457 -2.3984  1.5517  2.7932
18127SOL     OW57272   3.507   2.722   7.440  0.1754  0.1802 -0.0870
18127SOL    HW157273   3.443   2.673   7.493 -0.3176 -0.5121 -1.2908
18127SOL    HW257274   3.580   2.662   7.429  0.3100  0.3539 -0.1347
18128SOL     OW57275   5.987   0.341   1.908  0.1781  0.2907 -0.0832
18128SOL    HW157276   6.070   0.376   1.941  0.3488 -0.9960  0.9299
18128SOL    HW257277   5.983   0.252   1.941 -1.7056  0.3783  0.0733
18129SOL     OW57278   4.030   0.838   8.877  0.7330  0.2097  0.3053
18129SOL    HW157279   3.993   0.847   8.965  0.6507  0.4677  0.2428
18129SOL    HW257280   4.020   0.745   8.857 -0.4283  0.3740  0.0485
18130SOL     OW57281   4.383   7.358   2.944  0.2890 -0.0053  0.2326
18130SOL    HW157282   4.320   7.376   2.874  1.1876  1.3271 -0.2677
18130SOL    HW257283   4.467   7.388   2.910  0.9322 -0.2732  1.5055
18131SOL     OW57284   3.000   1.420   0.479  0.3410 -0.6804  0.4248
18131SOL    HW157285   3.032   1.411   0.569 -1.6427 -0.0190  1.2465
18131SOL    HW257286   2.906   1.432   0.488  0.1509 -0.1380 -1.7359
18132SOL     OW57287   6.105   3.812   3.760 -0.4502  0.6340 -0.1098
18132SOL    HW157288   6.131   3.867   3.833  0.3557 -0.2376  0.2749
18132SOL    HW257289   6.186   3.770   3.731 -0.9721 -0.0047 -0.6805
18133SOL     OW57290   6.216   6.279   0.760  0.6139  0.2701  0.0142
18133SOL    HW157291   6.128   6.306   0.734  0.5329 -0.0633 -0.0613
18133SOL    HW257292   6.217   6.185   0.746  1.7965  0.5844 -2.3394
18134SOL     OW57293   7.367   6.579   9.473 -0.3001  0.5515  0.1972
18134SOL    HW157294   7.380   6.673   9.461 -1.2237  0.8230  1.0870
18134SOL    HW257295   7.413   6.538   9.400 -0.6870  1.7433 -0.7561
18135SOL     OW57296   1.711   7.852   5.944  0.8542 -0.7831  0.1505
18135SOL    HW157297   1.733   7.939   5.978  0.6435 -0.1855 -1.2030
18135SOL    HW257298   1.795   7.817   5.914  1.1154 -1.4888  1.6001
18136SOL     OW57299   6.715   3.079   1.119 -0.7316 -0.2685  0.0135
18136SOL    HW157300   6.756   3.022   1.054  0.6986  1.2553 -0.5073
18136SOL    HW257301   6.621   3.065   1.108 -0.4516 -2.1250 -0.4211
18137SOL     OW57302   7.109   6.750   5.174 -0.3681 -0.0196  0.7900
18137SOL    HW157303   7.023   6.747   5.215 -0.8925  2.3833  0.0281
18137SOL    HW257304   7.171   6.754   5.247 -1.2350  3.4510  1.4904
18138SOL     OW57305   9.020   5.939   1.476 -0.3484 -0.0875 -0.0722
18138SOL    HW157306   9.065   5.956   1.559 -0.9275  0.0132  0.2250
18138SOL    HW257307   9.086   5.955   1.409 -0.3293  1.4655  0.2817
18139SOL     OW57308   3.032   7.629   8.643  0.5355  0.4912 -0.2601
18139SOL    HW157309   3.002   7.548   8.685  0.5642  0.9244  0.6268
18139SOL    HW257310   3.125   7.634   8.663  0.2592  1.4427  0.9237
18140SOL     OW57311   4.902   0.254   6.124  0.3608  0.0964  0.3774
18140SOL    HW157312   4.976   0.266   6.064 -0.0091 -1.3706 -0.4303
18140SOL    HW257313   4.916   0.166   6.160  0.0254  0.5618  1.6930
18141SOL     OW57314   3.723   2.342   0.868 -1.0254  0.4789  0.0509
18141SOL    HW157315   3.701   2.310   0.780 -1.7377 -0.3006  0.4975
18141SOL    HW257316   3.649   2.397   0.893  0.4529  3.0829 -0.9487
18142SOL     OW57317   7.487   3.489   3.099  0.8692 -0.0796  0.4377
18142SOL    HW157318   7.512   3.426   3.031  1.0517  0.6093 -0.1328
18142SOL    HW257319   7.557   3.484   3.164  0.7378 -0.6750  0.5435
18143SOL     OW57320   6.009   0.831   0.820  0.0767  0.2695  1.0252
18143SOL    HW157321   5.993   0.924   0.838  0.0242  0.9161 -1.8383
18143SOL    HW257322   5.921   0.793   0.809  0.0648  0.8027 -1.4293
18144SOL     OW57323   2.969   1.808   4.276  0.0242  0.1090 -0.4389
18144SOL    HW157324   3.037   1.870   4.301  1.6198 -1.4391 -0.7747
18144SOL    HW257325   2.930   1.846   4.197 -1.1140  2.1348  0.9946
18145SOL     OW57326   2.869   8.912   5.425  0.0800  0.1803  0.1485
18145SOL    HW157327   2.943   8.886   5.371  0.0705 -0.1806  0.3056
18145SOL    HW257328   2.892   8.999   5.457 -0.1334  0.5974 -0.8201
18146SOL     OW57329   3.165   0.273   6.626 -0.3128 -0.0378 -0.0133
18146SOL    HW157330   3.070   0.284   6.631 -0.6748 -2.2780 -0.8707
18146SOL    HW257331   3.183   0.197   6.682  1.2465  1.4150  1.5753
18147SOL     OW57332   6.713   4.967   7.545 -0.5321 -0.1041  0.1517
18147SOL    HW157333   6.707   5.010   7.459 -0.4734  0.2283  0.3100
18147SOL    HW257334   6.666   5.026   7.604 -1.9658 -1.1242  0.0687
18148SOL     OW57335   8.844   8.756   8.270 -0.3971  0.0134 -0.1428
18148SOL    HW157336   8.832   8.830   8.211 -2.2061 -0.7945 -0.8841
18148SOL    HW257337   8.773   8.763   8.333  0.8986  0.2691  1.3565
18149SOL     OW57338   2.945   6.440   1.273  0.4147  0.9140 -0.1741
18149SOL    HW157339   2.914   6.526   1.303 -0.5451  0.4615  0.1994
18149SOL    HW257340   2.988   6.458   1.190 -1.0883  1.5873 -0.8615
18150SOL     OW57341   3.124   4.504   6.497  0.0005  0.2464 -0.4730
18150SOL    HW157342   3.121   4.410   6.513  0.7579 -0.3185 -3.0782
18150SOL    HW257343   3.143   4.542   6.582 -1.2039 -1.8576  0.8367
18151SOL     OW57344   1.147   6.783   0.838  0.4985  0.0637 -0.4303
18151SOL    HW157345   1.213   6.755   0.902  0.0847 -2.5738 -1.0403
18151SOL    HW257346   1.065   6.743   0.869 -0.5633  2.0645 -0.4862
18152SOL     OW57347   4.313   3.436   8.603  0.1836 -0.1188  0.1872
18152SOL    HW157348   4.328   3.357   8.656 -0.9333  0.0668  0.8112
18152SOL    HW257349   4.353   3.506   8.653 -0.4889 -0.0120  0.5960
18153SOL     OW57350   4.148   5.781   8.500  0.1570 -0.2960  0.0931
18153SOL    HW157351   4.075   5.739   8.455  1.1742 -0.8837 -1.0618
18153SOL    HW257352   4.122   5.782   8.592 -0.9130 -1.3049 -0.1786
18154SOL     OW57353   8.448   1.481   7.042  0.0778  0.2798 -0.4755
18154SOL    HW157354   8.478   1.505   7.129 -0.9261 -1.9514  0.5551
18154SOL    HW257355   8.527   1.478   6.988  0.7530  1.2573  0.4291
18155SOL     OW57356   5.888   2.476   6.136 -0.0126  0.0766 -0.0096
18155SOL    HW157357   5.820   2.518   6.084 -1.1900 -1.5444  0.1552
18155SOL    HW257358   5.841   2.428   6.204  1.3518 -0.2566  0.7547
18156SOL     OW57359   8.244   6.501   2.125  0.5833 -0.7924  0.3331
18156SOL    HW157360   8.310   6.433   2.134 -0.7792 -2.2196 -0.1235
18156SOL    HW257361   8.196   6.499   2.208 -1.0204 -2.1285 -0.5703
18157SOL     OW57362   5.402   3.302   5.011  0.1338 -0.0133 -0.4428
18157SOL    HW157363   5.365   3.342   4.933  1.6924 -2.2302 -2.4555
18157SOL    HW257364   5.492   3.334   5.015 -0.2427  0.9790  1.1823
18158SOL     OW57365   0.163   3.939   0.852  0.1854  0.0348  0.1633
18158SOL    HW157366   0.214   3.922   0.931 -0.9764 -0.7521  0.7683
18158SOL    HW257367   0.105   4.010   0.875  0.5151  0.4610 -0.3045
18159SOL     OW57368   6.193   4.451   5.086 -0.2724 -0.4852 -0.2390
18159SOL    HW157369   6.112   4.445   5.035 -0.5268 -1.5451  0.2533
18159SOL    HW257370   6.260   4.475   5.022 -0.9401  0.1974 -0.6922
18160SOL     OW57371   1.227   9.425   8.563  0.3129  0.1333  0.5814
18160SOL    HW157372   1.309   9.468   8.587  1.0306 -1.0526  0.3326
18160SOL    HW257373   1.170   9.497   8.534  1.5042  0.9120  0.0774
18161SOL     OW57374   1.714   7.780   1.795  0.1957  0.3829  0.2982
18161SOL    HW157375   1.666   7.729   1.860 -0.3606 -0.4778 -0.7552
18161SOL    HW257376   1.806   7.776   1.824 -0.0382 -0.0076  1.0089
18162SOL     OW57377   7.207   2.632   9.364  0.1157 -0.2507  0.3004
18162SOL    HW157378   7.259   2.625   9.444  2.5516 -0.9319 -1.2345
18162SOL    HW257379   7.272   2.640   9.294 -1.9306  1.1187 -1.5676
18163SOL     OW57380   4.499   4.693   8.275  0.7174 -0.0381 -0.2101
18163SOL    HW157381   4.445   4.728   8.204  1.3586 -1.2686 -1.3530
18163SOL    HW257382   4.502   4.763   8.339 -0.3506  0.9107 -1.1483
18164SOL     OW57383   1.960   2.849   5.879  0.4384 -0.1403 -0.7018
18164SOL    HW157384   1.916   2.866   5.963  0.5662  0.0581 -0.6733
18164SOL    HW257385   2.048   2.883   5.892 -0.1464  1.9163 -1.6368
18165SOL     OW57386   7.492   4.493   5.495  0.1285 -0.0754 -0.4239
18165SOL    HW157387   7.515   4.438   5.420 -0.2949  0.3527 -0.8766
18165SOL    HW257388   7.518   4.581   5.469 -1.7269  0.3810 -0.8450
18166SOL     OW57389   5.018   3.675   0.709 -0.2750 -0.3374 -0.3885
18166SOL    HW157390   5.107   3.640   0.709 -0.0680  0.0419  1.6493
18166SOL    HW257391   4.962   3.599   0.722 -0.2671 -0.5614 -1.5572
18167SOL     OW57392   6.765   6.464   6.964  0.3520 -0.1959  0.5170
18167SOL    HW157393   6.689   6.485   7.018 -0.7528 -1.5349 -0.4493
18167SOL    HW257394   6.747   6.506   6.880 -0.7816 -2.8964 -0.6753
18168SOL     OW57395   5.286   7.246   0.820  1.0035  0.0249 -0.0884
18168SOL    HW157396   5.231   7.325   0.828 -1.9223 -1.9434  1.1920
18168SOL    HW257397   5.264   7.211   0.734  1.2188 -0.1014 -0.0913
18169SOL     OW57398   1.813   8.630   9.358  0.1431 -0.0281  0.1097
18169SOL    HW157399   1.881   8.606   9.295  0.6452 -0.3873  0.7852
18169SOL    HW257400   1.861   8.663   9.433 -0.4818  2.5450 -0.5158
18170SOL     OW57401   3.319   4.309   0.225 -0.1061  0.2008 -0.0205
18170SOL    HW157402   3.378   4.238   0.253  0.8307  1.2344  0.7662
18170SOL    HW257403   3.369   4.389   0.243 -1.0997  1.0586 -0.9625
18171SOL     OW57404   6.881   2.362   3.943 -0.7418  0.0910 -0.3451
18171SOL    HW157405   6.927   2.312   3.876 -0.4028  1.3544 -1.0755
18171SOL    HW257406   6.934   2.351   4.022 -0.0314  0.2725 -0.7976
18172SOL     OW57407   8.652   7.821   8.001  0.0411 -0.2156  0.3461
18172SOL    HW157408   8.639   7.882   8.074 -2.0124  0.1714 -0.2991
18172SOL    HW257409   8.601   7.744   8.024 -3.5497  1.2047 -2.1006
18173SOL     OW57410   5.831   4.719   6.844  0.1376  0.3402  0.0247
18173SOL    HW157411   5.874   4.797   6.880 -0.8566  1.3606 -0.8883
18173SOL    HW257412   5.899   4.651   6.846  1.1186  1.2938  0.6061
18174SOL     OW57413   8.223   2.987   5.159  0.0879 -0.3103  0.2368
18174SOL    HW157414   8.168   2.920   5.200  0.0886 -0.0451  0.6845
18174SOL    HW257415   8.311   2.969   5.192  0.5190 -1.4790 -1.4175
18175SOL     OW57416   5.313   5.404   8.389 -0.0368 -0.4566  0.2710
18175SOL    HW157417   5.251   5.412   8.462  1.8363  0.2976  1.8730
18175SOL    HW257418   5.333   5.494   8.366  2.0106 -0.6224  1.2180
18176SOL     OW57419   2.180   2.553   0.269  0.3307  0.7059  0.7469
18176SOL    HW157420   2.092   2.546   0.307 -0.0911  1.1297 -0.1283
18176SOL    HW257421   2.216   2.633   0.308  0.5068  0.2896  1.4502
18177SOL     OW57422   5.618   7.725   0.366  0.1750 -0.3510  0.1275
18177SOL    HW157423   5.663   7.801   0.330 -0.1906  0.1026  0.6043
18177SOL    HW257424   5.582   7.679   0.291  0.5286 -0.1422 -0.1725
18178SOL     OW57425   2.766   8.290   1.541 -0.4329 -0.3025 -0.0583
18178SOL    HW157426   2.746   8.375   1.579 -0.8497  0.2161 -1.3726
18178SOL    HW257427   2.816   8.244   1.609  1.3651  1.6455  0.0149
18179SOL     OW57428   0.586   3.791   1.920 -0.0839 -0.0282  0.0748
18179SOL    HW157429   0.511   3.777   1.862 -1.9339 -0.9624  2.5132
18179SOL    HW257430   0.576   3.723   1.987  3.6402 -0.9372 -0.0974
18180SOL     OW57431   6.999   0.585   7.903 -0.3123  0.1002  0.2344
18180SOL    HW157432   7.016   0.601   7.811 -0.9969  0.0123  0.0909
18180SOL    HW257433   6.910   0.617   7.918 -0.9199 -1.5525  0.4274
18181SOL     OW57434   8.008   0.384   3.649  0.0770  0.3166 -0.8473
18181SOL    HW157435   7.937   0.389   3.585 -0.5481 -0.6599 -0.2513
18181SOL    HW257436   7.990   0.455   3.710 -1.1437 -0.7074  0.0294
18182SOL     OW57437   4.942   6.282   8.011 -0.5507  0.3512 -0.0213
18182SOL    HW157438   4.920   6.190   7.995 -0.3174 -0.3465  3.0533
18182SOL    HW257439   4.880   6.310   8.079  0.1712  2.1032 -0.0309
18183SOL     OW57440   9.164   8.900   1.220  0.5660  0.4970  0.1448
18183SOL    HW157441   9.182   8.806   1.228 -0.0513  0.4412  1.1218
18183SOL    HW257442   9.124   8.924   1.304 -2.8262  0.8266 -1.3767
18184SOL     OW57443   9.461   8.841   1.524 -0.0908  0.1955 -0.1373
18184SOL    HW157444   9.414   8.761   1.551  0.2793  0.2074  0.5621
18184SOL    HW257445   9.394   8.909   1.526 -0.3926 -0.0748 -0.6611
18185SOL     OW57446   8.375   2.716   5.552 -0.2711  0.5434 -0.0565
18185SOL    HW157447   8.337   2.749   5.633 -0.1506  0.2914  0.1060
18185SOL    HW257448   8.437   2.648   5.581 -1.7817 -1.0764 -0.4488
18186SOL     OW57449   0.324   6.692   7.379 -1.3738 -0.0610  0.0790
18186SOL    HW157450   0.314   6.761   7.313 -2.0411 -0.1692  0.0581
18186SOL    HW257451   0.377   6.732   7.447 -0.2959 -0.0917 -0.7168
18187SOL     OW57452   3.550   5.522   7.443  0.1709  0.1514 -0.3258
18187SOL    HW157453   3.635   5.560   7.465  1.0632 -1.5501 -0.7114
18187SOL    HW257454   3.523   5.569   7.365 -0.1479  1.9837  0.8245
18188SOL     OW57455   5.126   9.586   8.866 -0.7116 -0.1432  0.5127
18188SOL    HW157456   5.062   9.518   8.846  0.9603 -1.8530  0.7451
18188SOL    HW257457   5.150   9.570   8.958 -0.2672  0.7641  0.5714
18189SOL     OW57458   1.402   1.924   1.810  0.0937  0.1425  0.2786
18189SOL    HW157459   1.466   1.854   1.819 -0.8121 -0.6092  1.1207
18189SOL    HW257460   1.326   1.882   1.770  0.2441  1.1048 -1.0818
18190SOL     OW57461   3.934   3.739   0.663  0.2823  0.1896 -0.6171
18190SOL    HW157462   3.934   3.776   0.574  0.1689  0.2614 -0.5875
18190SOL    HW257463   4.013   3.684   0.666  0.0048 -0.2286 -0.9342
18191SOL     OW57464   4.684   2.426   7.488  0.0092 -0.1901  0.5969
18191SOL    HW157465   4.681   2.339   7.528 -1.3607 -0.9343 -1.0285
18191SOL    HW257466   4.594   2.458   7.493 -0.0090  0.0742 -1.0045
18192SOL     OW57467   2.526   6.880   1.316 -0.1600 -0.4995 -0.0800
18192SOL    HW157468   2.515   6.956   1.373  3.3707  0.0197  0.0951
18192SOL    HW257469   2.566   6.914   1.236  0.1779 -1.9680 -0.5782
18193SOL     OW57470   4.479   8.829   5.276 -0.1269 -0.5643 -0.4793
18193SOL    HW157471   4.492   8.752   5.221  0.4632 -1.7586  1.2430
18193SOL    HW257472   4.526   8.899   5.231 -0.3591 -1.2735 -1.8984
18194SOL     OW57473   9.468   1.586   5.306  0.4299  0.2879  0.2918
18194SOL    HW157474   9.532   1.540   5.362  0.5090 -0.0580 -0.0770
18194SOL    HW257475   9.385   1.543   5.326  0.7118 -0.9451 -1.0218
18195SOL     OW57476   8.927   7.406   7.771 -0.0717  0.4072 -0.4164
18195SOL    HW157477   8.869   7.429   7.844 -0.7109 -0.9648 -0.4637
18195SOL    HW257478   8.947   7.489   7.729 -3.4399  0.8094 -1.4680
18196SOL     OW57479   4.620   6.602   7.328 -0.4786 -0.4952 -0.2734
18196SOL    HW157480   4.671   6.630   7.252 -2.1659  2.8758 -0.3371
18196SOL    HW257481   4.667   6.639   7.403 -1.8693  1.2628 -0.2131
18197SOL     OW57482   3.843   6.559   3.252  0.1892  0.0660 -0.1274
18197SOL    HW157483   3.765   6.565   3.197  0.0895 -1.0147 -0.1223
18197SOL    HW257484   3.836   6.633   3.312 -1.0417 -0.2527  0.1459
18198SOL     OW57485   1.076   4.537   4.399  0.3301 -0.2787  0.0141
18198SOL    HW157486   1.120   4.460   4.436 -0.7764 -1.6751 -1.3901
18198SOL    HW257487   1.087   4.605   4.465  0.0405 -2.0707  2.0455
18199SOL     OW57488   1.280   4.564   1.183 -0.4571  0.4029 -0.3427
18199SOL    HW157489   1.362   4.614   1.174 -0.9887  1.2821 -0.4359
18199SOL    HW257490   1.216   4.630   1.210 -1.2512 -0.1834 -0.7825
18200SOL     OW57491   6.601   9.561   1.473  0.4503  0.0470 -0.3728
18200SOL    HW157492   6.592   9.532   1.383 -0.5607 -1.0877  0.0687
18200SOL    HW257493   6.643   9.487   1.518  0.9908  0.6159  0.0781
18201SOL     OW57494   0.668   9.614   7.139  0.4151  0.3173  0.3713
18201SOL    HW157495   0.685   9.675   7.067 -0.4022 -0.5673 -0.6052
18201SOL    HW257496   0.613   9.664   7.200  0.2745  0.7595 -0.1086
18202SOL     OW57497   7.058   6.060   4.602  0.1940  0.3505 -0.0672
18202SOL    HW157498   7.049   6.145   4.645  2.2525 -0.1311  1.4864
18202SOL    HW257499   6.987   6.007   4.640 -1.5875  1.4851 -1.6055
18203SOL     OW57500   1.261   7.539   5.573 -0.5284  0.2822  0.0588
18203SOL    HW157501   1.278   7.573   5.485  0.8671 -1.5706 -0.4435
18203SOL    HW257502   1.188   7.478   5.563 -0.8989  0.6667  0.3548
18204SOL     OW57503   3.265   1.602   8.450 -0.3179  0.1317 -0.2077
18204SOL    HW157504   3.322   1.599   8.527 -0.5634 -1.5996 -0.0495
18204SOL    HW257505   3.294   1.679   8.401  1.9351 -0.5216  0.0241
18205SOL     OW57506   8.607   4.823   0.031 -0.1927 -0.9260 -0.3029
18205SOL    HW157507   8.534   4.788  -0.020  2.3176 -3.2004 -2.7175
18205SOL    HW257508   8.674   4.755   0.027  1.8694  0.7307  2.3423
18206SOL     OW57509   0.056   2.718   0.070  0.1050  0.1831 -0.3101
18206SOL    HW157510   0.043   2.631   0.032  2.0471  1.0284 -3.3147
18206SOL    HW257511   0.144   2.714   0.109 -0.9012  0.0808  2.1468
18207SOL     OW57512   0.282   3.978   6.965  0.1991 -0.1519 -0.5443
18207SOL    HW157513   0.315   4.058   7.006  0.7392 -0.2951 -0.6802
18207SOL    HW257514   0.312   3.983   6.874  1.1721 -0.9899 -0.3025
18208SOL     OW57515   2.086   8.215   0.944  0.0560  0.1938 -0.1282
18208SOL    HW157516   2.011   8.267   0.917 -0.9727  0.4036  2.7331
18208SOL    HW257517   2.151   8.279   0.974  0.1162 -0.0504  0.2786
18209SOL     OW57518   5.311   3.284   4.469 -0.1160 -0.0620  0.3873
18209SOL    HW157519   5.282   3.216   4.530 -1.2656 -0.2366 -0.3202
18209SOL    HW257520   5.234   3.341   4.458  0.9274  1.6256  1.2815
18210SOL     OW57521   6.637   8.176   2.936 -0.2054  0.1304 -0.1916
18210SOL    HW157522   6.542   8.189   2.934 -0.4369 -1.4418 -1.3302
18210SOL    HW257523   6.655   8.142   3.023 -0.6078  0.8410  0.1819
18211SOL     OW57524   8.574   9.000   5.873 -0.0050 -0.0279  0.0077
18211SOL    HW157525   8.509   8.940   5.835 -0.7867  1.0466 -0.3923
18211SOL    HW257526   8.539   9.087   5.855  0.2842  0.5536  1.9962
18212SOL     OW57527   7.695   1.036   4.467 -0.4587 -0.4010  0.2026
18212SOL    HW157528   7.664   1.109   4.413  0.7803  0.6656  0.8676
18212SOL    HW257529   7.616   1.005   4.512 -1.3855 -0.8442 -1.6242
18213SOL     OW57530   8.459   0.669   1.550  0.0621  0.2373  0.3847
18213SOL    HW157531   8.407   0.589   1.544  1.0015 -0.3529 -0.1688
18213SOL    HW257532   8.485   0.673   1.642 -0.9469  0.5373  0.6637
18214SOL     OW57533   4.526   2.084   1.071 -0.7178  0.3029 -0.3416
18214SOL    HW157534   4.449   2.135   1.044  0.2918  2.3850  0.5344
18214SOL    HW257535   4.574   2.069   0.989 -1.1071  0.6173 -0.6340
18215SOL     OW57536   5.361   3.548   3.113  0.0411 -0.6524  0.2861
18215SOL    HW157537   5.401   3.578   3.032 -0.2906 -0.8371  0.0533
18215SOL    HW257538   5.267   3.554   3.098 -0.0275  0.1319  0.9647
18216SOL     OW57539   3.658   2.590   4.055  0.2260 -0.0431 -0.1154
18216SOL    HW157540   3.630   2.514   4.004  1.3828 -0.1479 -0.6098
18216SOL    HW257541   3.653   2.664   3.994 -1.6572  0.4630  0.5724
18217SOL     OW57542   7.310   7.590   6.357  0.4041  0.4008  0.0021
18217SOL    HW157543   7.329   7.684   6.353  1.0014  0.2697 -0.3942
18217SOL    HW257544   7.393   7.550   6.385  0.1484 -0.0046  0.1886
18218SOL     OW57545   5.400   8.936   0.267  0.2283  0.2649  0.2882
18218SOL    HW157546   5.321   8.923   0.213  0.5102 -0.5256  0.0502
18218SOL    HW257547   5.426   9.027   0.250 -1.7090  1.1849  1.8493
18219SOL     OW57548   4.761   4.520   7.263 -0.0641  0.3800  0.1096
18219SOL    HW157549   4.836   4.464   7.245  1.4516  1.7036  1.8506
18219SOL    HW257550   4.686   4.461   7.266  1.2865 -1.3800  0.7913
18220SOL     OW57551   7.371   7.108   4.804  0.2465  0.0044  0.1177
18220SOL    HW157552   7.336   7.048   4.870  1.5025 -1.6531 -0.6353
18220SOL    HW257553   7.340   7.072   4.721  0.6449  0.6922 -0.3353
18221SOL     OW57554   7.680   1.026   1.685  0.0977 -0.4344  0.0947
18221SOL    HW157555   7.673   1.110   1.639 -0.8886 -0.4753  0.1549
18221SOL    HW257556   7.672   0.960   1.616  0.8590 -0.4956  0.0495
18222SOL     OW57557   3.363   9.144   3.256  0.1634  0.4123 -0.0504
18222SOL    HW157558   3.410   9.067   3.224  1.7723  1.6005 -0.7449
18222SOL    HW257559   3.385   9.149   3.349  0.9421  0.5994 -0.2341
18223SOL     OW57560   8.336   2.488   1.772 -0.0852  0.1105 -0.1834
18223SOL    HW157561   8.336   2.422   1.841 -3.0146 -0.9064 -0.9931
18223SOL    HW257562   8.418   2.536   1.784  0.5649 -1.4733  2.5430
18224SOL     OW57563   2.861   1.455   6.148 -0.7711  0.0720  0.7938
18224SOL    HW157564   2.801   1.520   6.112 -0.7446 -0.0937  0.4494
18224SOL    HW257565   2.821   1.371   6.127 -0.2323 -0.0516  0.2306
18225SOL     OW57566   3.485   3.196   9.141 -0.0400 -0.0397 -0.2857
18225SOL    HW157567   3.441   3.145   9.073 -2.7069 -0.3267  1.5042
18225SOL    HW257568   3.540   3.132   9.186  0.6977 -0.1381 -1.2926
18226SOL     OW57569   7.563   3.243   6.140 -0.0785 -0.4014  0.0221
18226SOL    HW157570   7.520   3.158   6.130 -1.6352  0.1312  1.7960
18226SOL    HW257571   7.609   3.237   6.224  0.7541  0.1522 -0.3757
18227SOL     OW57572   3.839   6.910   1.180  0.3180 -0.1697  0.3353
18227SOL    HW157573   3.756   6.926   1.226  0.1638 -0.8725  0.3064
18227SOL    HW257574   3.884   6.845   1.233  2.4130  2.5966  2.2573
18228SOL     OW57575   0.019   3.423   6.684  0.4934  0.6804  0.2212
18228SOL    HW157576  -0.071   3.425   6.652  0.5030  1.9987  0.2108
18228SOL    HW257577   0.071   3.396   6.609  0.0247 -1.2129  0.5236
18229SOL     OW57578   3.687   4.501   8.926  0.5800  0.2682  0.2519
18229SOL    HW157579   3.680   4.452   9.008 -1.0208 -0.9127 -0.5281
18229SOL    HW257580   3.613   4.561   8.927  0.5322  0.2306 -0.3376
18230SOL     OW57581   2.306   4.490   3.458  0.2449  0.0470 -0.3860
18230SOL    HW157582   2.396   4.465   3.436  1.1956  0.8930  2.1736
18230SOL    HW257583   2.273   4.418   3.511 -0.0745  0.4076 -0.0932
18231SOL     OW57584   2.642   3.111   4.757 -0.3912 -0.5380 -0.1707
18231SOL    HW157585   2.653   3.018   4.735  0.1026 -0.2570 -1.1614
18231SOL    HW257586   2.656   3.157   4.674 -0.2278  0.4577  0.3972
18232SOL     OW57587   5.136   1.055   1.019 -0.2821 -0.1612  0.6407
18232SOL    HW157588   5.148   1.134   1.073 -0.8013 -0.1948  0.8143
18232SOL    HW257589   5.168   1.079   0.933  0.7052 -0.1516  1.0045
18233SOL     OW57590   2.110   5.174   1.719 -0.7247  0.6215 -1.0334
18233SOL    HW157591   2.155   5.242   1.668 -1.0013  0.5059 -1.4361
18233SOL    HW257592   2.058   5.223   1.783  2.5183  0.7917  1.8153
18234SOL     OW57593   9.076   8.596   3.357  0.2274  0.4663  0.4357
18234SOL    HW157594   9.056   8.542   3.281 -0.4023  2.6237 -1.0405
18234SOL    HW257595   9.016   8.566   3.425 -0.6588 -0.1467 -0.5851
18235SOL     OW57596   2.874   4.343   0.294 -0.2040  1.0131  0.6893
18235SOL    HW157597   2.956   4.362   0.249  0.3453 -1.5281  0.4716
18235SOL    HW257598   2.883   4.385   0.380  1.9548 -0.3107  1.1801
18236SOL     OW57599   2.420   7.224   1.143  0.0317 -0.3614  0.1089
18236SOL    HW157600   2.433   7.267   1.227 -1.9682 -1.9835  1.3375
18236SOL    HW257601   2.490   7.158   1.138  0.5115  0.1353  0.2120
18237SOL     OW57602   5.396   9.125   3.203  0.3748 -0.5292 -0.2707
18237SOL    HW157603   5.456   9.163   3.267 -0.1493  0.8911 -0.5759
18237SOL    HW257604   5.452   9.093   3.133  0.7917  1.2855 -0.8219
18238SOL     OW57605   5.923   3.496   8.595 -0.3077 -0.8773  0.3411
18238SOL    HW157606   5.889   3.459   8.514 -1.1831 -0.0913  0.3352
18238SOL    HW257607   5.926   3.421   8.655 -1.5323 -1.0971  0.1635
18239SOL     OW57608   2.875   5.728   8.249  0.1119 -0.1641 -0.6219
18239SOL    HW157609   2.969   5.726   8.232  0.1383 -1.9016 -0.4233
18239SOL    HW257610   2.866   5.773   8.333  0.6013  1.4499 -1.3895
18240SOL     OW57611   7.403   5.138   3.114  0.1209 -0.3545  0.4464
18240SOL    HW157612   7.449   5.198   3.055  0.6782 -0.1404  1.0987
18240SOL    HW257613   7.470   5.077   3.143 -0.6218 -1.9243 -0.9632
18241SOL     OW57614   0.831   4.218   6.423  0.3055 -0.1677  0.7604
18241SOL    HW157615   0.853   4.301   6.381  0.7252 -0.7748 -0.2769
18241SOL    HW257616   0.878   4.152   6.371 -1.0235 -1.1673  0.7681
18242SOL     OW57617   3.615   0.449   4.002  0.4411  0.1970 -0.6815
18242SOL    HW157618   3.670   0.413   3.932  0.9214  0.1845 -0.3053
18242SOL    HW257619   3.677   0.477   4.069 -0.0542 -1.5695  0.6099
18243SOL     OW57620   8.547   1.601   5.743  0.1417  0.6041  0.6084
18243SOL    HW157621   8.542   1.670   5.677  1.6336 -0.4166 -0.6512
18243SOL    HW257622   8.519   1.522   5.698  0.7645 -0.0395  1.3162
18244SOL     OW57623   3.502   2.448   0.611  0.0658  0.4250 -0.3755
18244SOL    HW157624   3.447   2.494   0.675 -0.6664 -0.5343 -0.2987
18244SOL    HW257625   3.564   2.515   0.581 -1.5546  1.7237 -0.9720
18245SOL     OW57626   9.375   1.085   0.003  0.1930 -0.1947  0.4838
18245SOL    HW157627   9.421   1.042  -0.069  1.2326  2.3224 -0.4625
18245SOL    HW257628   9.300   1.127  -0.038  0.4522  0.7402  0.9410
18246SOL     OW57629   5.108   4.080   1.007 -0.1110 -0.2304 -0.1846
18246SOL    HW157630   5.059   4.138   1.065  0.6651  0.5728 -0.3007
18246SOL    HW257631   5.177   4.043   1.062 -1.5844 -2.3982  0.3184
18247SOL     OW57632   0.392   4.555   9.225  0.1586  0.5106  0.0173
18247SOL    HW157633   0.475   4.589   9.259 -0.5207  0.2385  2.1142
18247SOL    HW257634   0.415   4.472   9.184  1.1570  1.2610 -0.9799
18248SOL     OW57635   0.584   2.456   1.782 -0.0545  0.0690 -0.2083
18248SOL    HW157636   0.667   2.492   1.813 -0.1445  0.6665 -0.6454
18248SOL    HW257637   0.537   2.532   1.746 -0.3900 -0.4320 -0.8391
18249SOL     OW57638   4.587   0.646   0.777 -0.0415  0.3317 -0.5477
18249SOL    HW157639   4.598   0.559   0.815 -1.2850  0.1585 -0.5366
18249SOL    HW257640   4.521   0.688   0.833 -1.3609  0.3393 -2.0509
18250SOL     OW57641   9.372   2.314   4.043  0.0272  0.2366  0.4834
18250SOL    HW157642   9.396   2.234   3.997 -0.0523 -0.5520  1.7740
18250SOL    HW257643   9.277   2.319   4.035  0.1289  0.7838 -0.5035
18251SOL     OW57644   1.468   9.573   8.645 -0.5966  0.0683 -0.1930
18251SOL    HW157645   1.472   9.602   8.736 -0.6894  0.1101 -0.2025
18251SOL    HW257646   1.533   9.626   8.600 -0.2527 -0.2466 -0.0696
18252SOL     OW57647   6.448   7.359   2.105 -0.2994 -0.6785  0.4196
18252SOL    HW157648   6.433   7.433   2.047  1.2821 -0.8043 -0.2008
18252SOL    HW257649   6.495   7.396   2.180  0.0681 -0.9613  0.3325
18253SOL     OW57650   3.774   4.277   6.638 -0.1160 -0.4092 -0.1259
18253SOL    HW157651   3.682   4.304   6.638 -0.6299 -1.9296  1.9203
18253SOL    HW257652   3.786   4.235   6.552 -1.4540 -0.5645 -0.2622
18254SOL     OW57653   7.523   2.801   1.067 -0.0289  0.0010 -0.7332
18254SOL    HW157654   7.578   2.877   1.047  1.0665 -1.1595 -2.4665
18254SOL    HW257655   7.577   2.726   1.041 -2.0632 -1.2491 -1.5710
18255SOL     OW57656   0.323   1.489   1.266 -0.3765  0.4863  0.6990
18255SOL    HW157657   0.366   1.495   1.352  1.1734  0.4309 -0.0367
18255SOL    HW257658   0.388   1.447   1.210 -0.7423  1.9413 -0.8937
18256SOL     OW57659   0.693   3.961   7.748 -0.7180  0.8269 -0.3499
18256SOL    HW157660   0.704   3.984   7.656  1.8143 -0.0184 -0.3532
18256SOL    HW257661   0.757   4.016   7.794  1.2298 -1.7725  0.3008
18257SOL     OW57662   8.497   3.244   3.786 -0.3590  0.2781 -0.5204
18257SOL    HW157663   8.409   3.269   3.816 -0.0893  0.6168 -0.0051
18257SOL    HW257664   8.482   3.204   3.700 -0.8339  2.1032 -1.3437
18258SOL     OW57665   5.810   8.729   9.579  0.2563  0.2280  0.1662
18258SOL    HW157666   5.828   8.721   9.673 -2.0297  0.4030  0.6769
18258SOL    HW257667   5.752   8.805   9.572 -0.9731 -0.7823 -1.1773
18259SOL     OW57668   3.508   6.997   0.246 -0.0887  0.4920 -0.6593
18259SOL    HW157669   3.561   7.012   0.324 -0.1301  0.6240 -0.6559
18259SOL    HW257670   3.427   7.045   0.263 -0.0516  0.6142 -0.8323
18260SOL     OW57671   0.372   9.375   3.276 -0.5249  0.0616 -0.3572
18260SOL    HW157672   0.438   9.315   3.311  1.3892  2.2976  0.1354
18260SOL    HW257673   0.304   9.379   3.343 -0.9630 -1.8429 -0.6158
18261SOL     OW57674   5.572   9.617   0.913  0.0723 -0.2344 -0.4898
18261SOL    HW157675   5.579   9.553   0.984 -0.1794  0.6821  0.3911
18261SOL    HW257676   5.532   9.694   0.954  0.3205  0.4693 -1.5273
18262SOL     OW57677   7.866   5.639   6.201  0.1504  0.4895  0.3066
18262SOL    HW157678   7.915   5.558   6.211  0.6865  0.2837 -2.7772
18262SOL    HW257679   7.923   5.708   6.235  0.0802 -0.2944  2.0830
18263SOL     OW57680   8.037   0.733   4.655 -0.0920 -0.1295 -0.1081
18263SOL    HW157681   7.991   0.665   4.606  1.0681 -1.5001  0.6613
18263SOL    HW257682   8.012   0.815   4.611  1.5698 -1.2997 -3.5740
18264SOL     OW57683   2.519   7.240   1.779 -0.1517  0.4455 -0.0437
18264SOL    HW157684   2.434   7.282   1.768 -2.1341 -3.3088 -0.3605
18264SOL    HW257685   2.535   7.194   1.697  1.2882 -0.4543  0.6977
18265SOL     OW57686   4.724   7.533   7.841 -0.3154 -0.1429 -0.1359
18265SOL    HW157687   4.745   7.504   7.753  0.8250  1.0844 -0.3121
18265SOL    HW257688   4.793   7.495   7.896  0.0858  0.6385 -0.0818
18266SOL     OW57689   7.281   5.981   9.427  0.0905  0.1355  0.8119
18266SOL    HW157690   7.364   6.019   9.399  0.5091 -0.4776  1.1996
18266SOL    HW257691   7.283   5.892   9.392  1.6104 -1.4771  4.4838
18267SOL     OW57692   6.934   8.220   6.031  0.3384 -0.0327  0.2545
18267SOL    HW157693   7.018   8.209   6.075 -0.0214 -0.1861  0.9024
18267SOL    HW257694   6.937   8.158   5.958  1.7179  1.5612 -1.1368
18268SOL     OW57695   6.380   2.718   4.594 -0.4672  0.7319  0.3831
18268SOL    HW157696   6.286   2.731   4.587 -1.0538 -1.5747  2.8622
18268SOL    HW257697   6.397   2.707   4.687  2.2341  0.7966 -0.0149
18269SOL     OW57698   8.305   8.218   0.459 -0.5503 -0.1629 -0.4794
18269SOL    HW157699   8.243   8.274   0.412  0.1188  0.5813 -0.4811
18269SOL    HW257700   8.380   8.274   0.478  0.6247 -1.3343 -1.4441
18270SOL     OW57701   2.911   0.017   5.580  0.3316 -0.6350  0.5756
18270SOL    HW157702   2.952  -0.055   5.627  1.6786 -1.4187 -1.6517
18270SOL    HW257703   2.934   0.095   5.631  0.7701 -1.5354  1.7997
18271SOL     OW57704   0.834   2.533   5.286  0.0058  0.2342 -0.7928
18271SOL    HW157705   0.787   2.452   5.268 -0.7906  0.5568 -0.2008
18271SOL    HW257706   0.845   2.534   5.381  1.1726  0.1901 -0.9087
18272SOL     OW57707   3.760   0.797   0.192  0.1183 -0.3429  0.0552
18272SOL    HW157708   3.802   0.767   0.273 -0.3183 -0.9369  0.0668
18272SOL    HW257709   3.723   0.718   0.153  1.2260 -0.2505 -1.2681
18273SOL     OW57710   5.226   6.013   9.584  0.2538  0.2326  0.1025
18273SOL    HW157711   5.275   6.095   9.582 -1.6645  1.4565  0.1544
18273SOL    HW257712   5.261   5.966   9.659  0.3415  1.7402  1.0571
18274SOL     OW57713   8.192   5.461   1.503 -0.3673 -0.7557  0.2393
18274SOL    HW157714   8.225   5.400   1.437 -0.8513 -0.5761 -0.1740
18274SOL    HW257715   8.122   5.509   1.459  0.0660  0.1655  0.5296
18275SOL     OW57716   3.865   7.842   7.052 -0.2967 -0.5997  0.0488
18275SOL    HW157717   3.938   7.862   7.110 -0.4151 -1.8881  0.6947
18275SOL    HW257718   3.886   7.756   7.015 -0.4484 -0.0091 -1.4826
18276SOL     OW57719   1.374   0.718   9.572 -0.3600 -0.1530  0.1560
18276SOL    HW157720   1.336   0.803   9.548 -1.7507 -1.2875 -2.0612
18276SOL    HW257721   1.431   0.737   9.646  0.9191  3.0799 -1.4410
18277SOL     OW57722   4.772   7.330   1.244 -0.4145 -0.9917 -0.1904
18277SOL    HW157723   4.720   7.406   1.272  2.3837  0.7180  0.8353
18277SOL    HW257724   4.746   7.315   1.153 -1.2663  1.0222 -0.3328
18278SOL     OW57725   5.117   3.531   4.565 -0.1726  0.1084  0.6350
18278SOL    HW157726   5.059   3.481   4.623  2.0366  1.1862  4.0336
18278SOL    HW257727   5.062   3.600   4.529 -1.8257 -1.1402  0.6403
18279SOL     OW57728   3.654   4.429   6.370 -0.5401  0.1408  0.2372
18279SOL    HW157729   3.643   4.392   6.283 -1.3586  0.2288  0.2947
18279SOL    HW257730   3.566   4.460   6.395 -0.6103 -1.0733  1.6367
18280SOL     OW57731   1.742   3.306   1.766  0.2256 -0.4615 -0.3745
18280SOL    HW157732   1.714   3.217   1.744 -0.9248 -0.0000 -0.8598
18280SOL    HW257733   1.835   3.308   1.745  0.8052 -2.1709  1.6219
18281SOL     OW57734   0.389   6.330   4.258  0.1452 -0.7540  0.1786
18281SOL    HW157735   0.395   6.417   4.297 -0.4727 -0.7582  0.2965
18281SOL    HW257736   0.343   6.278   4.324  2.4479 -1.7752  1.0988
18282SOL     OW57737   5.268   8.004   8.211  0.2146  0.1606 -0.1533
18282SOL    HW157738   5.298   8.011   8.302  0.5722  0.2539 -0.2800
18282SOL    HW257739   5.344   8.028   8.158  0.3425 -0.9982 -0.5089
18283SOL     OW57740   5.956   3.623   2.970  0.2935 -0.2770 -0.3356
18283SOL    HW157741   6.000   3.549   3.011  1.7092  0.2779 -0.8191
18283SOL    HW257742   5.864   3.613   2.996  0.7938 -1.0781  1.2423
18284SOL     OW57743   0.562   7.096   2.599 -0.6234  0.1286  0.2530
18284SOL    HW157744   0.578   7.147   2.520 -2.3135  1.4516  0.7104
18284SOL    HW257745   0.540   7.008   2.568  0.0601  0.2763 -0.6644
18285SOL     OW57746   4.475   5.970   5.587  0.1863 -0.1565 -0.6185
18285SOL    HW157747   4.395   5.945   5.634  1.3690 -1.9621  0.5990
18285SOL    HW257748   4.546   5.943   5.646  1.7060  1.4209 -1.6363
18286SOL     OW57749   3.644   5.269   4.587 -0.1617  0.0098 -0.0391
18286SOL    HW157750   3.721   5.257   4.531 -1.0638 -0.4583 -1.2183
18286SOL    HW257751   3.647   5.196   4.649  0.6423  0.3233  0.3081
18287SOL     OW57752   8.963   1.303   5.154 -0.2810 -0.8846 -0.3151
18287SOL    HW157753   8.890   1.361   5.132 -0.2045 -0.6161  0.1093
18287SOL    HW257754   8.992   1.334   5.240  1.1524 -0.1737 -1.0286
18288SOL     OW57755   4.792   1.733   7.728  0.1123 -0.1193 -0.0266
18288SOL    HW157756   4.803   1.665   7.661  1.7142 -0.1313  0.2030
18288SOL    HW257757   4.872   1.727   7.781 -0.5547  0.7323  1.1132
18289SOL     OW57758   3.678   0.439   5.603  0.1533  0.3242 -0.1581
18289SOL    HW157759   3.726   0.366   5.642  1.2580  0.4160 -1.2822
18289SOL    HW257760   3.689   0.511   5.666  0.2122 -0.0803  0.3029
18290SOL     OW57761   0.232   8.112   7.230  0.1037  0.2606  0.6917
18290SOL    HW157762   0.318   8.110   7.189  0.0578  0.4971  0.5800
18290SOL    HW257763   0.179   8.166   7.172 -0.8507 -1.9825 -0.6398
18291SOL     OW57764   1.124   6.349   1.493  0.1272  0.4468 -0.0911
18291SOL    HW157765   1.186   6.387   1.555  0.7013 -0.8045  0.1278
18291SOL    HW257766   1.089   6.425   1.445  0.5822  1.3196  0.9066
18292SOL     OW57767   7.106   0.522   4.400 -0.1225 -0.1424 -0.4142
18292SOL    HW157768   7.148   0.546   4.318  0.9522  0.3323  0.2533
18292SOL    HW257769   7.089   0.605   4.444 -0.0954 -0.4159  0.1254
18293SOL     OW57770   3.567   2.972   7.519 -0.2589 -0.0658 -0.6297
18293SOL    HW157771   3.523   2.973   7.604  1.3757  0.2397  0.2427
18293SOL    HW257772   3.565   2.880   7.492  1.4482 -0.6314  0.9806
18294SOL     OW57773   0.123   4.233   3.373  0.6931 -0.2581 -0.3654
18294SOL    HW157774   0.039   4.188   3.382  0.8787 -0.1811  2.5607
18294SOL    HW257775   0.102   4.310   3.320 -1.1097 -0.2152  0.3277
18295SOL     OW57776   8.514   7.897   6.568 -0.1723  0.3907  0.1869
18295SOL    HW157777   8.549   7.860   6.487 -0.5223 -0.3363  0.3508
18295SOL    HW257778   8.591   7.919   6.620  0.0690 -0.8334  0.3903
18296SOL     OW57779   1.361   7.015   6.163 -0.4370  0.3859  0.1438
18296SOL    HW157780   1.354   6.970   6.079 -0.3719 -1.6627  1.1678
18296SOL    HW257781   1.454   7.031   6.176 -0.4743  0.9745 -0.2925
18297SOL     OW57782   5.184   8.976   5.314 -0.6521 -0.1002 -0.0716
18297SOL    HW157783   5.161   8.894   5.271 -1.3803 -0.0805  0.2562
18297SOL    HW257784   5.148   8.968   5.402  0.4133  0.0528  0.3804
18298SOL     OW57785   7.120   7.680   3.003  0.0632  0.0131 -0.2447
18298SOL    HW157786   7.176   7.614   2.961  0.2533  1.0428 -1.6725
18298SOL    HW257787   7.126   7.756   2.946  0.2364  1.4663  1.6036
18299SOL     OW57788   9.511   2.111   6.452  0.1849 -0.6010  0.3040
18299SOL    HW157789   9.514   2.035   6.394 -2.5928 -0.9041  0.4135
18299SOL    HW257790   9.575   2.092   6.521  1.1047 -1.7855 -0.8192
18300SOL     OW57791   0.779   3.272   6.979 -0.5176  0.1307  0.4161
18300SOL    HW157792   0.853   3.327   7.005  1.5489 -2.4995  0.5052
18300SOL    HW257793   0.730   3.326   6.917  0.2231  2.7563  1.9610
18301SOL     OW57794   0.257   2.732   4.358  0.7774 -0.0723 -0.2364
18301SOL    HW157795   0.226   2.796   4.293 -1.2970  0.7624  1.4641
18301SOL    HW257796   0.234   2.647   4.320  0.7201  0.3326 -1.1394
18302SOL     OW57797   2.574   1.533   0.297  0.2040  0.8193  0.0465
18302SOL    HW157798   2.538   1.578   0.221 -0.1393  1.9719  0.8507
18302SOL    HW257799   2.658   1.575   0.313  0.2983  0.5533  0.2704
18303SOL     OW57800   3.883   1.347   2.818 -0.1569 -0.2899  0.0234
18303SOL    HW157801   3.859   1.343   2.726 -0.1319  0.9060 -0.0492
18303SOL    HW257802   3.942   1.422   2.825  1.4411 -1.5534  0.6859
18304SOL     OW57803   4.323   3.157   1.369 -0.6197 -0.0477 -0.3693
18304SOL    HW157804   4.312   3.124   1.280  3.1681  0.8223 -1.3703
18304SOL    HW257805   4.329   3.252   1.359  0.0146  0.0561  0.7830
18305SOL     OW57806   7.100   5.293   9.136  0.4474  0.2539  0.0498
18305SOL    HW157807   7.137   5.290   9.224  0.2356  0.2598  0.1399
18305SOL    HW257808   7.026   5.233   9.139 -1.2093  2.2166  0.6404
18306SOL     OW57809   8.792   8.514   8.650 -0.5906 -0.3329  0.0903
18306SOL    HW157810   8.805   8.425   8.619 -1.0234 -0.4306  0.1880
18306SOL    HW257811   8.865   8.563   8.611  1.0034 -1.1555  1.8810
18307SOL     OW57812   9.520   8.290   1.785  0.0437  0.2053 -0.3451
18307SOL    HW157813   9.611   8.275   1.757  0.2540 -0.2434  0.5366
18307SOL    HW257814   9.467   8.239   1.723  0.4620 -0.3740 -0.2303
18308SOL     OW57815   0.630   8.427   9.425  0.5552 -0.0899 -0.7457
18308SOL    HW157816   0.670   8.388   9.347  1.2062  2.8549 -2.0031
18308SOL    HW257817   0.702   8.436   9.487  0.2422 -1.4934 -0.1371
18309SOL     OW57818   7.458   7.726   9.589 -0.3791 -0.7694 -0.5525
18309SOL    HW157819   7.519   7.653   9.576  0.7997  0.1799 -0.5151
18309SOL    HW257820   7.510   7.804   9.571 -1.7972  0.0501 -1.2272
18310SOL     OW57821   5.151   0.022   8.546 -0.4537  0.3690 -0.0292
18310SOL    HW157822   5.064   0.052   8.517  0.3680  1.4405 -1.5125
18310SOL    HW257823   5.186  -0.027   8.472 -0.7879 -2.3880  1.5073
18311SOL     OW57824   7.444   8.572   7.574  0.0027 -0.3598  0.2268
18311SOL    HW157825   7.392   8.646   7.543  0.4228 -0.0511  0.2391
18311SOL    HW257826   7.532   8.588   7.538  0.8442  0.6948  2.5509
18312SOL     OW57827   4.726   4.421   1.620  0.0351  0.8539  0.1403
18312SOL    HW157828   4.766   4.397   1.703  0.7053 -3.3229 -1.1465
18312SOL    HW257829   4.791   4.479   1.578  0.3540  1.7795  1.8151
18313SOL     OW57830   1.389   5.835   4.752 -0.1716  0.2614 -0.0937
18313SOL    HW157831   1.459   5.851   4.815 -1.4808  0.5966  1.3156
18313SOL    HW257832   1.318   5.893   4.779 -1.3195 -0.6830 -0.9800
18314SOL     OW57833   2.032   8.422   1.742  0.1616 -0.0704  0.0921
18314SOL    HW157834   2.021   8.443   1.649  0.2492 -2.9676 -0.6569
18314SOL    HW257835   1.952   8.455   1.784 -1.4784 -1.6381 -1.6188
18315SOL     OW57836   2.553   4.749   4.118 -0.0594  0.0708  0.3840
18315SOL    HW157837   2.563   4.839   4.150  0.9559 -0.0177  0.3638
18315SOL    HW257838   2.637   4.708   4.139  0.2267 -0.3164 -1.3841
18316SOL     OW57839   7.057   0.587   5.809  0.6428  0.1642  0.3686
18316SOL    HW157840   7.117   0.548   5.873  1.0925  1.1632  0.5819
18316SOL    HW257841   6.972   0.585   5.853  0.9468  0.8262  1.0067
18317SOL     OW57842   4.405   4.897   3.459 -0.1087  0.0570 -0.2748
18317SOL    HW157843   4.462   4.821   3.447  0.8863  0.3654  2.0046
18317SOL    HW257844   4.460   4.963   3.500 -2.2316 -0.0233  3.1508
18318SOL     OW57845   0.958   8.269   8.952  0.2296  0.0608 -0.1491
18318SOL    HW157846   1.003   8.306   8.876  1.9505 -0.1618  0.7078
18318SOL    HW257847   0.866   8.287   8.936  0.5624  0.2683 -2.1439
18319SOL     OW57848   6.633   3.641   7.247  0.1247 -0.2560 -0.1284
18319SOL    HW157849   6.687   3.681   7.179  0.3473 -0.9802 -0.3832
18319SOL    HW257850   6.549   3.687   7.240  1.1923  2.1736  1.4701
18320SOL     OW57851   2.813   4.331   2.373  0.1459  0.3526 -0.6176
18320SOL    HW157852   2.883   4.339   2.309 -0.2294 -0.2847 -1.1102
18320SOL    HW257853   2.844   4.382   2.449  0.9434  0.4271 -0.9890
18321SOL     OW57854   8.582   2.226   0.610  0.0905 -0.2684 -0.1349
18321SOL    HW157855   8.541   2.139   0.611 -2.1154  0.6489  2.9722
18321SOL    HW257856   8.527   2.278   0.552 -1.9466  0.3370  2.1850
18322SOL     OW57857   8.597   7.047   7.097  0.7517  0.1531  0.0399
18322SOL    HW157858   8.550   6.965   7.081  0.1512  0.4602  0.2021
18322SOL    HW257859   8.558   7.082   7.177  0.3830  1.0451 -0.5169
18323SOL     OW57860   1.787   8.829   5.145  0.0266 -0.1419  0.2275
18323SOL    HW157861   1.823   8.863   5.227 -0.4225  0.7919  0.0527
18323SOL    HW257862   1.794   8.734   5.153  2.3037 -0.0128  0.2956
18324SOL     OW57863   1.950   5.243   4.150  0.5060  0.0093 -0.3664
18324SOL    HW157864   1.962   5.224   4.242 -1.8077  0.8420  0.1804
18324SOL    HW257865   1.897   5.170   4.117  0.6627  0.1057 -0.8363
18325SOL     OW57866   0.834   2.197   2.392 -0.0572 -0.8604  0.4759
18325SOL    HW157867   0.830   2.279   2.443 -0.8598 -0.5247 -0.0982
18325SOL    HW257868   0.927   2.182   2.378  0.2422 -1.3398  2.6328
18326SOL     OW57869   6.919   9.188   5.792 -0.0413 -0.2999  0.2842
18326SOL    HW157870   6.975   9.260   5.763 -1.9015  1.8118  1.5905
18326SOL    HW257871   6.935   9.118   5.728  1.6505  1.3405 -1.2149
18327SOL     OW57872   1.246   4.963   1.386  0.0600 -0.5380  0.3867
18327SOL    HW157873   1.249   5.043   1.334  2.2192 -1.7078 -1.4619
18327SOL    HW257874   1.231   4.893   1.323 -0.9217 -1.7283  1.8524
18328SOL     OW57875   0.834   7.540   0.134  0.4573  0.0413 -0.1636
18328SOL    HW157876   0.789   7.500   0.209  0.3315 -1.0501 -0.7969
18328SOL    HW257877   0.844   7.632   0.159 -1.2409  0.1081  0.4256
18329SOL     OW57878   7.015   5.273   2.534  0.8137 -0.2643 -0.4049
18329SOL    HW157879   6.963   5.196   2.512  0.6121 -0.2102 -0.1200
18329SOL    HW257880   6.954   5.346   2.527  1.2766  0.0291 -1.8279
18330SOL     OW57881   1.321   1.016   3.082 -0.3238 -0.0954  0.7858
18330SOL    HW157882   1.368   0.962   3.145 -0.5488 -0.8936  0.2819
18330SOL    HW257883   1.251   0.959   3.049  0.0548  0.1516 -0.5046
18331SOL     OW57884   5.824   8.027   3.513 -0.2471  0.1404  0.0170
18331SOL    HW157885   5.827   7.965   3.441  0.3048  0.3160 -0.1198
18331SOL    HW257886   5.889   8.094   3.490 -1.1326  1.0049 -0.0474
18332SOL     OW57887   5.901   4.167   1.222 -0.3669  0.5219 -0.1011
18332SOL    HW157888   5.882   4.113   1.299  0.1184  0.2994 -0.1394
18332SOL    HW257889   5.858   4.251   1.241  0.2548  0.6706  0.6726
18333SOL     OW57890   5.810   3.895   2.400  0.3701  0.0116 -0.5461
18333SOL    HW157891   5.760   3.866   2.476  0.0226  0.3396 -0.6485
18333SOL    HW257892   5.901   3.883   2.426  0.2888  1.1288  0.3354
18334SOL     OW57893   6.684   1.552   1.855  0.1860  0.2986  0.1219
18334SOL    HW157894   6.656   1.485   1.918  0.3573  0.0812 -0.0344
18334SOL    HW257895   6.776   1.566   1.875  0.1778  0.4060  0.0793
18335SOL     OW57896   4.315   2.805   8.307 -0.0440 -0.3986  0.2778
18335SOL    HW157897   4.324   2.900   8.308  0.9629 -0.4797  1.5128
18335SOL    HW257898   4.366   2.775   8.382  0.1450 -1.9583 -0.4291
18336SOL     OW57899   8.332   5.622   2.286 -1.0457  0.1284 -0.7735
18336SOL    HW157900   8.336   5.528   2.269 -0.8540  0.0894 -0.5199
18336SOL    HW257901   8.305   5.628   2.378 -0.1931  0.3041 -0.5227
18337SOL     OW57902   2.269   8.055   0.116 -0.2209 -0.1928  0.0342
18337SOL    HW157903   2.184   8.096   0.131  0.1703  0.5061  0.3954
18337SOL    HW257904   2.299   8.093   0.034 -0.0143 -0.0365  0.1840
18338SOL     OW57905   6.807   4.213   2.736  0.2108  0.0893 -0.3388
18338SOL    HW157906   6.848   4.128   2.755 -1.3263 -0.3993  0.9902
18338SOL    HW257907   6.827   4.267   2.813 -1.1361  0.0086  0.0885
18339SOL     OW57908   7.062   0.310   2.112 -0.2215 -0.0794  0.2966
18339SOL    HW157909   7.035   0.362   2.036 -0.0902  0.4598  0.6158
18339SOL    HW257910   6.983   0.302   2.165  0.1533  1.2700  1.0972
18340SOL     OW57911   7.236   1.599   4.287 -0.0619 -0.3499 -0.2827
18340SOL    HW157912   7.209   1.507   4.287 -1.8055  0.1166 -0.4798
18340SOL    HW257913   7.270   1.614   4.199 -0.7564 -0.5636 -0.5979
18341SOL     OW57914   8.822   7.215   5.971 -0.3192 -0.1106  0.3868
18341SOL    HW157915   8.727   7.218   5.983 -0.8181 -0.3348 -2.7118
18341SOL    HW257916   8.846   7.125   5.993 -0.8464 -0.1134  0.9794
18342SOL     OW57917   2.293   4.074   4.367  0.1330  0.8220 -0.0042
18342SOL    HW157918   2.362   4.010   4.383 -0.2527  0.4162  0.0459
18342SOL    HW257919   2.331   4.135   4.303  0.5553  0.6378  0.0697
18343SOL     OW57920   7.923   0.232   2.875  0.3937  0.2051 -0.0404
18343SOL    HW157921   7.908   0.170   2.803 -0.6642 -1.0920  1.2061
18343SOL    HW257922   7.836   0.270   2.892  1.0266  2.0576 -0.7654
18344SOL     OW57923   1.378   0.874   6.920  0.1408  0.0779 -1.1184
18344SOL    HW157924   1.329   0.946   6.880 -0.5678  0.3673  0.1880
18344SOL    HW257925   1.335   0.861   7.005  1.4390 -0.6381 -0.5486
18345SOL     OW57926   2.739   7.636   7.015 -0.4764 -0.4015  0.1482
18345SOL    HW157927   2.711   7.687   7.091 -1.3749 -1.5547  0.6072
18345SOL    HW257928   2.659   7.622   6.964 -0.4172 -2.0185  0.4432
18346SOL     OW57929   1.880   3.944   3.501 -0.0147 -0.1217 -0.2016
18346SOL    HW157930   1.918   4.031   3.512 -0.3002  0.0311 -0.4169
18346SOL    HW257931   1.895   3.922   3.409 -1.2590  0.3338 -0.5393
18347SOL     OW57932   5.895   2.534   1.568 -0.2870  0.1646  0.0827
18347SOL    HW157933   5.851   2.529   1.483  1.1287  0.5359 -0.6926
18347SOL    HW257934   5.986   2.552   1.547 -0.2574  2.3013  1.7614
18348SOL     OW57935   5.104   4.412   4.579  0.0916 -0.0524  0.9693
18348SOL    HW157936   5.036   4.345   4.586  0.2490 -0.5866 -1.6096
18348SOL    HW257937   5.058   4.490   4.548  0.4805 -0.1997 -0.0418
18349SOL     OW57938   6.353   9.114   1.633  0.2637 -0.1578 -0.1528
18349SOL    HW157939   6.277   9.059   1.614  0.4245 -0.5279  0.2520
18349SOL    HW257940   6.321   9.180   1.695  0.0038  0.3871 -0.8470
18350SOL     OW57941   6.153   0.776   9.027 -0.1366  0.3451  0.1451
18350SOL    HW157942   6.232   0.829   9.015 -0.0308  0.1937  0.1727
18350SOL    HW257943   6.117   0.807   9.110 -0.0941  0.4000  0.1439
18351SOL     OW57944   3.900   7.114   1.007  0.6229  0.7077 -0.0904
18351SOL    HW157945   3.893   7.031   1.054  0.9805  0.0378 -1.1685
18351SOL    HW257946   3.988   7.145   1.025  1.3798 -0.4070 -1.6175
18352SOL     OW57947   6.593   5.472   9.556  0.4961  0.2724 -0.2084
18352SOL    HW157948   6.685   5.465   9.580  0.0527  0.8839  1.7950
18352SOL    HW257949   6.586   5.558   9.514  0.4196  1.3594  1.9112
18353SOL     OW57950   3.678   8.220   1.629  0.3894  0.3923  0.3007
18353SOL    HW157951   3.774   8.214   1.624  0.2485 -1.5567 -0.6725
18353SOL    HW257952   3.656   8.187   1.716  0.5718  0.2689  0.3003
18354SOL     OW57953   5.639   3.009   2.300  0.3433  0.1358 -0.0397
18354SOL    HW157954   5.612   3.098   2.278 -2.2300 -0.6949 -0.5946
18354SOL    HW257955   5.574   2.953   2.258 -0.4363 -1.8705  3.4461
18355SOL     OW57956   1.438   6.354   4.060 -0.1548  0.1510  0.5188
18355SOL    HW157957   1.525   6.344   4.098  0.1822  0.7151 -0.0936
18355SOL    HW257958   1.438   6.443   4.023 -1.1683  0.3602  0.9752
18356SOL     OW57959   7.556   0.192   5.214  0.1136 -0.1141  0.1376
18356SOL    HW157960   7.505   0.272   5.227 -0.4412 -0.1660 -1.5310
18356SOL    HW257961   7.549   0.174   5.121  1.8654 -1.0326  0.1424
18357SOL     OW57962   6.035   0.833   3.455  0.2205 -0.3235 -0.2764
18357SOL    HW157963   5.977   0.808   3.527  1.2716 -2.9431 -0.2274
18357SOL    HW257964   6.025   0.927   3.447 -1.5821 -0.2750  1.8499
18358SOL     OW57965   3.641   1.645   9.011 -0.2964 -1.1690 -0.6878
18358SOL    HW157966   3.577   1.647   9.083  0.0653  1.2447 -0.3457
18358SOL    HW257967   3.726   1.644   9.055 -0.0201  2.0196 -0.9265
18359SOL     OW57968   1.708   0.131   1.880 -0.3435 -0.3638 -0.3157
18359SOL    HW157969   1.624   0.145   1.836  0.8325  0.1185 -2.6080
18359SOL    HW257970   1.712   0.199   1.948 -2.9540 -2.1865  1.8376
18360SOL     OW57971   4.173   4.293   2.043 -0.1799  0.3653 -0.0744
18360SOL    HW157972   4.249   4.331   2.086 -0.8354 -0.1106  1.5888
18360SOL    HW257973   4.202   4.206   2.015 -0.4093 -0.3086  1.6526
18361SOL     OW57974   3.758   6.360   6.123 -0.2220  0.1201 -0.4770
18361SOL    HW157975   3.810   6.396   6.195 -2.0355  1.0018  0.4535
18361SOL    HW257976   3.735   6.272   6.152  0.2972 -0.0775 -0.6570
18362SOL     OW57977   1.539   0.403   2.405 -0.1524  0.3731  0.5495
18362SOL    HW157978   1.489   0.433   2.329 -2.1048  0.1472  1.6678
18362SOL    HW257979   1.593   0.331   2.373  0.2200  1.2635 -0.9115
18363SOL     OW57980   6.847   8.221   7.559  0.5587 -0.0910 -0.0418
18363SOL    HW157981   6.813   8.221   7.648  0.0599  0.5501 -0.2193
18363SOL    HW257982   6.916   8.286   7.559  0.3074  0.1808 -0.2072
18364SOL     OW57983   4.187   1.647   3.340 -0.0555 -0.2287 -0.2772
18364SOL    HW157984   4.120   1.688   3.395 -0.3271 -1.2585  0.1701
18364SOL    HW257985   4.221   1.575   3.393  0.5359 -0.4874 -0.9901
18365SOL     OW57986   8.595   8.382   5.419  0.3481  0.6282  0.0168
18365SOL    HW157987   8.655   8.421   5.356 -0.5168  0.8595 -0.6912
18365SOL    HW257988   8.594   8.289   5.396 -0.6917  0.8554 -0.9664
18366SOL     OW57989   5.398   7.894   0.505 -0.1922 -0.0894  0.0528
18366SOL    HW157990   5.450   7.956   0.556 -0.0979 -0.4369  0.3843
18366SOL    HW257991   5.460   7.824   0.483 -1.0472 -1.8161  2.6277
18367SOL     OW57992   0.843   0.703   7.896  0.4034 -0.4727  0.2628
18367SOL    HW157993   0.883   0.663   7.973  2.6158  1.0508  0.0229
18367SOL    HW257994   0.790   0.775   7.932  1.1161 -0.0102  0.4185
18368SOL     OW57995   1.426   1.859   1.267 -0.0100  0.5169  0.7236
18368SOL    HW157996   1.489   1.910   1.216 -1.7157  0.4534 -1.6499
18368SOL    HW257997   1.358   1.922   1.291 -0.4358  0.0425  0.7833
18369SOL     OW57998   6.807   4.079   3.718  0.2837  0.1098 -0.2197
18369SOL    HW157999   6.892   4.050   3.685  1.1824  1.8215  0.4615
18369SOL    HW258000   6.796   4.167   3.681  0.1734  1.0847  2.0041
18370SOL     OW58001   5.024   4.791   3.296  0.3603 -0.3582 -0.0315
18370SOL    HW158002   5.024   4.710   3.346  0.8381  0.1376  0.8035
18370SOL    HW258003   5.106   4.834   3.319 -0.2878  0.7825  0.2739
18371SOL     OW58004   7.217   3.802   4.854  0.4913  0.0088 -0.5218
18371SOL    HW158005   7.213   3.717   4.898  1.5534 -0.5644 -1.4970
18371SOL    HW258006   7.176   3.862   4.916 -0.7999 -1.3002 -0.0548
18372SOL     OW58007   5.706   3.435   3.625  0.0599  0.1124 -0.0186
18372SOL    HW158008   5.717   3.357   3.680 -1.3079 -0.1443 -0.0756
18372SOL    HW258009   5.783   3.489   3.644 -0.7769  0.4779  2.8688
18373SOL     OW58010   6.596   0.961   5.359 -0.2799 -0.2564 -0.5653
18373SOL    HW158011   6.663   0.915   5.308 -1.3276 -2.4299 -0.1068
18373SOL    HW258012   6.645   1.021   5.415  1.1184 -0.2212 -1.7717
18374SOL     OW58013   5.928   3.046   1.166 -0.5486  0.5951  0.6395
18374SOL    HW158014   5.842   3.087   1.159 -0.0014  1.7899  0.6816
18374SOL    HW258015   5.989   3.119   1.174  0.6573 -0.1498 -1.1196
18375SOL     OW58016   3.225   5.284   5.368  0.1561 -0.0673 -0.0549
18375SOL    HW158017   3.236   5.232   5.288 -1.5517  1.4447 -1.3476
18375SOL    HW258018   3.229   5.220   5.439 -0.1872 -1.7226 -1.4698
18376SOL     OW58019   3.779   9.429   8.719 -0.3514 -1.0065  0.8300
18376SOL    HW158020   3.840   9.382   8.663 -1.7896 -1.2200 -0.6369
18376SOL    HW258021   3.734   9.489   8.660 -0.2570  0.5042  2.2162
18377SOL     OW58022   8.446   6.754   5.051  0.2784  0.0990  0.1789
18377SOL    HW158023   8.401   6.763   4.966  0.3436 -0.1354  0.1183
18377SOL    HW258024   8.466   6.843   5.077  1.2307  0.1133 -0.5719
18378SOL     OW58025   1.940   0.363   4.184 -0.0282  0.3591  0.3372
18378SOL    HW158026   1.971   0.412   4.260  0.9006  0.7525 -0.2878
18378SOL    HW258027   1.873   0.304   4.220  1.2429 -0.3370  1.6818
18379SOL     OW58028   3.921   0.129   8.091  0.2522 -0.6123 -1.0773
18379SOL    HW158029   3.839   0.177   8.102  0.3333 -0.6280 -0.3727
18379SOL    HW258030   3.956   0.160   8.007  0.9944  1.5929 -0.0176
18380SOL     OW58031   5.408   0.425   6.501  0.3941 -0.0659 -0.4805
18380SOL    HW158032   5.390   0.340   6.542  0.6196  0.2289  0.2343
18380SOL    HW258033   5.444   0.403   6.415 -0.2943 -0.6874 -0.6145
18381SOL     OW58034   3.972   4.503   8.118 -0.0642  0.3020  0.4013
18381SOL    HW158035   4.057   4.458   8.120 -0.4690 -0.4609  0.9561
18381SOL    HW258036   3.984   4.578   8.177 -0.0591 -0.3436  1.2351
18382SOL     OW58037   7.996   8.160   1.964  0.1508  0.0504 -0.4975
18382SOL    HW158038   7.982   8.067   1.982  3.3241 -0.5805 -0.7334
18382SOL    HW258039   7.955   8.205   2.038 -0.7548 -1.5544  0.0323
18383SOL     OW58040   7.060   7.333   1.120 -0.3250 -0.0634 -0.3558
18383SOL    HW158041   7.009   7.331   1.039 -0.8576  0.5481 -0.0460
18383SOL    HW258042   7.075   7.241   1.141 -1.6060 -0.2687 -0.2708
18384SOL     OW58043   7.190   0.421   0.134 -0.1361  0.1483 -0.1406
18384SOL    HW158044   7.165   0.475   0.208 -0.1015  1.0559 -0.7781
18384SOL    HW258045   7.216   0.483   0.066  1.5430 -0.7105 -0.3240
18385SOL     OW58046   7.259   2.652   4.279 -0.0816 -0.6390 -0.1793
18385SOL    HW158047   7.230   2.614   4.196  1.6011  0.8505 -1.5144
18385SOL    HW258048   7.204   2.730   4.290  0.0832 -0.5231 -0.1783
18386SOL     OW58049   9.633   8.508   5.720 -0.0358  0.0649 -0.3258
18386SOL    HW158050   9.577   8.445   5.766 -0.2765  0.3811 -0.1809
18386SOL    HW258051   9.662   8.568   5.789 -0.7520  0.8073 -0.6524
18387SOL     OW58052   3.179   8.199   0.075 -0.1929 -0.0605 -0.3306
18387SOL    HW158053   3.249   8.257   0.105 -1.1246 -0.9436  4.2979
18387SOL    HW258054   3.223   8.119   0.049  0.7214  0.7553 -1.3761
18388SOL     OW58055   2.952   2.099   6.700 -0.1555  0.1569 -0.2967
18388SOL    HW158056   3.000   2.048   6.634  2.6606  1.5649  0.5078
18388SOL    HW258057   2.909   2.032   6.754  0.5366 -1.1911 -1.3305
18389SOL     OW58058   6.801   0.917   8.407  0.3138 -0.2322  0.3122
18389SOL    HW158059   6.804   0.951   8.318  1.1118  1.4198  0.9250
18389SOL    HW258060   6.723   0.957   8.446  0.4091 -0.3069  0.5876
18390SOL     OW58061   2.852   2.663   4.352 -0.3928  0.1627  0.2691
18390SOL    HW158062   2.831   2.584   4.302 -0.6708  1.1015 -1.1576
18390SOL    HW258063   2.890   2.630   4.434 -3.1810 -1.5250  1.0297
18391SOL     OW58064   1.473   4.800   3.757  0.4490  0.4305 -0.0306
18391SOL    HW158065   1.559   4.760   3.744  0.2263  0.5337 -2.1570
18391SOL    HW258066   1.434   4.750   3.829  1.8159 -0.3799  0.1858
18392SOL     OW58067   7.539   7.881   3.461 -0.2366  0.3964 -0.3589
18392SOL    HW158068   7.489   7.839   3.391  0.3594  0.1158 -0.6217
18392SOL    HW258069   7.515   7.832   3.540  0.5557 -0.5481 -0.6814
18393SOL     OW58070   6.517   1.572   7.020 -0.0853 -0.1351  0.0434
18393SOL    HW158071   6.579   1.517   6.971 -0.4188 -1.2037  0.7871
18393SOL    HW258072   6.558   1.659   7.020  0.9710 -0.6141 -0.2541
18394SOL     OW58073   8.398   7.429   4.689 -0.7332 -1.2459  0.4020
18394SOL    HW158074   8.474   7.463   4.735  0.0440 -1.1210 -0.9082
18394SOL    HW258075   8.334   7.500   4.692  0.7622  0.3711 -2.0448
18395SOL     OW58076   4.330   2.980   7.752 -0.0374 -0.6062  0.1362
18395SOL    HW158077   4.290   3.058   7.791  0.2591  0.3162 -1.3344
18395SOL    HW258078   4.423   2.989   7.771  0.2081  0.2151 -1.3286
18396SOL     OW58079   5.210   4.751   8.578 -0.7287  0.1849 -0.8053
18396SOL    HW158080   5.264   4.706   8.643  0.5635  0.0817 -1.9004
18396SOL    HW258081   5.261   4.829   8.555 -0.4676 -0.4585 -2.6413
18397SOL     OW58082   9.389   7.441   1.828  0.2660 -0.4691  0.3331
18397SOL    HW158083   9.468   7.409   1.784  0.2536  0.3110 -0.2842
18397SOL    HW258084   9.322   7.376   1.808 -0.1181  0.5638 -2.0484
18398SOL     OW58085   7.617   1.146   8.290  0.2837 -0.2141  0.1115
18398SOL    HW158086   7.672   1.068   8.292 -0.0023 -0.7435 -3.9080
18398SOL    HW258087   7.679   1.219   8.291  0.6568 -0.5150  1.6094
18399SOL     OW58088   9.423   4.204   7.417  0.0671 -0.2603  0.5117
18399SOL    HW158089   9.479   4.272   7.454 -0.7975 -0.0947  1.5552
18399SOL    HW258090   9.345   4.251   7.387 -0.4628 -0.7686  1.0815
18400SOL     OW58091   8.436   4.951   2.951  0.7785 -0.2518  0.1333
18400SOL    HW158092   8.507   5.015   2.946 -0.9726  1.7309 -1.9239
18400SOL    HW258093   8.396   4.966   3.037 -0.5696  2.7363 -0.8617
18401SOL     OW58094   8.059   4.036   0.431 -0.0637  0.1462  0.3202
18401SOL    HW158095   8.153   4.042   0.450 -0.3531 -1.4769  2.7796
18401SOL    HW258096   8.031   4.127   0.423  1.5523  0.6958  0.3861
18402SOL     OW58097   7.954   6.716   2.885  0.0855  0.3296  0.1938
18402SOL    HW158098   7.888   6.700   2.952 -0.1728 -0.1229 -0.1677
18402SOL    HW258099   8.014   6.642   2.892  0.0458  0.2705 -0.0906
18403SOL     OW58100   6.220   9.168   0.978 -0.7580 -0.3001  0.1100
18403SOL    HW158101   6.234   9.078   0.948  0.5256  0.6995 -2.5859
18403SOL    HW258102   6.264   9.172   1.063 -1.3147 -2.3068  0.5499
18404SOL     OW58103   2.356   5.334   5.368 -0.0459 -0.2056 -0.5510
18404SOL    HW158104   2.406   5.297   5.441  0.5066 -1.2032 -1.4087
18404SOL    HW258105   2.287   5.384   5.410  0.5277 -0.3856  0.6646
18405SOL     OW58106   8.873   3.583   1.126 -0.3099  0.2771  0.8605
18405SOL    HW158107   8.920   3.662   1.101  1.1606 -0.5176  0.9834
18405SOL    HW258108   8.803   3.613   1.183  1.2321  1.3742  2.2725
18406SOL     OW58109   0.280   8.570   6.638 -0.0976  0.1814 -0.0380
18406SOL    HW158110   0.228   8.513   6.695  0.5997  1.6429  2.1582
18406SOL    HW258111   0.371   8.551   6.662  0.2038  1.0165 -0.4943
18407SOL     OW58112   1.069   9.036   1.729  0.5791  0.1852  0.0711
18407SOL    HW158113   1.089   8.961   1.672  2.4071 -0.1555  1.0945
18407SOL    HW258114   0.988   9.010   1.773 -0.1458 -0.1078 -1.3793
18408SOL     OW58115   0.368   4.705   1.745  0.2196  0.4580 -0.1815
18408SOL    HW158116   0.351   4.797   1.766 -1.3831  0.3947 -0.9894
18408SOL    HW258117   0.417   4.708   1.662  1.1116  0.5893  0.3414
18409SOL     OW58118   4.797   9.471   2.806 -0.7781 -0.8208 -0.0169
18409SOL    HW158119   4.711   9.480   2.847 -0.5278  1.6123  0.1187
18409SOL    HW258120   4.784   9.497   2.715  0.0595  1.2571  0.3920
18410SOL     OW58121   7.130   4.910   3.224 -0.4074 -0.6656  0.3547
18410SOL    HW158122   7.054   4.855   3.202  0.1500 -0.3534 -2.8423
18410SOL    HW258123   7.203   4.870   3.178  1.1999 -0.3121  2.4695
18411SOL     OW58124   0.793   4.555   6.128  0.1164  0.6745 -0.6207
18411SOL    HW158125   0.779   4.649   6.136 -0.7622  0.5656 -0.7594
18411SOL    HW258126   0.722   4.525   6.071  1.4736  0.2185 -2.1662
18412SOL     OW58127   5.048   4.001   7.321  0.6952  0.3813 -0.2830
18412SOL    HW158128   4.983   4.018   7.390  1.9898  0.4962  0.9629
18412SOL    HW258129   5.010   3.930   7.269 -0.4762  0.5323  0.3312
18413SOL     OW58130   8.377   4.917   4.134  0.0469 -0.5797  0.1076
18413SOL    HW158131   8.307   4.853   4.123  0.0038 -0.5070 -0.0594
18413SOL    HW258132   8.456   4.865   4.152  0.3012 -0.7779 -1.4150
18414SOL     OW58133   2.897   3.512   6.394  0.3109 -0.2189  0.1100
18414SOL    HW158134   2.989   3.531   6.412  0.3538  0.0031 -0.3285
18414SOL    HW258135   2.897   3.474   6.306 -0.0703  0.3324 -0.1417
18415SOL     OW58136   0.491   0.421   8.496 -0.3091 -0.2492 -0.0468
18415SOL    HW158137   0.499   0.439   8.589  0.7809  0.5570 -0.2762
18415SOL    HW258138   0.402   0.447   8.474  0.3993  2.6835  0.1538
18416SOL     OW58139   9.597   2.476   1.456 -0.1521  0.8112  0.2499
18416SOL    HW158140   9.555   2.554   1.420  0.3076  0.7959 -0.3271
18416SOL    HW258141   9.671   2.459   1.398 -1.0630 -0.9044 -0.5014
18417SOL     OW58142   3.955   0.458   0.612  0.5422  0.0917 -0.1301
18417SOL    HW158143   3.888   0.493   0.670 -0.9490 -4.0078  0.9687
18417SOL    HW258144   3.909   0.440   0.530  0.8732 -0.5622 -0.1831
18418SOL     OW58145   6.883   8.355   7.242  0.1482 -0.4376  0.5420
18418SOL    HW158146   6.949   8.285   7.236 -0.0861 -0.6346  0.2734
18418SOL    HW258147   6.891   8.386   7.332  1.2832  0.1950  0.2479
18419SOL     OW58148   7.902   2.032   2.557  0.3186 -0.3930  0.4145
18419SOL    HW158149   7.976   2.068   2.606  0.2499 -0.9661  0.9503
18419SOL    HW258150   7.934   1.947   2.525  0.1219 -0.3375  0.0621
18420SOL     OW58151   8.823   5.082   3.978  0.0976 -0.0010  0.3163
18420SOL    HW158152   8.735   5.104   3.947 -0.0930 -1.3717 -0.2098
18420SOL    HW258153   8.877   5.156   3.954 -1.0092  1.1080  1.1180
18421SOL     OW58154   5.649   7.920   9.204 -0.1612  0.3085 -0.7242
18421SOL    HW158155   5.738   7.954   9.214 -0.1556  0.0063  0.3799
18421SOL    HW258156   5.654   7.861   9.129  0.9155 -0.7691  0.1558
18422SOL     OW58157   6.925   5.544   6.984  0.1633  0.0792  0.3236
18422SOL    HW158158   6.974   5.525   7.064 -0.7500 -0.1776  0.8302
18422SOL    HW258159   6.842   5.579   7.014  0.0989  0.6943 -0.5373
18423SOL     OW58160   7.391   5.897   3.249 -0.1228  0.0153 -0.3016
18423SOL    HW158161   7.453   5.906   3.177  0.3265  0.0690  0.0880
18423SOL    HW258162   7.420   5.820   3.298 -1.4171 -1.0313 -1.1317
18424SOL     OW58163   1.757   2.416   2.966 -0.1072 -0.3531  0.3285
18424SOL    HW158164   1.722   2.438   2.880 -1.0976 -0.5337  0.6668
18424SOL    HW258165   1.693   2.452   3.028 -0.3751 -1.7897  0.9355
18425SOL     OW58166   6.731   6.097   7.748  0.2696  0.0810 -0.4615
18425SOL    HW158167   6.711   6.190   7.759 -0.6382 -0.1099 -0.3755
18425SOL    HW258168   6.686   6.073   7.667  0.8218 -0.1960 -0.6896
18426SOL     OW58169   7.317   6.254   5.464  0.1982  0.2088  0.5273
18426SOL    HW158170   7.413   6.255   5.474  0.4963  1.3843 -1.7777
18426SOL    HW258171   7.298   6.333   5.414 -2.0559  0.1634  1.2239
18427SOL     OW58172   7.194   7.917   8.958  0.4251  0.7692  0.3078
18427SOL    HW158173   7.209   7.839   9.012 -0.0020 -1.0155 -2.0255
18427SOL    HW258174   7.267   7.975   8.981  1.4717 -0.8221  1.2442
18428SOL     OW58175   0.359   8.923   2.719 -0.3980  0.2198 -0.1378
18428SOL    HW158176   0.282   8.896   2.769 -0.7863  0.1903 -0.7391
18428SOL    HW258177   0.431   8.921   2.782 -1.0124  0.9264  0.6016
18429SOL     OW58178   7.367   6.332   4.847  0.2569  0.4936  0.0140
18429SOL    HW158179   7.296   6.364   4.790  1.0536  0.0090 -1.2925
18429SOL    HW258180   7.356   6.381   4.928 -1.4145  0.6177 -0.2516
18430SOL     OW58181   8.111   0.906   5.182  0.3986 -0.3498  0.0101
18430SOL    HW158182   8.206   0.907   5.171  0.5292 -1.4918  0.9074
18430SOL    HW258183   8.081   0.838   5.122  0.1278  0.0701 -0.3375
18431SOL     OW58184   5.487   0.193   9.543  0.0711 -0.4411 -0.2035
18431SOL    HW158185   5.518   0.156   9.625 -0.5228 -1.7541 -0.5455
18431SOL    HW258186   5.542   0.153   9.476 -1.2897 -1.6231 -0.6766
18432SOL     OW58187   5.979   9.395   8.490  0.8823  0.1257 -0.0125
18432SOL    HW158188   5.919   9.466   8.471 -0.6899 -1.0660  0.3288
18432SOL    HW258189   6.021   9.376   8.406  1.6446  1.7061 -0.0122
18433SOL     OW58190   7.669   5.562   8.121  0.5395 -0.3211 -0.2316
18433SOL    HW158191   7.639   5.500   8.055 -0.0402  0.6685 -0.9398
18433SOL    HW258192   7.672   5.646   8.074  3.1275 -0.1134  0.1598
18434SOL     OW58193   6.721   7.917   6.699  0.3984  0.1081  0.3023
18434SOL    HW158194   6.662   7.960   6.762 -0.4330 -1.6730  0.7982
18434SOL    HW258195   6.687   7.942   6.613 -2.0428 -1.9444  0.5333
18435SOL     OW58196   9.160   4.476   1.909 -0.3652 -0.0017  0.0904
18435SOL    HW158197   9.196   4.388   1.921 -0.2193 -0.0591 -0.7311
18435SOL    HW258198   9.211   4.531   1.969  1.5804  0.0344 -1.5014
18436SOL     OW58199   0.849   6.760   1.311 -0.3509 -0.1243  0.0065
18436SOL    HW158200   0.773   6.719   1.269 -1.4974  1.0713  0.8277
18436SOL    HW258201   0.824   6.769   1.402  0.1746  1.6377  0.0118
18437SOL     OW58202   1.145   5.606   4.586  0.1144  0.1005 -0.0859
18437SOL    HW158203   1.182   5.677   4.638 -0.7295  0.9602 -0.6356
18437SOL    HW258204   1.198   5.603   4.507  0.1389  0.1286 -0.0700
18438SOL     OW58205   7.683   7.090   0.641 -0.0748  0.5674  0.0711
18438SOL    HW158206   7.729   7.065   0.561  0.9135 -0.9095  1.0404
18438SOL    HW258207   7.592   7.104   0.613  0.2301  0.0118 -1.2915
18439SOL     OW58208   3.039   0.215   5.743 -0.0702  0.2141  0.2797
18439SOL    HW158209   3.105   0.262   5.692  0.3878  1.9909  2.3524
18439SOL    HW258210   3.013   0.277   5.811  0.0652 -2.2860  2.7868
18440SOL     OW58211   5.430   8.462   4.137  0.1923 -0.4482 -0.8451
18440SOL    HW158212   5.508   8.422   4.176 -0.7804 -1.1562  0.4496
18440SOL    HW258213   5.363   8.394   4.142 -0.9416  0.6461 -0.4907
18441SOL     OW58214   2.168   3.521   0.557 -0.0722 -0.0117 -0.0108
18441SOL    HW158215   2.195   3.432   0.538 -0.4960  0.0903 -1.1667
18441SOL    HW258216   2.241   3.576   0.527  0.1302  0.0493  0.5736
18442SOL     OW58217   0.573   3.338   4.598  0.8708  0.0867 -0.1124
18442SOL    HW158218   0.637   3.360   4.666  1.0709 -0.3555 -0.1513
18442SOL    HW258219   0.623   3.287   4.534  0.7036  0.5826 -0.6376
18443SOL     OW58220   0.525   6.112   2.022 -0.2037 -0.9022  0.1536
18443SOL    HW158221   0.441   6.143   1.990  0.5225 -0.6989 -1.7034
18443SOL    HW258222   0.559   6.056   1.951  1.4928 -0.4463  0.5542
18444SOL     OW58223   4.647   7.876   6.420 -0.1939 -0.1183 -0.2179
18444SOL    HW158224   4.589   7.828   6.479 -0.7460 -1.3906 -1.7223
18444SOL    HW258225   4.698   7.933   6.478 -0.3326 -1.6625  1.5317
18445SOL     OW58226   2.451   3.372   3.878 -0.8483  0.3268  0.0724
18445SOL    HW158227   2.480   3.456   3.914 -1.0232  0.6818 -0.5971
18445SOL    HW258228   2.479   3.374   3.786  0.7337 -1.1068  0.4811
18446SOL     OW58229   6.353   2.389   6.271 -0.5949 -0.0541 -0.1630
18446SOL    HW158230   6.345   2.484   6.266 -0.4089 -0.0917 -1.2645
18446SOL    HW258231   6.415   2.365   6.202 -1.3163 -1.0552 -0.4983
18447SOL     OW58232   3.736   9.497   5.040  0.1117 -0.2368  0.3465
18447SOL    HW158233   3.705   9.493   4.950 -0.0074  0.1454  0.3700
18447SOL    HW258234   3.824   9.535   5.033 -0.2624  0.6920  0.4693
18448SOL     OW58235   6.132   6.102   4.847 -0.5183  0.4209 -0.1307
18448SOL    HW158236   6.169   6.125   4.933 -1.3229 -0.4661  0.4812
18448SOL    HW258237   6.084   6.180   4.820 -0.1278  0.7653  0.1609
18449SOL     OW58238   3.244   0.738   7.527  0.5872  0.0062 -0.2208
18449SOL    HW158239   3.275   0.669   7.586  1.7284  1.2157  0.6585
18449SOL    HW258240   3.149   0.726   7.526  0.3708  0.5856  2.8184
18450SOL     OW58241   6.121   1.681   2.961  0.0523  0.1710  0.2240
18450SOL    HW158242   6.168   1.690   3.044  1.3678 -0.6072 -0.4025
18450SOL    HW258243   6.067   1.604   2.972  0.2651  0.0381  0.3485
18451SOL     OW58244   3.742   7.542   6.078  0.2086 -0.3020  0.1293
18451SOL    HW158245   3.754   7.459   6.032  0.4328 -0.2226  0.0427
18451SOL    HW258246   3.663   7.529   6.131  1.2273 -1.1984  1.4968
18452SOL     OW58247   7.593   6.157   5.397 -0.6317  0.0813  0.0036
18452SOL    HW158248   7.633   6.140   5.482 -0.0078 -0.0642 -0.3159
18452SOL    HW258249   7.666   6.179   5.340 -1.1951  1.7335 -0.1300
18453SOL     OW58250   8.937   0.182   1.821  0.0664 -0.6675 -0.5511
18453SOL    HW158251   8.884   0.177   1.900  0.0393 -2.3551 -0.6367
18453SOL    HW258252   8.876   0.210   1.752 -0.4973 -1.6338 -0.4560
18454SOL     OW58253   4.058   6.271   8.687 -0.1112  0.5817  0.3098
18454SOL    HW158254   4.114   6.337   8.646 -0.4662  1.1918  0.7832
18454SOL    HW258255   4.118   6.201   8.713  0.5750  1.5822  1.5442
18455SOL     OW58256   3.687   6.304   5.862 -0.2615  0.0162  0.0017
18455SOL    HW158257   3.706   6.326   5.953  0.0803  0.6285 -0.2092
18455SOL    HW258258   3.769   6.323   5.816 -0.6839  0.4970 -0.5605
18456SOL     OW58259   3.275   1.419   8.854  0.0418  0.2293 -0.6138
18456SOL    HW158260   3.196   1.418   8.909 -0.8600 -0.6012 -1.8597
18456SOL    HW258261   3.346   1.397   8.913 -0.9513 -1.0216  0.1705
18457SOL     OW58262   7.701   4.500   1.380 -0.3941  0.7163 -0.2626
18457SOL    HW158263   7.677   4.541   1.463  0.9194  0.2791  0.3695
18457SOL    HW258264   7.780   4.546   1.353 -1.3957  1.5744 -1.8541
18458SOL     OW58265   5.148   4.962   4.888 -0.2158 -0.0077 -0.1021
18458SOL    HW158266   5.140   5.048   4.930 -2.8363  0.3583 -1.1184
18458SOL    HW258267   5.199   4.910   4.949  0.3153  1.8910  1.1769
18459SOL     OW58268   1.888   0.211   8.852 -0.2813  0.2972 -0.5730
18459SOL    HW158269   1.931   0.241   8.771  1.4733 -0.0808  0.1813
18459SOL    HW258270   1.877   0.291   8.904  1.3061  0.1402  0.0315
18460SOL     OW58271   8.405   6.305   4.452 -0.3318 -0.3217  0.2173
18460SOL    HW158272   8.421   6.382   4.507 -0.4547  0.7004 -1.1182
18460SOL    HW258273   8.436   6.331   4.365  1.8683 -2.6678  0.2017
18461SOL     OW58274   7.557   5.252   2.913  0.3754  0.0460 -0.3038
18461SOL    HW158275   7.628   5.246   2.849  0.0180  0.5398 -0.7544
18461SOL    HW258276   7.546   5.346   2.928  1.3641 -0.0904  1.5223
18462SOL     OW58277   8.836   6.604   5.806 -0.3048 -0.1756 -0.3414
18462SOL    HW158278   8.757   6.612   5.753 -0.5536  1.3898  0.2038
18462SOL    HW258279   8.891   6.677   5.779  2.1813 -2.6474 -2.5553
18463SOL     OW58280   7.471   1.131   3.696 -0.0385 -0.6480  0.1942
18463SOL    HW158281   7.555   1.176   3.685  1.3850 -2.6814  1.9693
18463SOL    HW258282   7.433   1.171   3.774 -0.4192 -0.2038 -0.2117
18464SOL     OW58283   1.478   7.093   1.544  0.8334 -0.1703 -0.4451
18464SOL    HW158284   1.401   7.149   1.557  1.4299  0.6633 -0.3662
18464SOL    HW258285   1.489   7.049   1.629 -0.2364 -1.2126 -0.8188
18465SOL     OW58286   3.277   3.204   3.910 -0.0040 -0.2233  0.1081
18465SOL    HW158287   3.193   3.159   3.921 -0.8306  1.0957 -0.5813
18465SOL    HW258288   3.290   3.251   3.992  1.1168 -2.0503  1.0378
18466SOL     OW58289   6.857   7.143   0.503  0.0480  0.4042  0.3911
18466SOL    HW158290   6.822   7.207   0.441  2.2525 -1.6727 -3.3900
18466SOL    HW258291   6.789   7.076   0.509 -0.1123  0.5331  0.0409
18467SOL     OW58292   1.677   6.755   6.822 -0.0514 -0.8111 -0.4792
18467SOL    HW158293   1.584   6.740   6.806 -0.5051  0.0540  1.2028
18467SOL    HW258294   1.693   6.721   6.910  1.0965 -0.4075 -0.5102
18468SOL     OW58295   5.443   2.238   3.437  0.0107 -0.1040  0.7723
18468SOL    HW158296   5.385   2.305   3.473  1.0482  1.3082 -0.0784
18468SOL    HW258297   5.490   2.283   3.367  1.3007 -1.5255  0.6865
18469SOL     OW58298   9.595   7.522   3.350 -0.8778  0.0184  0.0541
18469SOL    HW158299   9.620   7.567   3.269 -1.7861  0.1290 -0.1801
18469SOL    HW258300   9.544   7.587   3.399 -0.5694 -0.1384  0.5860
18470SOL     OW58301   1.672   5.011   6.733  0.1897  0.5385 -0.6951
18470SOL    HW158302   1.738   5.007   6.802  1.6855  2.1259 -1.9316
18470SOL    HW258303   1.687   4.932   6.681 -0.6137 -0.4071  0.4779
18471SOL     OW58304   2.142   7.619   0.994  0.6784  0.5852  0.4577
18471SOL    HW158305   2.098   7.695   1.033 -1.2840 -1.8966  3.6529
18471SOL    HW258306   2.232   7.623   1.028  1.0396  2.1170 -0.5680
18472SOL     OW58307   0.147   1.437   7.533  0.1396 -0.1597 -0.6144
18472SOL    HW158308   0.177   1.354   7.496  0.0381 -0.7601  0.6152
18472SOL    HW258309   0.053   1.439   7.515 -0.1082 -0.9434  0.4780
18473SOL     OW58310   2.059   2.610   6.211 -0.2012  0.2727  0.0123
18473SOL    HW158311   2.023   2.697   6.196 -0.6430 -0.1460 -1.5007
18473SOL    HW258312   2.043   2.593   6.304 -1.8784  1.0029 -0.1084
18474SOL     OW58313   1.057   1.302   2.224  0.3754  0.1511 -0.5532
18474SOL    HW158314   1.061   1.217   2.268 -1.9269  0.2230 -0.0722
18474SOL    HW258315   1.008   1.284   2.143 -1.8111  1.2718  0.4306
18475SOL     OW58316   1.328   3.681   8.465  0.5120  0.5455  0.0377
18475SOL    HW158317   1.363   3.755   8.415 -0.7042 -0.0663 -1.8252
18475SOL    HW258318   1.243   3.712   8.498  1.4639  1.0740  2.1507
18476SOL     OW58319   1.649   0.760   6.037 -0.3296 -0.5233  0.4518
18476SOL    HW158320   1.717   0.778   6.103 -0.1683 -0.7086  0.3360
18476SOL    HW258321   1.652   0.665   6.025 -2.0205 -0.8330  1.9672
18477SOL     OW58322   5.172   3.845   6.179 -0.0326  0.2706  0.2501
18477SOL    HW158323   5.182   3.781   6.109 -2.8120 -0.0454  0.0182
18477SOL    HW258324   5.127   3.919   6.137 -0.6275  0.5943  1.4261
18478SOL     OW58325   2.876   5.323   6.754 -0.2954 -0.1213 -0.1788
18478SOL    HW158326   2.888   5.253   6.819  1.0218 -0.3470 -0.6384
18478SOL    HW258327   2.927   5.396   6.789  0.2024 -0.1569 -0.8211
18479SOL     OW58328   3.594   6.535   4.807 -0.1520  0.2796  0.2403
18479SOL    HW158329   3.558   6.447   4.800 -0.9498  0.6271 -0.0906
18479SOL    HW258330   3.572   6.564   4.896 -0.7353  0.5017  0.0298
18480SOL     OW58331   1.569   4.000   4.715 -0.8262 -0.4664 -0.4664
18480SOL    HW158332   1.479   4.013   4.746 -0.9154  0.2616 -1.0039
18480SOL    HW258333   1.567   3.917   4.668 -1.1926 -0.4932 -0.4079
18481SOL     OW58334   6.080   5.743   5.722 -0.3751 -0.2109 -0.1804
18481SOL    HW158335   6.167   5.721   5.690 -0.6318 -1.0662 -0.3147
18481SOL    HW258336   6.057   5.671   5.781 -1.1279 -0.1765 -0.4194
18482SOL     OW58337   1.467   4.708   4.505 -0.1814  0.3616  0.1993
18482SOL    HW158338   1.430   4.654   4.435 -0.5323  1.3562 -0.4067
18482SOL    HW258339   1.400   4.710   4.573 -0.1447 -0.0048  0.2465
18483SOL     OW58340   1.528   4.976   2.709 -0.8009  0.2590 -0.5101
18483SOL    HW158341   1.509   4.991   2.617  0.9521  1.4427 -0.7126
18483SOL    HW258342   1.600   4.913   2.709  0.4997  1.7094 -0.0373
18484SOL     OW58343   5.280   5.272   1.468 -0.2452 -0.8578  0.3104
18484SOL    HW158344   5.341   5.226   1.409 -0.8759 -2.0567  0.5622
18484SOL    HW258345   5.263   5.355   1.424 -0.3565 -1.5364 -1.0013
18485SOL     OW58346   1.120   6.409   3.180  0.7405  0.5012  0.4770
18485SOL    HW158347   1.029   6.406   3.209  0.4955  0.4349 -0.2883
18485SOL    HW258348   1.116   6.399   3.085  1.6981 -2.3488  0.6450
18486SOL     OW58349   7.022   4.193   4.254 -0.0799 -0.2438  0.8424
18486SOL    HW158350   6.983   4.155   4.175  2.3502 -1.5672  0.1627
18486SOL    HW258351   6.951   4.243   4.294 -1.5527  0.0575 -1.8946
18487SOL     OW58352   4.703   4.491   8.311  0.1313 -0.0828 -0.1971
18487SOL    HW158353   4.634   4.425   8.319 -0.3511  0.5589  1.0459
18487SOL    HW258354   4.657   4.572   8.290  0.5378  0.2681  0.2442
18488SOL     OW58355   4.678   4.774   7.921 -0.0587  0.0508 -0.4282
18488SOL    HW158356   4.616   4.704   7.900  0.6654 -0.5026 -0.7873
18488SOL    HW258357   4.631   4.831   7.981 -0.3415 -1.2668  0.6381
18489SOL     OW58358   2.966   1.435   1.192  0.1013  0.1569  0.5665
18489SOL    HW158359   3.038   1.455   1.251  2.6926  1.4338 -2.6941
18489SOL    HW258360   2.925   1.520   1.175 -0.8692 -0.2561  0.7688
18490SOL     OW58361   2.971   7.109   7.067 -0.2951 -0.6363  0.1288
18490SOL    HW158362   2.953   7.138   7.156 -2.8757  0.0282 -0.5343
18490SOL    HW258363   3.004   7.187   7.022 -1.9577 -0.1183 -0.2461
18491SOL     OW58364   7.678   1.522   1.121  0.4915 -0.1349  0.0289
18491SOL    HW158365   7.613   1.453   1.135  0.1350 -0.0323 -1.0362
18491SOL    HW258366   7.760   1.484   1.153  0.4304 -1.3229 -1.1367
18492SOL     OW58367   1.259   1.327   1.270 -0.2311 -0.4806 -0.2268
18492SOL    HW158368   1.225   1.379   1.342  0.3659  1.2583 -1.1274
18492SOL    HW258369   1.192   1.334   1.202 -0.2229 -1.0522 -0.2947
18493SOL     OW58370   5.942   5.524   1.670  0.0669  0.3411  0.2445
18493SOL    HW158371   6.002   5.553   1.739  0.0442 -0.5916  0.6794
18493SOL    HW258372   5.976   5.563   1.590 -0.0552  1.6616  0.8125
18494SOL     OW58373   3.358   5.712   4.919 -0.0465 -0.5143 -0.1434
18494SOL    HW158374   3.415   5.774   4.873  0.9695 -1.1061  0.2742
18494SOL    HW258375   3.358   5.743   5.009  0.3094 -1.0001  0.0274
18495SOL     OW58376   0.036   5.514   3.152  0.4550 -0.5401 -0.4277
18495SOL    HW158377   0.017   5.445   3.215 -0.6630  0.1976  0.0741
18495SOL    HW258378   0.051   5.592   3.206 -1.3843  0.3083 -1.0581
18496SOL     OW58379   6.452   0.792   6.931  0.8441 -0.0589  0.5700
18496SOL    HW158380   6.393   0.832   6.996 -0.4668  0.6678 -0.9700
18496SOL    HW258381   6.537   0.831   6.948  0.3875  0.5745  1.4698
18497SOL     OW58382   9.393   5.781   0.547 -0.2488  0.4676 -0.4415
18497SOL    HW158383   9.312   5.751   0.505  1.0883 -0.7194 -2.3401
18497SOL    HW258384   9.373   5.870   0.576 -2.2642  0.1764 -0.7496
18498SOL     OW58385   8.127   1.313   5.324 -0.0150  0.5291 -0.5163
18498SOL    HW158386   8.093   1.249   5.387  0.9724  1.2120  0.7474
18498SOL    HW258387   8.214   1.281   5.300 -0.2659  0.4270 -1.3473
18499SOL     OW58388   1.158   0.838   4.873  0.3513 -0.5816  0.4748
18499SOL    HW158389   1.168   0.915   4.817  2.9956 -0.8433  0.4601
18499SOL    HW258390   1.152   0.874   4.961  0.9665 -0.3163  0.4140
18500SOL     OW58391   4.410   5.347   3.212  0.0233 -0.2150 -0.0745
18500SOL    HW158392   4.356   5.383   3.283  0.4369  2.6081 -1.0694
18500SOL    HW258393   4.389   5.400   3.136  0.5548 -2.3179 -1.8069
18501SOL     OW58394   4.020   8.049   4.502 -0.0967  0.3364  0.1514
18501SOL    HW158395   3.963   7.987   4.456  0.1366 -1.3162  1.9562
18501SOL    HW258396   3.986   8.052   4.591  0.1332  2.5867  0.2390
18502SOL     OW58397   6.209   9.441   0.514 -0.0151 -0.3412  0.2041
18502SOL    HW158398   6.214   9.404   0.603 -0.1240 -0.8394  0.0049
18502SOL    HW258399   6.208   9.365   0.457  0.3900 -0.0116 -0.2450
18503SOL     OW58400   9.311   3.365   2.651 -0.2209 -0.3645 -0.3280
18503SOL    HW158401   9.347   3.288   2.607  2.0787 -0.2027  1.1553
18503SOL    HW258402   9.328   3.438   2.591  0.6753 -0.5061 -0.2461
18504SOL     OW58403   5.873   7.389   8.331 -0.1585 -0.3093  0.4357
18504SOL    HW158404   5.862   7.430   8.417  0.1927  0.7165  0.0169
18504SOL    HW258405   5.884   7.296   8.349 -0.5961 -0.1766  1.4597
18505SOL     OW58406   2.697   1.337   3.182  0.9084 -0.1611  0.6632
18505SOL    HW158407   2.763   1.332   3.114  0.1934 -0.9085  0.0115
18505SOL    HW258408   2.729   1.281   3.252  1.0962 -0.3004  0.4642
18506SOL     OW58409   1.546   0.547   3.824 -0.7024  0.3363  0.6685
18506SOL    HW158410   1.543   0.643   3.824 -1.2233  0.3308 -0.5428
18506SOL    HW258411   1.463   0.521   3.863 -1.0202  0.3802  0.0317
18507SOL     OW58412   3.854   0.300   7.549 -0.3461 -0.4474  0.0686
18507SOL    HW158413   3.881   0.366   7.612 -1.4527  0.5113 -0.4054
18507SOL    HW258414   3.901   0.322   7.469 -0.4822 -0.4059 -0.0021
18508SOL     OW58415   1.681   5.389   1.037  0.2039  0.7314  0.2050
18508SOL    HW158416   1.589   5.366   1.045  0.2713  0.5288  0.4051
18508SOL    HW258417   1.698   5.446   1.112  0.1310  1.1277 -0.0799
18509SOL     OW58418   3.232   1.067   1.752 -0.1911 -0.3657  0.0817
18509SOL    HW158419   3.170   1.094   1.819 -0.7859  0.2458 -0.6824
18509SOL    HW258420   3.237   0.972   1.761  0.2402 -0.2349  1.3949
18510SOL     OW58421   5.481   0.897   4.397 -0.3832  0.8119  0.1696
18510SOL    HW158422   5.523   0.978   4.427  0.9442 -0.4395  1.9436
18510SOL    HW258423   5.555   0.841   4.372 -1.3283  0.5456 -2.2775
18511SOL     OW58424   4.068   2.240   7.164 -0.4572  0.6000 -0.3307
18511SOL    HW158425   4.158   2.238   7.195 -0.6872  0.0675  0.3030
18511SOL    HW258426   4.015   2.252   7.242 -1.2216 -3.3049 -0.0433
18512SOL     OW58427   4.633   5.285   3.744  1.1114 -0.0654  0.1414
18512SOL    HW158428   4.660   5.257   3.831  0.3193  0.9534  0.7303
18512SOL    HW258429   4.707   5.335   3.710  1.1414  0.1386  0.5111
18513SOL     OW58430   8.607   4.534   9.325  0.5403  0.0720 -0.2265
18513SOL    HW158431   8.512   4.532   9.311  0.5388  1.1841 -0.4916
18513SOL    HW258432   8.640   4.460   9.273 -0.0946  0.2603 -0.9198
18514SOL     OW58433   6.771   8.273   9.503 -0.1209 -0.3575  0.3906
18514SOL    HW158434   6.778   8.353   9.450  0.3593 -0.6804 -0.0454
18514SOL    HW258435   6.742   8.304   9.589 -0.0008  0.2805  0.2094
18515SOL     OW58436   7.913   0.531   5.308 -0.0742  0.4188  0.0396
18515SOL    HW158437   7.979   0.597   5.329  0.1848  0.1260  0.1559
18515SOL    HW258438   7.835   0.558   5.357 -0.6187  1.7723 -1.4881
18516SOL     OW58439   7.484   9.547   2.660 -0.5096  0.1557  0.4173
18516SOL    HW158440   7.442   9.472   2.618 -1.0119  1.3704 -1.3256
18516SOL    HW258441   7.574   9.518   2.675 -0.3244 -0.3781 -1.4573
18517SOL     OW58442   0.109   4.588   0.963  0.7799  0.2607 -0.4071
18517SOL    HW158443   0.154   4.605   0.880  2.5802 -0.9382  0.2462
18517SOL    HW258444   0.176   4.604   1.029  0.2338 -1.5180  0.6366
18518SOL     OW58445   3.688   6.849   1.999 -0.2109  0.2500  0.2109
18518SOL    HW158446   3.705   6.756   1.981  2.0411  0.9867 -2.0153
18518SOL    HW258447   3.602   6.866   1.962  0.0240 -0.6266 -0.7662
18519SOL     OW58448   8.907   9.499   9.002  0.0799 -0.2829  0.2052
18519SOL    HW158449   8.908   9.492   8.907 -1.6205 -0.9122  0.1937
18519SOL    HW258450   8.953   9.581   9.021 -0.2337  0.2418 -1.1908
18520SOL     OW58451   2.368   9.623   7.724  0.0554  0.2549 -0.2837
18520SOL    HW158452   2.375   9.603   7.631 -0.2401  0.1744 -0.2908
18520SOL    HW258453   2.340   9.541   7.764  0.5322  0.1908 -0.0713
18521SOL     OW58454   3.278   6.451   4.385 -0.2190  0.1615 -0.2899
18521SOL    HW158455   3.311   6.447   4.296  0.6831 -0.8968  0.0675
18521SOL    HW258456   3.236   6.366   4.399  0.6361 -0.1272  0.6472
18522SOL     OW58457   4.982   4.027   3.630  0.0063 -0.1233 -0.0361
18522SOL    HW158458   5.037   4.101   3.604 -0.3777 -0.0221 -0.5808
18522SOL    HW258459   4.966   3.980   3.549  2.3654 -2.2968  0.6406
18523SOL     OW58460   2.799   8.187   4.983  0.4597  0.0903 -0.0237
18523SOL    HW158461   2.867   8.222   5.039  0.7745  0.2377 -0.4874
18523SOL    HW258462   2.752   8.123   5.037  0.7882  0.1935  0.3801
18524SOL     OW58463   7.575   4.786   1.223 -0.1235  0.5297  0.2751
18524SOL    HW158464   7.627   4.860   1.191  1.2085 -0.6833 -0.4524
18524SOL    HW258465   7.593   4.784   1.317  3.2023 -1.2877 -0.2313
18525SOL     OW58466   9.002   1.335   3.347 -0.3734 -0.2447 -0.3606
18525SOL    HW158467   8.976   1.258   3.398  1.9326  0.7791  2.6856
18525SOL    HW258468   9.098   1.333   3.349 -0.2111  3.0193  0.4963
18526SOL     OW58469   3.734   2.225   4.681 -0.0782  0.0710 -0.2140
18526SOL    HW158470   3.790   2.286   4.634 -1.6242  1.3836 -0.4354
18526SOL    HW258471   3.680   2.185   4.613  0.8077 -1.4954 -0.0558
18527SOL     OW58472   0.675   3.460   4.057 -0.0051 -0.1591 -0.3395
18527SOL    HW158473   0.641   3.531   4.112 -0.5032  0.7679 -1.7794
18527SOL    HW258474   0.736   3.503   3.997  0.7688 -1.1933 -0.3156
18528SOL     OW58475   7.768   2.932   8.744  0.0125 -0.6150 -0.3324
18528SOL    HW158476   7.796   3.019   8.772 -0.9307 -0.9816  1.9539
18528SOL    HW258477   7.724   2.895   8.820 -4.0493 -1.2257 -2.6655
18529SOL     OW58478   8.923   2.984   1.532 -0.1698  0.3459 -0.2804
18529SOL    HW158479   8.880   2.911   1.487 -0.0970  0.1736 -0.0768
18529SOL    HW258480   8.982   2.941   1.595 -0.1613  0.5805 -0.1272
18530SOL     OW58481   5.870   6.661   3.748 -0.1807 -0.4256 -0.5892
18530SOL    HW158482   5.929   6.715   3.695 -1.5655  0.0129 -1.7259
18530SOL    HW258483   5.906   6.573   3.741  0.9030 -0.0137 -0.4433
18531SOL     OW58484   8.747   3.258   5.679 -0.1435 -0.0602 -0.2401
18531SOL    HW158485   8.712   3.208   5.605  2.5532 -1.7162 -0.5325
18531SOL    HW258486   8.784   3.191   5.737 -2.4658  1.1600  2.8846
18532SOL     OW58487   7.251   4.643   0.288  0.1244  0.3707 -0.0206
18532SOL    HW158488   7.190   4.580   0.248 -0.4610  0.7353  0.2859
18532SOL    HW258489   7.271   4.605   0.374  0.6740  0.0383 -0.2882
18533SOL     OW58490   3.856   5.322   8.649 -0.4908 -0.0677  0.0626
18533SOL    HW158491   3.921   5.393   8.645  1.1489 -1.5126  0.0688
18533SOL    HW258492   3.848   5.292   8.559  0.6690 -1.4396  0.3840
18534SOL     OW58493   5.225   2.459   0.537  0.0456  0.2568  0.4907
18534SOL    HW158494   5.248   2.551   0.523 -2.4761  0.8684 -0.1900
18534SOL    HW258495   5.262   2.413   0.461 -1.0699  1.2087 -0.6732
18535SOL     OW58496   8.007   7.372   1.940 -0.1829 -0.0035 -0.3211
18535SOL    HW158497   7.931   7.401   1.990 -0.6161 -0.8532 -0.4792
18535SOL    HW258498   8.056   7.316   2.000 -0.8406 -1.2369 -0.9152
18536SOL     OW58499   9.094   2.582   1.741 -0.0915 -0.1581 -0.2270
18536SOL    HW158500   9.155   2.524   1.786 -0.4279 -0.8854 -0.6848
18536SOL    HW258501   9.012   2.534   1.740 -0.5563  0.6205 -0.0212
18537SOL     OW58502   7.862   8.966   4.250  0.5374 -0.7311  0.1902
18537SOL    HW158503   7.871   8.872   4.265 -1.3308 -1.0446 -0.3458
18537SOL    HW258504   7.946   8.993   4.214  0.7415 -2.4241 -0.6897
18538SOL     OW58505   1.141   3.913   5.390 -0.4399  0.0161 -0.0896
18538SOL    HW158506   1.123   3.836   5.444 -0.9485 -0.3922 -0.8215
18538SOL    HW258507   1.158   3.878   5.303 -2.5677  0.7981 -0.8968
18539SOL     OW58508   7.479   2.371   5.733  0.2164  0.0391  0.3231
18539SOL    HW158509   7.548   2.335   5.677  0.5586 -0.2881  0.9521
18539SOL    HW258510   7.523   2.394   5.815 -0.2726  0.5617  0.4509
18540SOL     OW58511   8.755   4.136   9.283  0.3164 -0.0793  0.3984
18540SOL    HW158512   8.766   4.219   9.236 -1.7962  0.2443  0.3577
18540SOL    HW258513   8.722   4.076   9.217  0.9784 -0.7131  0.6347
18541SOL     OW58514   8.842   9.532   2.156  0.3440  0.5543 -0.4736
18541SOL    HW158515   8.808   9.610   2.112  1.3143  1.2379 -0.0359
18541SOL    HW258516   8.791   9.459   2.119 -0.1624  1.3229 -1.3144
18542SOL     OW58517   3.814   0.844   7.023  0.6705  0.4800 -0.0202
18542SOL    HW158518   3.757   0.863   7.098  0.0185 -1.1011 -0.0657
18542SOL    HW258519   3.896   0.887   7.044 -0.2649  2.1266  0.4458
18543SOL     OW58520   0.608   3.246   3.910  0.0750 -1.1870  0.2823
18543SOL    HW158521   0.631   3.310   3.978 -0.8522 -0.1149 -0.3878
18543SOL    HW258522   0.678   3.180   3.915  0.2160 -0.9512  2.0349
18544SOL     OW58523   9.626   4.002   5.526 -0.1336  0.0651 -0.3852
18544SOL    HW158524   9.617   4.097   5.537 -3.0211 -0.3839  2.8777
18544SOL    HW258525   9.570   3.980   5.452 -0.2625  0.7976 -0.5117
18545SOL     OW58526   4.997   8.735   4.000  0.5546 -0.7162 -0.0560
18545SOL    HW158527   4.941   8.658   4.007  0.0101 -0.2605  0.9253
18545SOL    HW258528   4.948   8.796   3.946  1.2947 -1.2981 -1.4265
18546SOL     OW58529   8.500   5.018   2.627  0.3762 -0.0821  0.2171
18546SOL    HW158530   8.519   5.095   2.573 -1.7390 -0.2414 -0.8856
18546SOL    HW258531   8.437   5.050   2.692 -0.2660 -0.7845 -0.0442
18547SOL     OW58532   3.268   6.835   3.358 -0.0473  0.9245  0.3575
18547SOL    HW158533   3.204   6.792   3.301  2.1522 -2.6438  0.2791
18547SOL    HW258534   3.215   6.877   3.426 -2.5595  1.9456 -2.0220
18548SOL     OW58535   8.402   1.123   8.510  0.4883 -0.0589  0.8793
18548SOL    HW158536   8.336   1.078   8.563  0.1821  0.5514  1.0312
18548SOL    HW258537   8.352   1.190   8.463  0.8501 -0.2189  0.2626
18549SOL     OW58538   8.834   4.931   5.173 -0.2052 -0.4047 -0.1581
18549SOL    HW158539   8.898   4.866   5.203  0.5814 -0.3190 -1.5433
18549SOL    HW258540   8.782   4.951   5.250 -0.2578 -2.4377  0.3906
18550SOL     OW58541   2.770   9.224   3.494 -0.4163  0.9069  0.1397
18550SOL    HW158542   2.828   9.292   3.528 -0.1475  0.8042 -0.1084
18550SOL    HW258543   2.813   9.142   3.517  0.4581  0.8370 -1.5821
18551SOL     OW58544   7.636   5.068   5.065  0.3350 -0.1248 -0.3594
18551SOL    HW158545   7.711   5.017   5.098  0.5636  0.4317 -0.0024
18551SOL    HW258546   7.664   5.159   5.073 -0.5806  0.1194  0.2746
18552SOL     OW58547   5.421   0.755   6.348  0.2671 -0.4963 -0.2029
18552SOL    HW158548   5.414   0.800   6.432  0.6883 -0.6559 -0.0820
18552SOL    HW258549   5.440   0.664   6.370 -0.4722 -0.7231 -0.4492
18553SOL     OW58550   3.763   8.857   4.078 -0.0565 -0.2121 -0.1553
18553SOL    HW158551   3.775   8.762   4.082  0.9268 -0.0536  2.5580
18553SOL    HW258552   3.698   8.870   4.009 -1.8275 -3.0275  0.8262
18554SOL     OW58553   4.147   7.422   9.317  0.5161 -0.2669 -0.0594
18554SOL    HW158554   4.142   7.517   9.305  1.7182 -0.1924 -0.0197
18554SOL    HW258555   4.159   7.410   9.411 -0.1431 -0.4980  0.0052
18555SOL     OW58556   1.798   4.654   7.156  0.3333 -0.0120  0.4168
18555SOL    HW158557   1.720   4.654   7.100 -0.0385 -0.5653  0.9185
18555SOL    HW258558   1.858   4.715   7.113  1.2359 -2.5436 -2.2024
18556SOL     OW58559   6.903   4.086   5.194  0.0865  0.6489  0.2496
18556SOL    HW158560   6.978   4.069   5.137  0.2840  0.0631  0.6796
18556SOL    HW258561   6.931   4.160   5.248  0.0368  0.9689 -0.1570
18557SOL     OW58562   0.637   1.073   2.634  0.2814  0.1123  0.0590
18557SOL    HW158563   0.634   1.142   2.699 -0.7262  0.2590 -0.1195
18557SOL    HW258564   0.651   1.119   2.551 -1.7157  0.2844 -0.2443
18558SOL     OW58565   6.880   3.588   0.252  0.5989 -0.3397 -0.5121
18558SOL    HW158566   6.879   3.663   0.311  2.0981 -1.4107  0.9933
18558SOL    HW258567   6.790   3.579   0.223 -0.5739 -0.5163  2.7232
18559SOL     OW58568   2.886   4.993   4.625 -0.2483  0.1999 -0.1830
18559SOL    HW158569   2.911   4.962   4.712  0.7813  1.9641  0.1996
18559SOL    HW258570   2.963   4.976   4.571  0.2092  1.6469 -0.0431
18560SOL     OW58571   2.136   2.942   6.255  0.1050 -0.1899  0.9006
18560SOL    HW158572   2.073   3.008   6.226  0.0970 -0.7111 -0.3378
18560SOL    HW258573   2.191   2.926   6.178  1.0406 -0.5604  1.6275
18561SOL     OW58574   6.779   4.656   1.885  0.2551  0.2983 -0.3980
18561SOL    HW158575   6.844   4.690   1.822  2.3094 -2.2101  0.1678
18561SOL    HW258576   6.757   4.569   1.850 -1.5583  0.4350  0.3506
18562SOL     OW58577   3.301   7.254   0.674 -0.1663  0.8722  1.0201
18562SOL    HW158578   3.225   7.311   0.687 -1.2693 -0.2793 -0.0602
18562SOL    HW258579   3.282   7.176   0.726  0.0515  0.3845  0.3826
18563SOL     OW58580   5.745   1.364   7.832  0.4260 -0.4358 -0.3701
18563SOL    HW158581   5.814   1.308   7.867  0.6057  0.0820  0.1299
18563SOL    HW258582   5.748   1.443   7.887 -0.4165 -0.3157 -0.4807
18564SOL     OW58583   8.315   8.833   6.577  0.3133 -0.2828  0.3230
18564SOL    HW158584   8.366   8.913   6.565 -0.5296 -0.1509 -3.8330
18564SOL    HW258585   8.228   8.864   6.604  0.5885  0.0022  0.9018
18565SOL     OW58586   0.575   1.745   1.655 -0.5894  0.7490  0.3086
18565SOL    HW158587   0.637   1.815   1.674 -1.3944  1.3549  0.7627
18565SOL    HW258588   0.596   1.676   1.718  1.0847 -0.0126 -1.0085
18566SOL     OW58589   8.313   8.311   3.277 -0.0509  0.0868 -0.2062
18566SOL    HW158590   8.227   8.341   3.248 -1.3487 -1.6038  1.5940
18566SOL    HW258591   8.299   8.279   3.366  2.1288 -1.5634 -0.3498
18567SOL     OW58592   0.159   7.997   3.213 -0.2411  0.6572  0.2661
18567SOL    HW158593   0.147   8.000   3.118  1.2707 -1.8613 -0.0887
18567SOL    HW258594   0.070   7.986   3.247 -0.6198 -1.1259 -1.1023
18568SOL     OW58595   6.100   6.821   2.989 -0.3494 -0.4482  0.0623
18568SOL    HW158596   6.118   6.750   2.927  1.0655 -0.6017  0.5980
18568SOL    HW258597   6.184   6.836   3.033 -1.3974 -0.7311  2.3169
18569SOL     OW58598   7.343   6.054   6.632 -0.0189  0.0241  0.1487
18569SOL    HW158599   7.351   6.140   6.590 -1.5114  0.8882  1.5520
18569SOL    HW258600   7.286   6.004   6.574 -0.6476  0.6129  0.2565
18570SOL     OW58601   7.174   0.201   9.097  0.5754  0.1344  0.0776
18570SOL    HW158602   7.125   0.185   9.177 -0.6586 -0.8024 -0.8229
18570SOL    HW258603   7.255   0.151   9.108  0.9477  0.9424  1.1919
18571SOL     OW58604   7.766   8.152   6.852  0.0546  0.1095 -0.1434
18571SOL    HW158605   7.714   8.208   6.795 -1.2504 -0.3721  0.5274
18571SOL    HW258606   7.854   8.190   6.850 -0.5916  1.6490 -0.3885
18572SOL     OW58607   6.569   4.298   6.864 -0.0750  0.1256  1.0429
18572SOL    HW158608   6.617   4.381   6.865 -0.4252  0.3434  0.5117
18572SOL    HW258609   6.477   4.323   6.855 -0.0341 -0.3387 -1.4943
18573SOL     OW58610   7.182   4.571   7.817 -0.1998  0.3439 -1.0550
18573SOL    HW158611   7.227   4.578   7.733  1.7177  0.8012 -0.0579
18573SOL    HW258612   7.231   4.504   7.865 -1.2435  0.1055 -0.2777
18574SOL     OW58613   0.493   6.796   8.042 -0.1495 -0.2088  0.0724
18574SOL    HW158614   0.475   6.833   8.129 -1.8167 -1.1538  0.1699
18574SOL    HW258615   0.556   6.725   8.058  0.6948  0.5594  0.2778
18575SOL     OW58616   2.729   5.024   1.520  0.0932  0.3224 -0.0249
18575SOL    HW158617   2.759   5.030   1.429 -0.5194  0.6206 -0.2048
18575SOL    HW258618   2.733   4.930   1.540  1.5522  0.3737  0.0983
18576SOL     OW58619   4.733   4.434   7.863 -1.1864  0.2292 -0.0320
18576SOL    HW158620   4.780   4.490   7.801  0.3607  0.5761  1.3829
18576SOL    HW258621   4.723   4.351   7.817 -0.0697  0.4812 -0.7646
18577SOL     OW58622   2.381   8.932   3.682 -0.0845 -0.5749 -0.2008
18577SOL    HW158623   2.330   9.007   3.652  0.8718 -0.7277 -2.3897
18577SOL    HW258624   2.361   8.862   3.619 -0.0724 -1.8172  1.1225
18578SOL     OW58625   7.864   6.391   2.718  0.8035  0.6016 -0.0150
18578SOL    HW158626   7.852   6.301   2.689 -0.0833  0.2498  1.3736
18578SOL    HW258627   7.932   6.387   2.784  0.9132  0.9917 -0.1004
18579SOL     OW58628   8.347   0.685   8.182 -0.2494 -0.0993  0.0377
18579SOL    HW158629   8.360   0.777   8.158 -1.4623 -0.1480 -0.9248
18579SOL    HW258630   8.340   0.639   8.098  1.7629 -1.3258  0.4752
18580SOL     OW58631   2.233   2.277   7.654 -0.4739  0.1825  0.2005
18580SOL    HW158632   2.275   2.321   7.728 -0.1104 -0.2897  0.2778
18580SOL    HW258633   2.299   2.215   7.623 -1.2380 -0.8260  0.5411
18581SOL     OW58634   1.132   1.779   6.695  0.1996  0.7504  0.5625
18581SOL    HW158635   1.056   1.773   6.637 -0.6530  2.1241  1.4927
18581SOL    HW258636   1.208   1.771   6.636 -0.5904 -1.7305 -0.2685
18582SOL     OW58637   4.854   8.272   6.564 -0.1473  0.3206  0.0885
18582SOL    HW158638   4.827   8.360   6.591 -0.3384  1.1101 -2.4688
18582SOL    HW258639   4.936   8.257   6.611 -1.0091  1.0862  1.9478
18583SOL     OW58640   5.092   1.456   0.346  0.0237 -0.6662 -0.4626
18583SOL    HW158641   5.003   1.478   0.319 -0.4355 -1.2656  0.5164
18583SOL    HW258642   5.141   1.447   0.264 -0.5486  0.7292 -0.9793
18584SOL     OW58643   0.176   4.835   0.200  0.4202  0.0871 -0.5638
18584SOL    HW158644   0.173   4.740   0.210 -1.0638  0.2969  1.8597
18584SOL    HW258645   0.109   4.855   0.135 -1.4759 -0.3903  1.1381
18585SOL     OW58646   3.177   6.231   5.140  0.1198  0.2132 -0.3595
18585SOL    HW158647   3.138   6.179   5.211 -0.8834 -1.0214 -1.7467
18585SOL    HW258648   3.119   6.216   5.065  1.6333  0.7555 -1.6913
18586SOL     OW58649   2.051   4.765   1.656  0.1543  0.3673  0.1441
18586SOL    HW158650   2.084   4.746   1.744  0.6211 -1.4245 -0.3783
18586SOL    HW258651   1.958   4.744   1.660  0.0857  0.6907  0.3094
18587SOL     OW58652   1.878   5.278   9.418  0.1462  0.0772 -0.5765
18587SOL    HW158653   1.855   5.189   9.446  1.6064 -0.2400 -0.2974
18587SOL    HW258654   1.895   5.325   9.499 -2.1630  1.1030 -0.6263
18588SOL     OW58655   2.642   3.499   4.954 -0.6881  0.2255 -0.6489
18588SOL    HW158656   2.623   3.493   4.861 -2.4210  1.6620 -0.4399
18588SOL    HW258657   2.702   3.427   4.971 -1.7971 -1.2281 -2.5057
18589SOL     OW58658   1.467   5.052   2.440  0.0711 -0.3512  0.3680
18589SOL    HW158659   1.474   5.053   2.345 -0.3916 -0.2779  0.3286
18589SOL    HW258660   1.514   5.131   2.469 -2.2610  1.2995 -0.0150
18590SOL     OW58661   0.753   0.248   3.312  0.5338 -0.2916  0.2530
18590SOL    HW158662   0.732   0.253   3.218 -1.3368 -0.9585  0.5951
18590SOL    HW258663   0.848   0.232   3.314  0.4175 -1.5527 -1.5812
18591SOL     OW58664   0.349   8.730   4.367 -0.5648 -0.3486  0.3927
18591SOL    HW158665   0.430   8.741   4.417  0.5327 -0.8272 -1.2325
18591SOL    HW258666   0.356   8.791   4.294 -1.6179 -0.4824  0.1591
18592SOL     OW58667   2.769   9.212   2.069 -0.5506  0.9772 -0.1216
18592SOL    HW158668   2.714   9.135   2.089  0.3446  0.7759  1.7210
18592SOL    HW258669   2.708   9.275   2.032 -1.3525 -0.5323 -1.5411
18593SOL     OW58670   2.959   3.971   3.179 -0.4665 -0.4509  0.4777
18593SOL    HW158671   3.047   4.002   3.197 -0.3420 -0.8899  0.6301
18593SOL    HW258672   2.916   3.968   3.264 -0.4300 -0.8364  0.4861
18594SOL     OW58673   0.852   2.270   6.403 -0.5798 -0.2484 -0.1845
18594SOL    HW158674   0.778   2.281   6.463 -0.8237  0.0873 -0.5339
18594SOL    HW258675   0.928   2.300   6.453 -0.9224  0.9839 -0.3650
18595SOL     OW58676   6.202   3.378   5.681  0.1124  0.1285  0.9600
18595SOL    HW158677   6.293   3.350   5.685 -0.0228 -0.8945 -1.4204
18595SOL    HW258678   6.187   3.399   5.589 -2.8359 -2.6714  0.6119
18596SOL     OW58679   4.392   5.674   6.142  0.2749  0.1630 -0.0340
18596SOL    HW158680   4.417   5.748   6.087  1.2223  1.8988  2.5585
18596SOL    HW258681   4.462   5.610   6.128  0.8936  0.8798 -0.3077
18597SOL     OW58682   9.280   5.968   1.876 -0.6784  0.3136 -0.3204
18597SOL    HW158683   9.313   5.903   1.815  1.1369  1.5960 -0.7962
18597SOL    HW258684   9.187   5.977   1.854 -0.6477 -1.0696 -1.1597
18598SOL     OW58685   0.666   4.378   8.230 -1.0359  0.3381  0.3948
18598SOL    HW158686   0.666   4.380   8.134 -0.3276  1.0405  0.3952
18598SOL    HW258687   0.697   4.465   8.256  1.1758 -0.6262  1.2108
18599SOL     OW58688   9.459   0.391   8.930  0.0935 -0.1266  0.0078
18599SOL    HW158689   9.486   0.456   8.865  0.0031  1.9770  1.9605
18599SOL    HW258690   9.363   0.391   8.925  0.0994 -0.3716 -0.1845
18600SOL     OW58691   5.003   3.691   0.164 -0.6492  0.2133  0.2061
18600SOL    HW158692   4.914   3.671   0.193 -0.8498  0.0361 -0.4996
18600SOL    HW258693   5.029   3.613   0.114 -0.2916  0.4685 -0.0059
18601SOL     OW58694   4.331   2.165   4.375  0.1220  0.2515 -0.0407
18601SOL    HW158695   4.299   2.164   4.285  0.8313  2.1555 -0.3762
18601SOL    HW258696   4.254   2.145   4.429 -0.6021  0.3445 -1.0201
18602SOL     OW58697   8.181   2.369   4.749  0.7128  0.0855 -0.1285
18602SOL    HW158698   8.206   2.283   4.782  1.8876  0.6171  0.4185
18602SOL    HW258699   8.094   2.355   4.710  0.6766 -1.2350  0.3631
18603SOL     OW58700   8.572   3.111   8.484 -0.0251 -0.4365 -0.1512
18603SOL    HW158701   8.647   3.062   8.519  1.0342  0.8966 -0.4444
18603SOL    HW258702   8.542   3.164   8.557  0.3859  0.2579 -0.4774
18604SOL     OW58703   1.295   7.290   4.118 -0.9746  0.3594 -0.8603
18604SOL    HW158704   1.237   7.214   4.119 -0.1335 -0.3976 -2.9543
18604SOL    HW258705   1.341   7.286   4.201 -2.9874  0.2669  0.3160
18605SOL     OW58706   8.033   7.868   2.657 -0.3350 -0.3104 -0.1898
18605SOL    HW158707   8.125   7.852   2.636 -0.0241  1.1533 -0.0825
18605SOL    HW258708   8.011   7.801   2.721  1.0766  0.1826  0.8612
18606SOL     OW58709   5.304   4.685   0.164 -0.2522  0.0792 -0.0421
18606SOL    HW158710   5.225   4.658   0.117  0.3356 -0.9485 -0.4761
18606SOL    HW258711   5.306   4.780   0.155 -0.2608 -0.0561 -1.9582
18607SOL     OW58712   5.469   8.122   4.394  0.0878  0.5512 -0.2464
18607SOL    HW158713   5.452   8.037   4.434 -1.5679  0.4717 -1.0546
18607SOL    HW258714   5.483   8.181   4.468  0.6931 -0.2939  0.3313
18608SOL     OW58715   2.966   7.200   8.507 -0.2792  0.3603 -0.3150
18608SOL    HW158716   2.875   7.176   8.488  0.0235 -3.8385  2.2268
18608SOL    HW258717   3.018   7.132   8.465  1.2183 -0.4852  2.6452
18609SOL     OW58718   3.685   1.468   1.207  0.6134 -0.1214 -0.1646
18609SOL    HW158719   3.679   1.554   1.248  1.3569  0.3180 -0.9452
18609SOL    HW258720   3.598   1.430   1.218  0.2984  0.6862  0.2651
18610SOL     OW58721   6.115   5.657   2.614  0.2702  0.0509 -0.1889
18610SOL    HW158722   6.185   5.603   2.651  0.3966  0.4037  0.0893
18610SOL    HW258723   6.137   5.664   2.521  1.2916  1.1906  0.1203
18611SOL     OW58724   0.908   5.032   6.418  0.4850 -0.0807  0.7238
18611SOL    HW158725   0.979   4.999   6.474 -0.4485 -3.1649  0.2462
18611SOL    HW258726   0.828   5.009   6.465 -0.2595  0.3018 -0.3352
18612SOL     OW58727   0.729   1.120   0.073 -0.3707 -0.5871  0.3052
18612SOL    HW158728   0.653   1.071   0.102 -0.9889  0.1486 -0.0269
18612SOL    HW258729   0.709   1.211   0.095  0.8426 -0.4895  1.1021
18613SOL     OW58730   5.196   5.223   0.679  0.2762 -0.2721  0.4134
18613SOL    HW158731   5.166   5.307   0.644  1.2597 -0.2042 -0.3027
18613SOL    HW258732   5.239   5.245   0.761  2.9901  0.3533 -1.0474
18614SOL     OW58733   3.678   7.413   1.048  0.1767 -0.3321  0.1002
18614SOL    HW158734   3.719   7.398   0.963  0.2640  0.0680  0.0718
18614SOL    HW258735   3.747   7.394   1.112 -0.0581 -1.2214  0.1114
18615SOL     OW58736   3.787   9.454   6.666  0.1422 -0.0916  0.7151
18615SOL    HW158737   3.795   9.380   6.606  1.7476  0.8025 -0.2439
18615SOL    HW258738   3.707   9.499   6.636 -0.8539 -1.3925  1.3178
18616SOL     OW58739   4.585   6.916   7.441  0.0342  0.5668  0.3790
18616SOL    HW158740   4.652   6.862   7.482 -0.8440  0.3064  1.5244
18616SOL    HW258741   4.612   6.922   7.349  0.2682 -1.6642  0.2462
18617SOL     OW58742   1.420   9.471   0.844  0.2252  0.1915 -0.7066
18617SOL    HW158743   1.382   9.466   0.931  0.1099 -0.1243 -0.7736
18617SOL    HW258744   1.389   9.392   0.799  0.5253  0.1996 -0.9355
18618SOL     OW58745   0.202   5.824   2.276 -0.1148  0.1147 -0.2019
18618SOL    HW158746   0.139   5.867   2.218  0.6338  0.4863 -0.7558
18618SOL    HW258747   0.277   5.884   2.278  0.5446 -0.6901 -0.1976
18619SOL     OW58748   4.512   3.483   9.423 -0.1668  0.1827 -0.7267
18619SOL    HW158749   4.430   3.531   9.430 -0.1933  0.2002 -1.1105
18619SOL    HW258750   4.579   3.547   9.447 -0.1248  0.7179 -2.1964
18620SOL     OW58751   1.440   6.724   5.133  0.1583  0.2803  0.3267
18620SOL    HW158752   1.375   6.671   5.178  0.9051 -0.9843 -0.0372
18620SOL    HW258753   1.500   6.661   5.093  1.7344  1.3872  0.8226
18621SOL     OW58754   8.477   6.987   4.363 -0.3367 -0.0932 -0.0461
18621SOL    HW158755   8.430   6.905   4.351 -1.0961  0.6111 -2.2126
18621SOL    HW258756   8.536   6.993   4.288  1.2162  0.3900  1.1545
18622SOL     OW58757   4.593   8.877   8.115  0.1319 -0.1871  0.1013
18622SOL    HW158758   4.559   8.957   8.156 -1.4410 -0.3776 -0.7478
18622SOL    HW258759   4.668   8.906   8.065  0.2801  0.5549  0.7287
18623SOL     OW58760   2.642   2.217   3.806  0.0563 -0.1156 -0.5250
18623SOL    HW158761   2.643   2.173   3.892  0.2599 -1.4036 -1.1579
18623SOL    HW258762   2.551   2.210   3.778 -0.4872  2.1610  0.4610
18624SOL     OW58763   7.309   0.202   6.090 -0.0889  0.1078 -0.4305
18624SOL    HW158764   7.356   0.168   6.014  0.3893 -1.8629  0.6887
18624SOL    HW258765   7.297   0.295   6.071  3.0506  0.4371 -1.3974
18625SOL     OW58766   8.150   8.716   3.301  0.1011  0.0756  0.3884
18625SOL    HW158767   8.116   8.671   3.379  1.3856 -1.2052  0.2529
18625SOL    HW258768   8.157   8.647   3.235 -2.4782  1.3989 -1.4580
18626SOL     OW58769   8.755   0.613   1.196  0.3095  0.6346  0.2880
18626SOL    HW158770   8.799   0.551   1.253  0.6978  0.3278 -0.3405
18626SOL    HW258771   8.798   0.697   1.214  2.1285  0.1082 -1.2960
18627SOL     OW58772   5.628   7.266   6.739  0.1094  0.2251  0.2813
18627SOL    HW158773   5.723   7.261   6.731  0.1776  0.7218  0.6627
18627SOL    HW258774   5.612   7.357   6.763 -0.3105 -0.2829  2.0687
18628SOL     OW58775   2.724   2.723   6.851  0.2942  0.2928 -0.7242
18628SOL    HW158776   2.803   2.756   6.894  0.9616 -1.5214 -0.4589
18628SOL    HW258777   2.712   2.635   6.887 -0.0274 -0.7027 -3.0599
18629SOL     OW58778   0.904   7.023   3.042 -0.1753 -0.0107 -0.2021
18629SOL    HW158779   0.957   6.987   2.971 -1.2930 -2.2262 -0.0133
18629SOL    HW258780   0.951   7.101   3.070  1.8846 -0.7447 -1.3893
18630SOL     OW58781   6.647   6.991   0.600  0.2156 -0.1078 -0.7005
18630SOL    HW158782   6.625   7.076   0.639  2.3407  1.0252 -1.7679
18630SOL    HW258783   6.621   6.927   0.665 -1.5674  1.3496  0.1004
18631SOL     OW58784   2.064   2.546   2.327  0.4392  0.0107  0.2075
18631SOL    HW158785   2.064   2.473   2.389 -2.2537  0.2409  0.5807
18631SOL    HW258786   2.070   2.504   2.241 -1.8990 -0.7703  0.3727
18632SOL     OW58787   5.558   0.712   7.452 -0.1343  0.0855  0.1771
18632SOL    HW158788   5.643   0.669   7.455  0.3414  1.0242  3.4298
18632SOL    HW258789   5.572   0.787   7.394  0.7431 -0.6549 -0.6089
18633SOL     OW58790   6.226   0.102   1.098  0.5102  0.3100  0.4684
18633SOL    HW158791   6.314   0.119   1.064 -0.7159  2.4645 -2.0353
18633SOL    HW258792   6.223   0.147   1.182  2.1413 -0.9445  1.2603
18634SOL     OW58793   7.129   7.239   0.290  0.3317 -0.2559 -0.4886
18634SOL    HW158794   7.114   7.333   0.278  0.3339 -0.1795  0.0632
18634SOL    HW258795   7.134   7.228   0.385  1.6541 -0.6090 -0.5863
18635SOL     OW58796   1.496   0.054   3.618  0.2667  0.1864  0.2013
18635SOL    HW158797   1.468  -0.033   3.589  0.0829 -0.0895  1.1866
18635SOL    HW258798   1.451   0.068   3.701 -1.2173  2.0391 -0.8443
18636SOL     OW58799   9.428   0.852   4.888 -0.1685 -0.1310 -0.1428
18636SOL    HW158800   9.349   0.893   4.853 -0.6059 -1.3205 -0.5973
18636SOL    HW258801   9.439   0.773   4.836  0.4074 -0.8213  0.9947
18637SOL     OW58802   6.595   2.366   0.170  0.3512 -0.1957 -0.7173
18637SOL    HW158803   6.606   2.272   0.184  0.7021  0.0107  0.6019
18637SOL    HW258804   6.642   2.384   0.089  0.7072 -1.0856 -0.7222
18638SOL     OW58805   9.473   6.400   8.623 -0.3991  0.3226  0.1483
18638SOL    HW158806   9.523   6.379   8.701  2.1069  0.4040 -1.3331
18638SOL    HW258807   9.450   6.492   8.633  1.2597  0.7624  0.1328
18639SOL     OW58808   3.355   8.303   7.984 -0.3971 -0.2695  0.1671
18639SOL    HW158809   3.302   8.243   8.037  0.6265 -1.9680 -0.6547
18639SOL    HW258810   3.340   8.389   8.023 -1.6501 -1.0955  1.6067
18640SOL     OW58811   5.398   5.836   2.585 -0.3488  0.2078  0.3018
18640SOL    HW158812   5.482   5.876   2.566  0.2643 -0.9452  0.4803
18640SOL    HW258813   5.374   5.870   2.672 -0.6180  1.3758 -0.2054
18641SOL     OW58814   8.796   7.451   0.106  0.3050 -0.2322 -0.0968
18641SOL    HW158815   8.718   7.427   0.156  0.0070 -1.7503 -1.2203
18641SOL    HW258816   8.786   7.407   0.022  1.8481  0.4510 -0.6910
18642SOL     OW58817   7.701   3.223   4.665 -0.3375  0.2296 -0.4685
18642SOL    HW158818   7.726   3.152   4.724 -1.2891  0.4097  0.1768
18642SOL    HW258819   7.642   3.183   4.601  0.5767  0.0659 -1.2241
18643SOL     OW58820   9.536   2.924   0.105 -0.4242  0.0034 -0.1716
18643SOL    HW158821   9.598   2.857   0.076 -0.9552 -0.3342 -0.5456
18643SOL    HW258822   9.569   2.951   0.191 -2.2281 -3.4506  1.7990
18644SOL     OW58823   4.762   6.164   4.669  0.5123 -0.1094 -0.1038
18644SOL    HW158824   4.675   6.202   4.678  0.2012 -0.8682  0.1673
18644SOL    HW258825   4.755   6.107   4.592 -0.1089 -2.4582  1.5728
18645SOL     OW58826   8.056   4.950   4.743 -0.5788 -0.1307 -0.1262
18645SOL    HW158827   8.146   4.924   4.764 -0.7932 -0.2224  0.6881
18645SOL    HW258828   8.051   5.042   4.770 -0.3699  0.2473 -1.3147
18646SOL     OW58829   5.662   1.936   4.113 -0.2088 -0.0435  0.1320
18646SOL    HW158830   5.578   1.982   4.122 -0.4673 -0.6940  1.2887
18646SOL    HW258831   5.721   2.001   4.076 -1.4772  0.1143 -1.7424
18647SOL     OW58832   7.764   7.533   6.335 -0.0521 -0.2623  0.3934
18647SOL    HW158833   7.808   7.593   6.395  0.3260 -0.4995  0.3545
18647SOL    HW258834   7.675   7.525   6.370 -0.0981  0.3080  0.4031
18648SOL     OW58835   3.443   4.098   3.400 -0.5090  0.3378  0.8033
18648SOL    HW158836   3.426   4.164   3.467 -0.0180 -0.9964  2.3093
18648SOL    HW258837   3.367   4.040   3.403 -0.7945  0.6352 -0.2890
18649SOL     OW58838   7.501   7.748   5.525 -0.2183  0.5704  0.4305
18649SOL    HW158839   7.545   7.833   5.534  0.4686  0.2141  0.5484
18649SOL    HW258840   7.572   7.684   5.531 -0.7137 -0.0080  0.2065
18650SOL     OW58841   5.042   8.012   3.313  0.4980  0.5658  0.3767
18650SOL    HW158842   4.972   8.054   3.263  1.0742  0.2253 -0.7686
18650SOL    HW258843   5.047   7.924   3.276  1.5608  0.6124  0.3855
18651SOL     OW58844   7.134   6.163   5.975  0.1740 -0.5386  0.2345
18651SOL    HW158845   7.157   6.158   5.883  1.7145  0.5200  0.5273
18651SOL    HW258846   7.126   6.071   6.002  0.3994 -0.8712 -0.7840
18652SOL     OW58847   2.347   8.752   3.470  0.1523  0.3240 -1.0333
18652SOL    HW158848   2.255   8.735   3.486  0.2847 -0.2859 -0.8875
18652SOL    HW258849   2.382   8.669   3.438  1.4724 -0.6930  2.5166
18653SOL     OW58850   8.204   6.559   8.297  0.0698 -0.4741  0.1897
18653SOL    HW158851   8.167   6.600   8.219  1.0858  0.5686  0.2306
18653SOL    HW258852   8.298   6.578   8.293  0.0786  0.0907  1.9219
18654SOL     OW58853   0.368   3.509   2.873 -0.1160  0.0295  0.6032
18654SOL    HW158854   0.293   3.456   2.844  1.1467 -1.3105 -0.3567
18654SOL    HW258855   0.440   3.447   2.879  1.5838  1.7048 -1.1118
18655SOL     OW58856   9.414   5.030   1.979 -0.0764 -0.1682  0.0330
18655SOL    HW158857   9.413   5.110   1.927  0.9344 -0.0067  0.2442
18655SOL    HW258858   9.324   5.018   2.007 -0.2348  0.8893 -0.0056
18656SOL     OW58859   7.952   2.561   4.950  0.0447 -0.1566  0.2200
18656SOL    HW158860   8.039   2.593   4.976  0.3669  0.3264 -1.3364
18656SOL    HW258861   7.944   2.476   4.994  1.2865 -0.1856  0.4396
18657SOL     OW58862   5.186   8.032   3.672 -0.2865 -0.4252 -0.4989
18657SOL    HW158863   5.231   8.071   3.597  0.0714 -1.7727 -1.0010
18657SOL    HW258864   5.254   7.985   3.719 -0.3067  1.1367  1.2296
18658SOL     OW58865   5.613   4.491   1.031 -0.6092  0.0453  0.4774
18658SOL    HW158866   5.570   4.575   1.051  1.9771  1.4338  0.5907
18658SOL    HW258867   5.619   4.489   0.936 -0.3852  0.1464  0.4890
18659SOL     OW58868   5.121   5.735   3.558 -0.0329  1.1852  0.0170
18659SOL    HW158869   5.055   5.796   3.591 -1.1709  1.0827 -1.8716
18659SOL    HW258870   5.124   5.665   3.623  0.5348  2.6980  1.7036
18660SOL     OW58871   9.108   5.390   5.675  0.1537 -0.9014 -0.2197
18660SOL    HW158872   9.014   5.399   5.658  0.2037 -0.6840 -0.3720
18660SOL    HW258873   9.149   5.458   5.622  0.3331 -0.4296  0.5113
18661SOL     OW58874   4.308   9.476   0.164 -0.2355  0.5537 -0.4337
18661SOL    HW158875   4.285   9.568   0.151  0.0913  0.8498  0.9307
18661SOL    HW258876   4.234   9.428   0.127 -1.4519  1.4158  0.7914
18662SOL     OW58877   8.626   8.284   8.433  0.7323  0.3817 -0.7089
18662SOL    HW158878   8.700   8.294   8.493  0.3549 -0.0678 -0.1567
18662SOL    HW258879   8.640   8.199   8.392  1.4172  1.0256 -1.8779
18663SOL     OW58880   1.396   2.690   8.887 -0.6944  0.1877 -0.1505
18663SOL    HW158881   1.319   2.747   8.875 -2.4271 -2.4427 -3.2254
18663SOL    HW258882   1.390   2.661   8.978 -1.8278  2.0235  0.4326
18664SOL     OW58883   3.497   0.874   4.426  0.5632  0.0712  0.2900
18664SOL    HW158884   3.531   0.952   4.381 -0.8087  0.3554 -0.2928
18664SOL    HW258885   3.575   0.821   4.444  1.3165  0.6601 -1.0924
18665SOL     OW58886   6.304   0.713   1.259  0.1365  0.5781 -0.5258
18665SOL    HW158887   6.279   0.740   1.171 -0.2618 -0.1308 -0.6368
18665SOL    HW258888   6.288   0.618   1.261 -0.8232  0.7388  0.6256
18666SOL     OW58889   8.548   2.697   2.750  0.1180  0.3638 -0.7323
18666SOL    HW158890   8.642   2.680   2.759  0.3325  2.0369  0.7976
18666SOL    HW258891   8.536   2.782   2.792 -2.2673 -0.2856  0.0227
18667SOL     OW58892   3.669   2.413   7.206 -0.5214  0.2326  0.3033
18667SOL    HW158893   3.580   2.411   7.170 -0.4934  0.1502  0.2392
18667SOL    HW258894   3.682   2.325   7.242  0.2272 -0.3875 -1.3583
18668SOL     OW58895   2.850   1.028   6.925 -0.5274  0.4868  0.0001
18668SOL    HW158896   2.870   0.951   6.871  0.2659 -0.8709  2.1080
18668SOL    HW258897   2.762   1.013   6.958 -0.0932  0.0623  1.0184
18669SOL     OW58898   2.157   1.380   9.106  0.2077 -0.3095  0.2837
18669SOL    HW158899   2.217   1.307   9.120  1.3189  0.3085 -0.9830
18669SOL    HW258900   2.181   1.414   9.020 -1.1430  0.7487  0.2989
18670SOL     OW58901   8.259   1.528   3.859 -0.2286  0.1279  0.2915
18670SOL    HW158902   8.231   1.523   3.768  2.9748 -0.3526 -0.7935
18670SOL    HW258903   8.179   1.546   3.908 -1.9668  1.0918 -2.6609
18671SOL     OW58904   6.994   7.386   9.065 -0.3803 -0.7466  0.0949
18671SOL    HW158905   7.081   7.360   9.093 -1.0038 -1.3983  1.4760
18671SOL    HW258906   6.983   7.345   8.979 -0.3479 -2.9505  1.0818
18672SOL     OW58907   2.773   1.590   4.727  0.5096  0.1128 -0.3019
18672SOL    HW158908   2.769   1.573   4.822  0.6314 -0.8038 -0.4462
18672SOL    HW258909   2.700   1.649   4.710  0.0374 -0.2937  0.2573
18673SOL     OW58910   1.038   7.232   6.634 -0.0050  0.0464 -0.2291
18673SOL    HW158911   0.987   7.157   6.665 -0.2489  0.3433  0.0994
18673SOL    HW258912   1.119   7.228   6.685  0.1386 -0.1991 -0.4713
18674SOL     OW58913   6.193   1.851   5.845 -0.5056 -0.6846 -0.5746
18674SOL    HW158914   6.147   1.768   5.835 -1.3097 -0.2075 -0.9405
18674SOL    HW258915   6.170   1.902   5.767  0.8407 -0.5074 -0.8956
18675SOL     OW58916   0.702   7.978   0.801 -0.1115 -0.3355 -0.4548
18675SOL    HW158917   0.671   8.011   0.885 -0.9357 -1.3102 -0.3638
18675SOL    HW258918   0.798   7.988   0.806 -0.3085  2.5187 -0.6770
18676SOL     OW58919   3.136   2.189   1.859 -0.8400  0.1385 -0.0318
18676SOL    HW158920   3.118   2.264   1.802 -0.4176  2.0303  2.1801
18676SOL    HW258921   3.227   2.168   1.842 -0.9020  0.2513 -0.5283
18677SOL     OW58922   5.495   1.413   4.413  0.1849 -0.4013  0.4117
18677SOL    HW158923   5.490   1.473   4.338 -0.5319  0.6301  1.2647
18677SOL    HW258924   5.405   1.402   4.441  0.1133 -3.0408 -0.5671
18678SOL     OW58925   3.049   7.798   4.838 -0.2602 -0.4129 -0.2773
18678SOL    HW158926   2.997   7.796   4.918  1.2558 -1.7737  0.7368
18678SOL    HW258927   3.021   7.721   4.789  0.2097 -0.7002 -0.1021
18679SOL     OW58928   0.898   1.557   2.646  0.4729 -0.1983 -0.2408
18679SOL    HW158929   0.955   1.509   2.587 -0.1521  0.7507 -1.6712
18679SOL    HW258930   0.815   1.509   2.644 -0.0958  0.7787 -1.5327
18680SOL     OW58931   0.953   2.025   0.040  0.1449  0.0355  0.4665
18680SOL    HW158932   1.013   2.007  -0.032  0.3544  1.7586  0.1499
18680SOL    HW258933   0.954   1.946   0.093  2.1942 -0.2264  0.1149
18681SOL     OW58934   4.797   7.467   4.602  0.2936 -0.0887 -0.2471
18681SOL    HW158935   4.885   7.470   4.565  0.4337 -0.3528  0.0602
18681SOL    HW258936   4.764   7.557   4.594  0.1374 -0.2427 -1.4355
18682SOL     OW58937   2.795   4.169   7.350 -0.2013 -0.1749  0.2609
18682SOL    HW158938   2.817   4.230   7.280 -3.1760 -0.3023 -0.9369
18682SOL    HW258939   2.874   4.116   7.362  1.6499  2.2670 -0.3286
18683SOL     OW58940   8.001   2.949   5.583 -0.0534 -0.3921  0.0037
18683SOL    HW158941   8.036   2.886   5.646  0.7875  0.4631  0.4033
18683SOL    HW258942   7.915   2.914   5.560 -0.3569 -0.7521  1.5763
18684SOL     OW58943   8.608   2.575   5.636 -0.0524 -0.5455 -0.4172
18684SOL    HW158944   8.681   2.606   5.582  0.5637 -1.4080 -0.1034
18684SOL    HW258945   8.589   2.487   5.603 -1.5171 -0.0323 -1.0411
18685SOL     OW58946   0.768   2.047   4.460  0.8411 -0.0543  0.1503
18685SOL    HW158947   0.771   2.024   4.367  1.1777 -1.2261  0.4280
18685SOL    HW258948   0.689   2.100   4.469  2.1517  2.2728 -1.2463
18686SOL     OW58949   4.722   8.364   0.373  0.1639  0.7134 -0.7712
18686SOL    HW158950   4.652   8.393   0.433  0.9934 -0.0114  0.5805
18686SOL    HW258951   4.796   8.421   0.393 -0.0119  1.5162 -2.2419
18687SOL     OW58952   6.522   3.209   2.042  0.1394  0.2019 -0.2081
18687SOL    HW158953   6.542   3.123   2.079 -0.7408 -0.1252 -0.4585
18687SOL    HW258954   6.554   3.271   2.107  1.3470 -0.2906 -0.3073
18688SOL     OW58955   7.947   3.985   3.837 -0.0073  0.0281  0.2322
18688SOL    HW158956   7.975   4.014   3.750 -0.9060  0.0679 -0.0540
18688SOL    HW258957   7.890   4.055   3.868  0.8146  0.3239  1.1423
18689SOL     OW58958   9.193   0.865   5.875  0.2402 -0.6616  0.0985
18689SOL    HW158959   9.143   0.856   5.957 -1.9519 -0.1970 -1.1092
18689SOL    HW258960   9.166   0.950   5.840  2.6466  0.0445 -0.1960
18690SOL     OW58961   0.297   7.284   6.446  0.0672 -0.2768  0.1699
18690SOL    HW158962   0.271   7.341   6.518  1.1474  0.7449 -0.2157
18690SOL    HW258963   0.378   7.242   6.476  0.8646  0.6255 -0.6628
18691SOL     OW58964   5.666   2.278   7.307 -0.0518 -0.9379 -0.4984
18691SOL    HW158965   5.617   2.235   7.377 -0.2804 -0.4833 -0.3725
18691SOL    HW258966   5.619   2.360   7.292  0.5366 -0.6065 -0.5472
18692SOL     OW58967   0.937   6.583   7.352  0.7322 -0.1163 -0.1921
18692SOL    HW158968   1.011   6.539   7.310  0.4561 -1.1419  0.3502
18692SOL    HW258969   0.968   6.672   7.369  1.7475 -0.4493 -0.2293
18693SOL     OW58970   0.636   3.698   7.839 -0.0848 -0.4426  0.2143
18693SOL    HW158971   0.655   3.708   7.933  1.3273  0.2150 -0.1132
18693SOL    HW258972   0.636   3.788   7.805  0.6014 -0.7390 -0.6130
18694SOL     OW58973   2.584   1.416   3.503  0.2833  0.0186 -0.4128
18694SOL    HW158974   2.582   1.403   3.598  2.1853 -0.3146 -0.3778
18694SOL    HW258975   2.548   1.334   3.468 -0.3514  0.1075  0.0208
18695SOL     OW58976   0.429   3.400   0.050  0.3748 -0.3345  0.0286
18695SOL    HW158977   0.410   3.491   0.028  0.6699 -0.0362  0.9768
18695SOL    HW258978   0.520   3.402   0.081  0.7378 -1.1273 -0.9459
18696SOL     OW58979   0.232   2.811   8.217 -0.0709  0.1526  0.0138
18696SOL    HW158980   0.312   2.760   8.228  0.2633  0.1790 -1.8301
18696SOL    HW258981   0.261   2.891   8.173 -1.0000  0.5231  0.0544
18697SOL     OW58982   0.500   0.846   2.686  0.4767  0.5596 -0.2066
18697SOL    HW158983   0.453   0.833   2.604  1.3865 -0.9081 -0.5275
18697SOL    HW258984   0.531   0.937   2.682  0.2945  0.5827 -1.3647
18698SOL     OW58985   2.156   4.660   6.350  0.5189  0.0812 -0.1317
18698SOL    HW158986   2.103   4.696   6.421  1.4883  1.0086  0.1503
18698SOL    HW258987   2.150   4.725   6.280 -0.7426 -1.0013 -1.0808
18699SOL     OW58988   8.088   6.932   3.874  0.3748 -0.4517 -0.1000
18699SOL    HW158989   8.066   6.913   3.965 -0.4418  0.1200 -0.1698
18699SOL    HW258990   8.164   6.991   3.880 -0.9424  1.3000  0.3023
18700SOL     OW58991   5.963   3.755   3.281  0.2409  0.1937 -0.4499
18700SOL    HW158992   6.018   3.681   3.258  0.8013  0.7128 -0.8233
18700SOL    HW258993   6.018   3.808   3.340 -0.4153 -0.0578  0.4038
18701SOL     OW58994   8.701   4.797   3.071  0.1467  0.1574 -0.3666
18701SOL    HW158995   8.674   4.885   3.097 -1.3395  0.0513 -1.4404
18701SOL    HW258996   8.668   4.741   3.142  0.6439  0.3967  0.0630
18702SOL     OW58997   7.750   7.496   2.733  0.1305  0.0539 -0.2426
18702SOL    HW158998   7.780   7.519   2.821  0.5624 -0.6233 -0.2058
18702SOL    HW258999   7.668   7.544   2.722  0.4575  0.7474  0.2322
18703SOL     OW59000   8.319   4.673   0.187 -0.0228 -0.2120 -0.1557
18703SOL    HW159001   8.369   4.755   0.183 -0.7102  0.2327  0.0860
18703SOL    HW259002   8.239   4.697   0.235 -1.2552 -0.4835 -1.9876
18704SOL     OW59003   2.562   9.411   5.205  0.1748  0.6257  0.1760
18704SOL    HW159004   2.628   9.472   5.173  0.8098 -0.9701 -1.7519
18704SOL    HW259005   2.610   9.351   5.262 -0.1578  1.0209  0.8855
18705SOL     OW59006   3.112   3.402   2.292  0.9329 -0.7100 -0.2770
18705SOL    HW159007   3.107   3.307   2.290  0.6605 -0.8382  2.2384
18705SOL    HW259008   3.032   3.429   2.338 -0.4146  1.0024 -3.3266
18706SOL     OW59009   7.532   2.816   6.357 -0.4074 -0.2659 -0.2239
18706SOL    HW159010   7.601   2.749   6.353 -0.4607 -0.3155 -0.3307
18706SOL    HW259011   7.460   2.773   6.402  0.2840  0.3794  1.5829
18707SOL     OW59012   7.275   4.490   5.142 -0.1764 -0.1688 -0.0101
18707SOL    HW159013   7.230   4.515   5.061  0.5904  1.2800 -0.0047
18707SOL    HW259014   7.321   4.568   5.170  2.2619 -1.5467  0.0673
18708SOL     OW59015   1.042   6.759   6.962 -0.1930  0.5474 -0.2252
18708SOL    HW159016   1.022   6.779   7.054  2.7181  1.4480  0.3259
18708SOL    HW259017   1.052   6.663   6.961  0.0859  0.5595  0.4975
18709SOL     OW59018   3.495   2.685   2.283  0.0500  0.1571 -0.3457
18709SOL    HW159019   3.574   2.715   2.237 -1.1729  0.7537 -2.1794
18709SOL    HW259020   3.434   2.759   2.277 -0.5821 -0.2127  1.2257
18710SOL     OW59021   5.674   4.761   7.354  0.2545 -1.0270 -0.1842
18710SOL    HW159022   5.650   4.837   7.408 -0.4192 -1.0012 -0.4990
18710SOL    HW259023   5.595   4.707   7.353 -0.2571 -0.3308 -2.2931
18711SOL     OW59024   9.557   5.623   4.120 -0.6276  0.5270 -0.1899
18711SOL    HW159025   9.554   5.578   4.205  3.5560  2.7071  1.4220
18711SOL    HW259026   9.548   5.716   4.142 -0.9914  1.0418 -2.3480
18712SOL     OW59027   7.759   5.881   3.248 -0.1404 -0.1700  0.2943
18712SOL    HW159028   7.758   5.789   3.275  0.2928 -0.0005  0.9336
18712SOL    HW259029   7.724   5.928   3.324 -0.0244  0.2212  0.1076
18713SOL     OW59030   1.488   2.190   3.544 -0.3689  0.5440 -0.4405
18713SOL    HW159031   1.401   2.206   3.580 -1.1363 -0.6911 -1.6301
18713SOL    HW259032   1.486   2.099   3.515  1.1988  0.6031 -0.8593
18714SOL     OW59033   3.184   9.084   6.905 -0.0023  0.3501 -0.0433
18714SOL    HW159034   3.222   8.998   6.885  0.9803  0.6176  0.6287
18714SOL    HW259035   3.164   9.122   6.819 -2.5176 -1.4069 -0.3653
18715SOL     OW59036   1.631   9.444   4.842 -0.3113  0.0215  0.3232
18715SOL    HW159037   1.539   9.465   4.822 -0.1619  0.3151 -0.0570
18715SOL    HW259038   1.679   9.522   4.814  0.1055 -0.3075  0.1401
18716SOL     OW59039   5.616   8.761   6.344 -1.0882  0.2274  0.1503
18716SOL    HW159040   5.526   8.776   6.376 -0.9548 -0.2766  0.7751
18716SOL    HW259041   5.633   8.669   6.363 -0.5062  0.2745 -0.1445
18717SOL     OW59042   1.997   6.154   2.981 -0.0419  0.2061 -0.2101
18717SOL    HW159043   1.907   6.134   2.953  0.5150 -1.0481 -1.2398
18717SOL    HW259044   2.017   6.087   3.046  0.4514 -0.1253 -0.6894
18718SOL     OW59045   1.531   1.431   0.941  0.0476 -0.0861 -0.5613
18718SOL    HW159046   1.566   1.397   0.859 -0.9047 -1.6837 -0.3556
18718SOL    HW259047   1.437   1.441   0.925  0.0321  0.7581 -0.0326
18719SOL     OW59048   5.091   8.704   0.683  0.2841 -0.1857 -0.0937
18719SOL    HW159049   5.071   8.758   0.759 -0.5000 -1.4306  0.6119
18719SOL    HW259050   5.061   8.756   0.608 -0.3057  0.4264  0.5485
18720SOL     OW59051   6.611   0.865   4.358  0.2715 -0.2076  0.6950
18720SOL    HW159052   6.580   0.954   4.343 -1.6403 -1.1013 -1.2089
18720SOL    HW259053   6.604   0.852   4.453  0.0516  1.4509  0.9349
18721SOL     OW59054   0.010   4.642   4.207 -0.1585 -0.5583 -0.2277
18721SOL    HW159055  -0.008   4.556   4.245  0.6261 -0.9356 -0.6712
18721SOL    HW259056  -0.073   4.670   4.169 -0.3367 -1.2923 -0.3978
18722SOL     OW59057   7.693   2.070   7.504 -0.4652 -0.0415  0.6550
18722SOL    HW159058   7.744   2.146   7.475 -0.9109 -0.6486 -2.0287
18722SOL    HW259059   7.611   2.107   7.536 -0.3052  0.6678  0.2690
18723SOL     OW59060   0.010   0.739   5.382 -0.0478 -0.5534  0.1829
18723SOL    HW159061   0.026   0.648   5.405  0.9584 -0.2741  0.6666
18723SOL    HW259062   0.024   0.744   5.288  1.2655 -0.6383  0.3592
18724SOL     OW59063   8.951   4.699   1.681  0.1948 -0.1491  0.6800
18724SOL    HW159064   9.021   4.733   1.626 -0.8480  0.8282 -0.0734
18724SOL    HW259065   8.976   4.723   1.770  1.2901 -0.6676  0.5209
18725SOL     OW59066   7.884   4.183   7.079 -0.5884 -0.1963  0.3379
18725SOL    HW159067   7.959   4.165   7.023 -0.2332 -0.3815  0.8609
18725SOL    HW259068   7.809   4.150   7.031 -0.6348  1.9319 -1.1878
18726SOL     OW59069   0.893   6.571   5.296 -0.4088  1.0344 -0.4842
18726SOL    HW159070   0.883   6.490   5.347 -0.9646  0.0528 -2.0581
18726SOL    HW259071   0.805   6.608   5.294 -1.0099 -0.2712 -2.7289
18727SOL     OW59072   0.405   1.928   4.381 -0.3948 -0.2876  0.5928
18727SOL    HW159073   0.435   1.973   4.459 -1.2750  0.2832  0.6150
18727SOL    HW259074   0.484   1.912   4.330 -0.0081  0.9191  0.7837
18728SOL     OW59075   8.655   7.562   9.072 -0.6446  0.3911  0.0179
18728SOL    HW159076   8.630   7.642   9.118 -0.0687  0.6397 -0.0882
18728SOL    HW259077   8.573   7.524   9.042 -0.9348  0.8358  0.2564
18729SOL     OW59078   8.999   7.362   1.756 -0.2821 -0.1679 -0.0762
18729SOL    HW159079   9.037   7.343   1.842 -0.0668  2.2797  0.4502
18729SOL    HW259080   8.931   7.296   1.744  1.6981 -2.4514  0.5730
18730SOL     OW59081   2.042   3.883   0.357  0.5208  0.6142 -0.2086
18730SOL    HW159082   2.133   3.904   0.376  0.3052 -0.7179  2.9083
18730SOL    HW259083   2.043   3.788   0.340 -0.2634  0.6040 -0.2218
18731SOL     OW59084   7.073   3.577   4.035 -0.0124  0.7303  0.3930
18731SOL    HW159085   7.131   3.546   3.966 -0.4474  1.9064 -0.5392
18731SOL    HW259086   7.121   3.562   4.116  0.7967 -0.0346 -0.2144
18732SOL     OW59087   7.364   0.984   6.158  0.2431  0.4144 -0.0405
18732SOL    HW159088   7.311   0.999   6.081  0.1003  0.0407 -0.0181
18732SOL    HW259089   7.454   1.004   6.130  0.0685  1.2544 -0.0134
18733SOL     OW59090   5.147   7.585   6.263 -0.2292  0.4554 -0.1751
18733SOL    HW159091   5.200   7.598   6.341 -1.4292  0.7041  0.6117
18733SOL    HW259092   5.155   7.668   6.215  1.0947  0.0507 -0.7188
18734SOL     OW59093   3.771   1.710   0.527  0.4918  0.1721  0.4368
18734SOL    HW159094   3.835   1.677   0.463  0.8592  1.1485  0.2798
18734SOL    HW259095   3.823   1.734   0.603  0.1142 -0.4977  0.9112
18735SOL     OW59096   6.225   5.479   6.532 -0.2218 -0.1916  0.0836
18735SOL    HW159097   6.181   5.538   6.471 -0.8369  1.3565  1.9311
18735SOL    HW259098   6.312   5.517   6.545 -0.7554  0.6073  1.5809
18736SOL     OW59099   6.219   6.493   2.069 -0.2880  0.6174 -0.2654
18736SOL    HW159100   6.130   6.513   2.098 -0.6153 -0.5393 -0.4156
18736SOL    HW259101   6.272   6.497   2.149 -0.9490 -1.2210  0.3148
18737SOL     OW59102   3.870   7.113   5.653 -0.0556 -0.7819 -0.5737
18737SOL    HW159103   3.882   7.059   5.575  2.3421 -2.0268  0.5510
18737SOL    HW259104   3.889   7.202   5.625 -0.5455 -1.0162 -1.6801
18738SOL     OW59105   6.624   3.710   0.754  0.4822 -0.3352  0.1190
18738SOL    HW159106   6.613   3.672   0.667 -1.0589  2.2086 -0.9259
18738SOL    HW259107   6.534   3.726   0.784  1.0169  0.5838  1.3224
18739SOL     OW59108   3.557   2.835   2.540  0.1883  0.1995 -0.2986
18739SOL    HW159109   3.515   2.900   2.596  0.5371  1.1223 -1.0703
18739SOL    HW259110   3.511   2.843   2.456  0.4164 -0.3659 -0.4833
18740SOL     OW59111   5.053   8.692   3.590  0.1343  0.0102 -0.0302
18740SOL    HW159112   5.062   8.613   3.642 -0.7909 -0.0862  0.0016
18740SOL    HW259113   5.142   8.716   3.565  0.8122  1.0092  3.0022
18741SOL     OW59114   6.585   4.451   8.037 -0.1190 -0.0461 -0.0172
18741SOL    HW159115   6.550   4.536   8.064 -1.7353 -0.3655 -0.9562
18741SOL    HW259116   6.618   4.465   7.949  0.0977 -0.2638  0.0285
18742SOL     OW59117   9.572   0.941   6.887 -0.4645 -0.6418 -0.2155
18742SOL    HW159118   9.502   0.916   6.948 -1.8864  0.1956 -1.4077
18742SOL    HW259119   9.614   1.017   6.929 -0.8331 -0.6279  0.1385
18743SOL     OW59120   8.261   3.328   3.389 -0.1994 -0.5323  0.0348
18743SOL    HW159121   8.326   3.381   3.435 -0.3801 -0.1457 -0.1485
18743SOL    HW259122   8.294   3.239   3.395  0.3896 -0.3302 -0.1256
18744SOL     OW59123   1.167   2.951   0.429 -0.4095  0.3584  0.6807
18744SOL    HW159124   1.195   2.919   0.514  1.8661  0.0641 -0.1079
18744SOL    HW259125   1.125   3.035   0.448 -1.5977 -0.5203  2.2247
18745SOL     OW59126   0.894   3.704   4.181 -0.5159 -0.5269  0.2275
18745SOL    HW159127   0.949   3.752   4.243 -0.8668 -0.7290  0.7054
18745SOL    HW259128   0.908   3.612   4.204  0.6853 -0.7144 -1.1271
18746SOL     OW59129   8.804   0.392   0.394 -0.0319  0.1093  0.5736
18746SOL    HW159130   8.882   0.427   0.437  0.3047 -0.3490  0.3581
18746SOL    HW259131   8.758   0.468   0.360  0.7604  0.3444 -0.0093
18747SOL     OW59132   3.593   7.758   4.536  0.0753 -0.0976 -0.3797
18747SOL    HW159133   3.553   7.719   4.458 -1.0423  0.1023  0.0803
18747SOL    HW259134   3.519   7.790   4.588  0.8942  1.6905 -0.2356
18748SOL     OW59135   5.763   6.711   7.418  0.3638 -0.4996 -0.1609
18748SOL    HW159136   5.838   6.665   7.456  1.2399  0.4682 -0.7019
18748SOL    HW259137   5.775   6.802   7.443 -0.5715 -0.3047 -0.3726
18749SOL     OW59138   5.219   4.353   7.832 -0.4193  0.5446  0.0220
18749SOL    HW159139   5.176   4.401   7.903 -0.7200  1.1970 -0.5760
18749SOL    HW259140   5.206   4.409   7.755  0.8877  0.3995 -0.3214
18750SOL     OW59141   3.575   9.350   5.812  0.0925  0.0414 -0.1918
18750SOL    HW159142   3.558   9.440   5.841 -1.8390 -0.0441 -0.8886
18750SOL    HW259143   3.642   9.358   5.745  0.5438  0.8638  0.3418
18751SOL     OW59144   4.668   5.769   8.378 -0.7050  0.2966  0.4519
18751SOL    HW159145   4.706   5.830   8.442 -1.0147  1.5637 -0.5235
18751SOL    HW259146   4.578   5.758   8.406 -1.0716  1.4945 -0.1924
18752SOL     OW59147   5.568   7.005   2.485 -0.2773  0.1683 -0.3692
18752SOL    HW159148   5.514   7.059   2.428  0.3950  0.9260 -0.3083
18752SOL    HW259149   5.633   7.065   2.522 -1.0576 -0.1747  1.6880
18753SOL     OW59150   7.146   4.131   6.680  0.5644 -0.2223  0.4469
18753SOL    HW159151   7.199   4.135   6.759 -0.4143 -0.7965  1.1479
18753SOL    HW259152   7.142   4.038   6.658  0.4266 -0.1129 -0.0134
18754SOL     OW59153   1.815   0.729   4.321 -0.0051  0.1634 -0.9091
18754SOL    HW159154   1.869   0.786   4.267  1.0042  0.0575 -0.0494
18754SOL    HW259155   1.729   0.731   4.280 -0.8320  4.4416  0.5045
18755SOL     OW59156   7.548   1.599   5.740 -0.1007  0.0640 -0.1008
18755SOL    HW159157   7.535   1.582   5.834 -3.5658  0.5742 -0.3527
18755SOL    HW259158   7.538   1.694   5.732  3.7287  0.5829 -0.6748
18756SOL     OW59159   5.234   1.642   1.360  0.0546  0.5682  0.0654
18756SOL    HW159160   5.288   1.603   1.429 -1.5764 -1.0409  0.5270
18756SOL    HW259161   5.250   1.588   1.283  0.2740  1.0439 -0.2223
18757SOL     OW59162   2.859   8.727   1.819  0.6529 -0.6033 -0.0760
18757SOL    HW159163   2.859   8.777   1.901 -1.1304  1.6762 -1.3390
18757SOL    HW259164   2.908   8.782   1.758 -0.0184 -1.1283 -1.1191
18758SOL     OW59165   0.574   9.292   4.219 -0.4373 -0.3487  0.1319
18758SOL    HW159166   0.500   9.328   4.171 -0.5054 -1.8367 -0.9196
18758SOL    HW259167   0.568   9.334   4.305 -3.4447 -1.5540  0.6468
18759SOL     OW59168   1.924   8.684   8.005  0.0691 -0.9820 -1.2971
18759SOL    HW159169   1.871   8.609   7.979  0.6926 -1.5292 -1.0325
18759SOL    HW259170   1.935   8.735   7.925 -1.5188 -0.4150 -1.1930
18760SOL     OW59171   2.847   4.695   0.699  0.0781 -0.2291  0.0659
18760SOL    HW159172   2.803   4.686   0.783 -1.1218  1.5360 -0.3191
18760SOL    HW259173   2.933   4.655   0.712  0.5325  1.3642  2.5946
18761SOL     OW59174   5.793   5.205   4.348  0.5811 -0.9439  0.5512
18761SOL    HW159175   5.728   5.275   4.346  0.9141 -0.6065  1.2338
18761SOL    HW259176   5.749   5.129   4.309 -0.9548 -1.3344  2.8655
18762SOL     OW59177   4.842   4.832   0.834 -0.1789  0.3860 -0.1697
18762SOL    HW159178   4.886   4.764   0.784  0.6600  0.2094  0.7794
18762SOL    HW259179   4.842   4.800   0.924 -0.3907  1.3242  0.1753
18763SOL     OW59180   1.696   5.950   5.286 -0.7565  0.1466  0.7006
18763SOL    HW159181   1.751   5.901   5.348  0.9063 -0.6726 -1.2935
18763SOL    HW259182   1.668   5.884   5.222 -2.1677  1.0186  0.3932
18764SOL     OW59183   0.514   4.005   2.899 -0.1289  0.4370  0.2392
18764SOL    HW159184   0.426   4.005   2.861  0.0457 -0.1990 -0.1851
18764SOL    HW259185   0.500   3.994   2.993 -0.5922  2.5027  0.4796
18765SOL     OW59186   6.717   2.077   1.821 -0.3250 -0.0614  0.7846
18765SOL    HW159187   6.691   2.048   1.909 -1.6875 -0.6633  0.2113
18765SOL    HW259188   6.637   2.111   1.783  0.3964  0.7849 -0.0179
18766SOL     OW59189   5.843   2.354   2.101  0.9107 -0.2006  1.0355
18766SOL    HW159190   5.937   2.368   2.116  0.8551  1.6606  0.0235
18766SOL    HW259191   5.835   2.345   2.006  0.0822 -0.5349  1.1274
18767SOL     OW59192   3.808   7.400   0.805  0.7438 -0.2364  0.8609
18767SOL    HW159193   3.886   7.431   0.761  1.7059 -0.5320  2.2748
18767SOL    HW259194   3.739   7.461   0.779  1.4963  0.1808 -0.2048
18768SOL     OW59195   9.620   5.309   3.363  0.1752  0.2076  0.3370
18768SOL    HW159196   9.525   5.303   3.376  0.2766 -0.5042  0.8382
18768SOL    HW259197   9.657   5.262   3.437  0.9423  0.9387  0.4335
18769SOL     OW59198   1.323   8.300   6.934 -0.0839 -0.0950 -0.3445
18769SOL    HW159199   1.396   8.304   6.996 -0.1556 -1.0196 -0.1916
18769SOL    HW259200   1.277   8.383   6.947  1.3233  0.8152 -0.9387
18770SOL     OW59201   0.167   9.177   6.602  0.2802  0.0855  0.3258
18770SOL    HW159202   0.094   9.238   6.600  1.1969  1.2207  0.4647
18770SOL    HW259203   0.132   9.096   6.563 -0.5806  1.1298 -1.1916
18771SOL     OW59204   8.736   0.749   2.319 -0.0690  0.4915 -0.4114
18771SOL    HW159205   8.686   0.829   2.302 -1.3196 -0.3660 -0.9139
18771SOL    HW259206   8.814   0.779   2.365 -0.6125  1.9747 -0.4007
18772SOL     OW59207   4.424   0.033   1.163  0.0113  0.6875  0.0839
18772SOL    HW159208   4.469   0.077   1.234  0.1386 -0.2442  0.5929
18772SOL    HW259209   4.331   0.036   1.187 -0.1951  2.3446 -0.8200
18773SOL     OW59210   3.836   9.001   6.101 -0.5850 -0.0386  0.7433
18773SOL    HW159211   3.848   9.043   6.015  1.5928 -2.5697 -0.3316
18773SOL    HW259212   3.924   8.994   6.136 -1.2632 -0.7077  2.3851
18774SOL     OW59213   6.157   9.289   7.891  0.3727 -0.0436 -0.1377
18774SOL    HW159214   6.066   9.301   7.917 -0.0090 -0.2689 -1.3125
18774SOL    HW259215   6.186   9.211   7.938  0.1192  0.3133  0.6222
18775SOL     OW59216   3.239   5.038   4.883 -0.1920  0.1879  0.8414
18775SOL    HW159217   3.299   5.033   4.957 -0.0372 -1.0091  0.6692
18775SOL    HW259218   3.167   5.092   4.913  1.0624  1.8596  0.9788
18776SOL     OW59219   1.152   1.336   0.338 -0.5311  0.3308 -0.7489
18776SOL    HW159220   1.064   1.299   0.336 -0.1499 -0.5506 -1.5083
18776SOL    HW259221   1.195   1.293   0.412 -1.0890  1.6553  0.4115
18777SOL     OW59222   4.228   8.918   5.256  0.6892 -0.0600 -0.6520
18777SOL    HW159223   4.309   8.872   5.278  1.1480  0.8405 -0.4076
18777SOL    HW259224   4.181   8.858   5.197  1.6587 -0.4680 -1.0249
18778SOL     OW59225   7.830   3.700   1.239  0.0289 -0.4247  0.6249
18778SOL    HW159226   7.756   3.755   1.214  0.6753 -0.0434 -0.5519
18778SOL    HW259227   7.800   3.610   1.222 -0.4327 -0.3275  0.9137
18779SOL     OW59228   0.396   7.606   4.889 -0.5408 -0.4712 -0.0201
18779SOL    HW159229   0.425   7.565   4.971 -0.8179  1.1106  0.8954
18779SOL    HW259230   0.471   7.657   4.860 -0.8970  0.0464 -0.0383
18780SOL     OW59231   4.637   1.787   2.306 -0.6394 -0.0545  0.4187
18780SOL    HW159232   4.623   1.698   2.273  0.4630 -0.5176  1.1416
18780SOL    HW259233   4.552   1.814   2.340 -1.2099 -0.4710 -0.6284
18781SOL     OW59234   1.481   9.428   5.214 -0.1571  0.5056 -0.0044
18781SOL    HW159235   1.486   9.450   5.307  0.8987  2.1248 -0.4057
18781SOL    HW259236   1.529   9.499   5.170  3.0322 -2.2931 -1.4869
18782SOL     OW59237   2.899   2.559   9.223  0.0095 -0.1422 -0.1022
18782SOL    HW159238   2.945   2.490   9.175  1.0151 -0.0578  0.7120
18782SOL    HW259239   2.824   2.514   9.262  0.8115 -0.8637  0.6619
18783SOL     OW59240   1.271   7.590   4.513 -0.7105 -0.1833 -0.0515
18783SOL    HW159241   1.283   7.527   4.442 -0.5699 -1.0140  0.6897
18783SOL    HW259242   1.260   7.536   4.591 -0.7872  0.7144  0.5713
18784SOL     OW59243   1.929   7.247   5.258  0.6143 -0.9467 -0.3464
18784SOL    HW159244   1.844   7.219   5.293 -0.8749  0.7689 -2.3207
18784SOL    HW259245   1.928   7.343   5.267  3.1082 -0.9708  1.0886
18785SOL     OW59246   8.384   5.379   4.611  0.4751 -0.0356  0.7100
18785SOL    HW159247   8.345   5.375   4.523  2.5282  1.1793 -0.3103
18785SOL    HW259248   8.411   5.289   4.629 -1.4585 -0.6467  0.8916
18786SOL     OW59249   0.910   2.485   2.928  0.3146 -0.1553  0.0315
18786SOL    HW159250   1.004   2.477   2.945  0.6391 -1.4727 -2.1250
18786SOL    HW259251   0.903   2.559   2.868 -0.0139 -0.1622  0.0602
18787SOL     OW59252   1.353   2.858   4.992  0.0175  0.0829  0.6924
18787SOL    HW159253   1.293   2.920   5.033 -0.4533  0.8641 -1.0642
18787SOL    HW259254   1.429   2.911   4.969 -0.2286 -0.0581 -0.4882
18788SOL     OW59255   7.007   6.023   9.173 -0.0712 -0.6195 -0.0946
18788SOL    HW159256   7.085   6.078   9.187 -0.7538  0.8957 -1.7793
18788SOL    HW259257   7.042   5.938   9.148  1.0615 -0.1929 -0.0428
18789SOL     OW59258   2.573   1.089   5.653 -0.3434  1.1948 -0.3085
18789SOL    HW159259   2.629   1.166   5.662 -0.7833  1.4904 -0.0444
18789SOL    HW259260   2.512   1.095   5.727 -0.1882  0.4310 -0.1131
18790SOL     OW59261   4.631   4.141   9.138 -0.1696 -0.2529 -0.7392
18790SOL    HW159262   4.641   4.101   9.052  0.9266  0.2666 -0.8627
18790SOL    HW259263   4.554   4.198   9.129 -0.5649 -0.8344 -1.1183
18791SOL     OW59264   3.931   5.494   5.435  0.1572  0.4059 -0.2599
18791SOL    HW159265   3.898   5.420   5.487  0.8270 -0.4704 -1.0590
18791SOL    HW259266   3.860   5.513   5.373 -0.4453  1.1376  0.6347
18792SOL     OW59267   1.957   7.639   6.824  0.1074  0.1011  0.1227
18792SOL    HW159268   1.866   7.666   6.810  0.1547  0.8241  1.0838
18792SOL    HW259269   1.951   7.562   6.880  0.0923  0.3188  0.4224
18793SOL     OW59270   5.689   1.642   2.157  0.0200  0.0151  0.2727
18793SOL    HW159271   5.627   1.689   2.102  0.3411 -1.1608 -1.1722
18793SOL    HW259272   5.685   1.551   2.126  0.5555 -0.6067  1.9027
18794SOL     OW59273   4.889   9.507   2.126 -0.2515  0.0605  0.7766
18794SOL    HW159274   4.878   9.593   2.166  1.2157  0.2507  0.8257
18794SOL    HW259275   4.975   9.510   2.084 -0.8049 -0.8853 -0.5036
18795SOL     OW59276   1.622   2.707   6.766 -0.2407  0.0890  0.4535
18795SOL    HW159277   1.565   2.640   6.728 -0.0770 -0.4455  1.1236
18795SOL    HW259278   1.710   2.669   6.760  0.4661  1.8715 -2.7794
18796SOL     OW59279   5.589   4.545   5.358  0.4715 -0.5886  0.1797
18796SOL    HW159280   5.683   4.566   5.368  1.0485 -1.7755 -2.1432
18796SOL    HW259281   5.586   4.482   5.286 -2.2631  0.5466 -0.8234
18797SOL     OW59282   2.032   5.120   0.624  0.0653  0.5692  0.4567
18797SOL    HW159283   2.031   5.024   0.621 -0.2507  0.5553  0.8963
18797SOL    HW259284   1.953   5.146   0.575 -2.1430  0.4781  3.6372
18798SOL     OW59285   4.919   7.316   7.705 -0.1527 -0.3557  0.9738
18798SOL    HW159286   4.899   7.328   7.797  0.6794  1.6359  0.9327
18798SOL    HW259287   5.003   7.360   7.692  0.3203 -1.5954 -0.5058
18799SOL     OW59288   2.489   2.027   6.580 -0.3403  0.2188  0.1775
18799SOL    HW159289   2.530   2.040   6.666 -0.6624  0.8153  0.2470
18799SOL    HW259290   2.548   1.967   6.535  0.6001  1.0119  0.2964
18800SOL     OW59291   8.786   8.939   0.194 -0.0770 -0.0092  0.2349
18800SOL    HW159292   8.814   8.851   0.171  1.6875  0.5840 -0.1027
18800SOL    HW259293   8.813   8.949   0.286  0.6717  0.4971 -0.0269
18801SOL     OW59294   4.611   6.322   2.268  0.0571 -0.5381 -0.3660
18801SOL    HW159295   4.637   6.403   2.310  0.6669 -1.1444  0.4481
18801SOL    HW259296   4.663   6.318   2.188 -0.3287  0.1027 -0.6525
18802SOL     OW59297   7.160   6.864   9.548  0.2163 -0.5651  0.2065
18802SOL    HW159298   7.175   6.956   9.573 -0.6883  0.1580 -1.7339
18802SOL    HW259299   7.205   6.855   9.465 -0.6059 -1.5831 -0.1408
18803SOL     OW59300   5.253   1.804   9.419  0.0970  0.5812 -0.2625
18803SOL    HW159301   5.238   1.762   9.503  0.3361  0.1678 -0.4234
18803SOL    HW259302   5.342   1.840   9.425  0.5926 -0.5142 -0.7705
18804SOL     OW59303   2.371   0.015   5.412 -0.1265 -0.0407 -0.3259
18804SOL    HW159304   2.450  -0.037   5.399  0.8193  0.1010  3.5231
18804SOL    HW259305   2.306  -0.049   5.442 -0.1015  0.4048  0.7248
18805SOL     OW59306   3.470   3.488   9.373  0.5330  0.4304 -0.1044
18805SOL    HW159307   3.534   3.554   9.343  1.1505  0.5403  1.3954
18805SOL    HW259308   3.443   3.518   9.459 -0.2692 -0.5410 -0.0030
18806SOL     OW59309   1.831   1.438   0.452 -0.0953 -0.1716 -0.2102
18806SOL    HW159310   1.740   1.455   0.475  0.2366  1.6668 -0.0427
18806SOL    HW259311   1.827   1.384   0.373 -1.3525  0.6921 -0.7667
18807SOL     OW59312   6.299   3.651   4.259  0.0169  0.0995 -0.2851
18807SOL    HW159313   6.336   3.618   4.177  0.5144 -2.3277  0.8237
18807SOL    HW259314   6.211   3.614   4.261 -0.1657  0.5476  0.0853
18808SOL     OW59315   0.738   9.043   8.311 -0.1672 -0.4451 -0.3383
18808SOL    HW159316   0.698   9.086   8.235 -2.0067  1.4090  1.5567
18808SOL    HW259317   0.812   9.098   8.334 -1.1674  0.4969  0.7252
18809SOL     OW59318   4.320   7.422   3.204  0.2913 -0.0603 -0.1334
18809SOL    HW159319   4.396   7.475   3.229 -0.9515  1.9569 -0.3808
18809SOL    HW259320   4.335   7.401   3.112  0.1794  1.0671 -0.4276
18810SOL     OW59321   7.615   6.918   6.341  0.2755  0.7926 -0.1491
18810SOL    HW159322   7.557   6.844   6.324  1.2868  0.2270 -1.2842
18810SOL    HW259323   7.622   6.922   6.436 -1.5179  0.8141  0.0069
18811SOL     OW59324   1.982   0.878   3.596  0.3018 -0.0171 -0.2037
18811SOL    HW159325   2.045   0.946   3.571 -0.2586  0.4401 -0.3943
18811SOL    HW259326   1.898   0.911   3.566 -0.2216 -0.0258  1.2061
18812SOL     OW59327   7.117   2.881   8.433 -0.1352  0.2479  0.4027
18812SOL    HW159328   7.124   2.917   8.521 -0.9109  0.4272  0.3911
18812SOL    HW259329   7.023   2.871   8.417  0.0269 -2.8862  0.8431
18813SOL     OW59330   1.107   4.135   6.173 -0.4509 -0.5152  0.1710
18813SOL    HW159331   1.097   4.090   6.089  0.4007 -1.2894  0.4743
18813SOL    HW259332   1.116   4.065   6.237  1.7898  0.0373  0.5392
18814SOL     OW59333   4.635   2.332   4.263  0.1778 -0.2751 -0.1168
18814SOL    HW159334   4.543   2.356   4.252  0.3739  0.7802  0.4489
18814SOL    HW259335   4.640   2.243   4.229 -0.9896 -0.2391 -0.4390
18815SOL     OW59336   7.283   7.771   1.059  0.4263  0.4826  0.0427
18815SOL    HW159337   7.204   7.816   1.031  1.2916  1.1092 -1.4906
18815SOL    HW259338   7.263   7.740   1.148 -1.5861  0.4375 -0.3929
18816SOL     OW59339   6.017   6.856   1.335 -1.4351 -0.1432  0.1550
18816SOL    HW159340   5.965   6.859   1.254  1.3107  0.6059 -1.7255
18816SOL    HW259341   6.045   6.765   1.342 -0.6666  0.0290 -0.4865
18817SOL     OW59342   7.878   1.342   5.647  0.1330 -0.1440  0.0819
18817SOL    HW159343   7.797   1.308   5.609 -0.6418  0.8934  0.7781
18817SOL    HW259344   7.866   1.437   5.648  0.9366 -0.0401  1.1337
18818SOL     OW59345   8.636   1.179   7.543  0.4692  0.6171 -0.1552
18818SOL    HW159346   8.676   1.259   7.509 -0.0105  0.0818 -2.1164
18818SOL    HW259347   8.710   1.125   7.571  0.8251  1.4715  0.6258
18819SOL     OW59348   0.142   5.865   1.661  0.3737  0.0456 -0.6649
18819SOL    HW159349   0.187   5.902   1.737 -0.2337  1.0636 -0.7770
18819SOL    HW259350   0.090   5.938   1.627  1.2168 -0.1653 -2.5078
18820SOL     OW59351   4.378   5.352   1.478 -0.2234  0.0020 -0.0367
18820SOL    HW159352   4.399   5.320   1.391  2.0007 -0.4354  0.6116
18820SOL    HW259353   4.407   5.282   1.537 -1.6163  0.3223  1.0828
18821SOL     OW59354   5.704   3.146   8.211  0.1418 -0.1246  0.1363
18821SOL    HW159355   5.800   3.143   8.215  0.1601 -0.1727 -0.2833
18821SOL    HW259356   5.685   3.205   8.138 -0.1086 -2.7596 -2.0799
18822SOL     OW59357   8.317   7.226   7.116  0.1082 -0.1615 -0.1479
18822SOL    HW159358   8.402   7.187   7.098  0.7119  0.3384  1.4448
18822SOL    HW259359   8.257   7.183   7.055  1.7080  0.4466 -2.2310
18823SOL     OW59360   1.768   8.823   8.671  0.0639  0.1068 -0.0617
18823SOL    HW159361   1.796   8.828   8.579 -0.3539 -0.2064 -0.2128
18823SOL    HW259362   1.815   8.894   8.715 -0.6087  0.9854 -0.7457
18824SOL     OW59363   0.144   1.190   9.569 -0.2117 -0.0155 -0.3612
18824SOL    HW159364   0.133   1.159   9.479  0.5588 -1.3959 -0.0071
18824SOL    HW259365   0.153   1.110   9.621 -3.7871  0.5398  1.4520
18825SOL     OW59366   7.746   2.259   0.594 -0.2825 -0.5359 -0.1542
18825SOL    HW159367   7.656   2.286   0.575 -1.1466 -3.2200 -0.2514
18825SOL    HW259368   7.785   2.240   0.509  0.6195  1.1752 -0.1604
18826SOL     OW59369   8.353   1.226   5.204  0.1374 -0.0867  0.0673
18826SOL    HW159370   8.327   1.270   5.122  1.8198  2.1962  0.6729
18826SOL    HW259371   8.444   1.252   5.218  0.6641 -2.4192  1.4446
18827SOL     OW59372   9.453   6.500   7.286  0.2402  0.1315 -0.3958
18827SOL    HW159373   9.390   6.571   7.297  0.1212 -0.0609  0.1998
18827SOL    HW259374   9.499   6.495   7.369 -0.0030 -0.7249 -0.2969
18828SOL     OW59375   0.178   1.328   8.882  0.0684 -0.1012  0.5977
18828SOL    HW159376   0.237   1.300   8.812  0.7843  1.3782  0.5664
18828SOL    HW259377   0.132   1.403   8.846 -1.4513 -0.8850  0.8354
18829SOL     OW59378   3.686   3.085   0.609 -0.0041  0.3522  0.3803
18829SOL    HW159379   3.729   3.135   0.679  0.6108  1.0997 -0.5165
18829SOL    HW259380   3.612   3.140   0.583 -0.9636 -0.4847  1.2496
18830SOL     OW59381   6.927   7.698   9.139  0.2398 -0.1894 -0.2655
18830SOL    HW159382   7.014   7.726   9.166  0.8948 -2.4256  0.1554
18830SOL    HW259383   6.930   7.603   9.143 -1.9081 -0.3671 -1.2879
18831SOL     OW59384   1.376   1.508   8.978  0.3784  0.0311 -0.4190
18831SOL    HW159385   1.343   1.446   9.043 -0.2095 -1.5931 -2.1738
18831SOL    HW259386   1.300   1.560   8.953  0.6306  0.7379  0.2429
18832SOL     OW59387   5.181   2.995   5.524 -0.4311  0.2642 -0.0836
18832SOL    HW159388   5.103   2.980   5.578 -0.5159  0.5801 -0.1134
18832SOL    HW259389   5.254   2.997   5.586 -0.4765  0.2118 -0.0283
18833SOL     OW59390   9.097   1.733   7.589 -0.6020  0.1920 -0.3792
18833SOL    HW159391   9.078   1.767   7.677 -1.8490  2.1768 -1.3364
18833SOL    HW259392   9.169   1.788   7.557 -0.5186 -0.1532 -0.7929
18834SOL     OW59393   7.935   8.749   2.033 -0.3124  0.5404 -0.2367
18834SOL    HW159394   7.992   8.709   1.967 -0.3200  1.4807 -0.8367
18834SOL    HW259395   7.954   8.842   2.027 -1.9078  0.8769 -0.4355
18835SOL     OW59396   1.896   8.647   1.229 -0.6579 -0.0041  0.4467
18835SOL    HW159397   1.881   8.700   1.151  0.4797  0.0900  0.2753
18835SOL    HW259398   1.913   8.710   1.299  1.0181 -0.0945  0.1752
18836SOL     OW59399   8.466   2.490   4.461 -0.2454  0.3785 -0.2009
18836SOL    HW159400   8.561   2.480   4.474 -0.4180 -0.5929  0.4044
18836SOL    HW259401   8.430   2.405   4.483 -1.1711  0.4119 -1.5023
18837SOL     OW59402   3.948   4.788   3.259 -0.2926  0.0263  0.4376
18837SOL    HW159403   3.936   4.828   3.174  1.2830 -2.0931 -0.8811
18837SOL    HW259404   3.878   4.723   3.265  0.6780 -1.1092 -0.1122
18838SOL     OW59405   2.261   3.832   6.843  0.5712 -0.2041  0.4574
18838SOL    HW159406   2.241   3.882   6.922  1.2742 -0.3479  0.7330
18838SOL    HW259407   2.295   3.749   6.875  0.0771 -0.5874 -0.0018
18839SOL     OW59408   7.774   9.219   7.205  0.4064  0.0951  0.1886
18839SOL    HW159409   7.810   9.257   7.126 -1.2426 -0.0283 -0.6781
18839SOL    HW259410   7.692   9.268   7.220  0.6155  0.0387  1.7512
18840SOL     OW59411   6.412   1.887   1.757 -0.0267 -0.0477  0.0886
18840SOL    HW159412   6.444   1.899   1.846  2.3740 -0.8201 -0.6066
18840SOL    HW259413   6.387   1.975   1.729  0.3366  0.3971  1.1088
18841SOL     OW59414   8.493   3.565   0.163  0.2692 -0.2671 -0.1237
18841SOL    HW159415   8.574   3.575   0.113 -1.0770  1.3668 -2.0819
18841SOL    HW259416   8.447   3.493   0.121 -0.0424 -0.1149 -0.0452
18842SOL     OW59417   8.739   3.638   7.806 -0.6498  0.1569 -0.7773
18842SOL    HW159418   8.645   3.640   7.790 -1.2140  0.0340  2.0138
18842SOL    HW259419   8.760   3.545   7.813 -0.6192  0.2189  0.0229
18843SOL     OW59420   4.770   9.170   3.228  0.0036  0.0435  0.0529
18843SOL    HW159421   4.728   9.087   3.251 -0.7530  0.6094  0.7500
18843SOL    HW259422   4.864   9.150   3.225 -0.0923 -0.6117  1.2000
18844SOL     OW59423   6.037   3.957   7.233 -0.8614  0.6985 -0.0113
18844SOL    HW159424   6.103   3.968   7.302  1.0447  0.9168 -1.7955
18844SOL    HW259425   5.998   4.044   7.224 -0.2299  0.9799 -0.0646
18845SOL     OW59426   7.544   0.933   9.409 -0.0833  0.0221  0.2278
18845SOL    HW159427   7.622   0.889   9.443 -0.0345  1.2908  1.8933
18845SOL    HW259428   7.474   0.869   9.419  0.6783 -1.0832 -1.1684
18846SOL     OW59429   5.091   2.195   8.060 -0.6148  0.5165 -0.0041
18846SOL    HW159430   5.123   2.204   8.150 -3.5173 -0.4836  1.2542
18846SOL    HW259431   5.128   2.113   8.028 -0.2473  0.4417  0.6111
18847SOL     OW59432   4.784   1.160   5.632 -0.0382 -0.3508 -0.3585
18847SOL    HW159433   4.720   1.197   5.571  0.6017  0.5259 -0.5262
18847SOL    HW259434   4.745   1.174   5.719 -0.8459 -1.3956 -0.5468
18848SOL     OW59435   1.308   7.892   3.709  0.0713 -0.3581  0.1607
18848SOL    HW159436   1.311   7.796   3.715  0.5316 -0.2946  1.2189
18848SOL    HW259437   1.279   7.920   3.796 -2.0862  0.4007 -0.7580
18849SOL     OW59438   4.265   9.125   2.270  0.5238  0.5616  0.1968
18849SOL    HW159439   4.360   9.121   2.258  0.6102  0.5117  0.8224
18849SOL    HW259440   4.251   9.209   2.315  0.4071  0.0544  1.1412
18850SOL     OW59441   6.501   2.432   1.471 -0.4303 -0.0083 -0.8087
18850SOL    HW159442   6.581   2.389   1.501 -2.4899 -3.9253 -0.2796
18850SOL    HW259443   6.488   2.397   1.382 -0.7366  1.9339 -1.5697
18851SOL     OW59444   9.181   6.819   1.967  0.9625  0.0023 -0.2961
18851SOL    HW159445   9.153   6.776   1.886  0.6444 -2.4522  1.0255
18851SOL    HW259446   9.121   6.892   1.978 -1.4525 -1.8416 -0.3926
18852SOL     OW59447   4.242   8.843   8.749 -0.1631 -0.0463  0.6505
18852SOL    HW159448   4.212   8.753   8.754  0.8420 -0.7113 -2.7522
18852SOL    HW259449   4.331   8.841   8.785  0.0937 -0.5681  0.0011
18853SOL     OW59450   4.902   1.799   9.123  0.2151 -0.0842 -0.4735
18853SOL    HW159451   4.991   1.762   9.121  0.1145 -0.3175 -0.6689
18853SOL    HW259452   4.847   1.729   9.157  0.1676  0.2024  0.0566
18854SOL     OW59453   0.687   4.963   0.853  0.1679 -0.0980 -0.1572
18854SOL    HW159454   0.690   4.874   0.888  0.5383 -0.5720 -1.3524
18854SOL    HW259455   0.594   4.977   0.832  0.2824 -0.6956 -1.1424
18855SOL     OW59456   9.642   6.076   2.484  0.5100  0.7679 -0.1286
18855SOL    HW159457   9.719   6.094   2.538  1.1234 -1.0522 -0.3540
18855SOL    HW259458   9.670   6.096   2.394  0.6206  0.4231 -0.1721
18856SOL     OW59459   8.109   8.325   6.555 -0.1415  0.1371 -0.6039
18856SOL    HW159460   8.124   8.380   6.479  0.9136 -0.6977 -1.0279
18856SOL    HW259461   8.179   8.260   6.552 -2.0360 -2.0326 -0.8783
18857SOL     OW59462   7.283   2.734   2.725  0.2565  0.3983  0.1342
18857SOL    HW159463   7.359   2.788   2.702  0.2301  0.4506  0.1673
18857SOL    HW259464   7.294   2.655   2.673  0.1344  0.5632 -0.1458
18858SOL     OW59465   3.281   9.392   9.375 -0.0086  0.0769 -0.2929
18858SOL    HW159466   3.324   9.473   9.347 -0.3747  0.5211  0.3904
18858SOL    HW259467   3.235   9.416   9.456  0.7054 -1.0587  0.4874
18859SOL     OW59468   7.019   8.382   0.123  0.0285  0.6215  0.3855
18859SOL    HW159469   7.044   8.299   0.082  0.3403 -0.9400  3.4927
18859SOL    HW259470   7.096   8.438   0.113  0.7028 -0.2942  0.3316
18860SOL     OW59471   7.055   3.676   6.429  0.3851 -0.0951 -0.2503
18860SOL    HW159472   6.998   3.662   6.353 -2.1169  0.7721  1.3596
18860SOL    HW259473   7.094   3.590   6.446 -0.4834 -0.7367 -1.3608
18861SOL     OW59474   6.595   8.262   7.407 -0.1891 -0.0983 -0.6300
18861SOL    HW159475   6.673   8.237   7.457  0.7857  0.1425 -1.9678
18861SOL    HW259476   6.570   8.347   7.443  0.3845 -0.0190 -0.3986
18862SOL     OW59477   1.916   0.077   9.177 -0.1941 -0.4676 -0.1595
18862SOL    HW159478   1.851   0.107   9.114 -0.3117  1.3080  0.7411
18862SOL    HW259479   1.866   0.053   9.255 -0.2032 -4.1079 -1.1273
18863SOL     OW59480   4.953   8.802   7.191  0.0337  0.5368 -0.4837
18863SOL    HW159481   4.918   8.717   7.216  0.4410  0.9697  1.7703
18863SOL    HW259482   5.047   8.795   7.210 -0.0644  1.7313  0.5263
18864SOL     OW59483   6.244   9.150   8.324 -0.4165 -0.4146  0.0475
18864SOL    HW159484   6.333   9.133   8.354 -0.0560 -1.0713 -1.3440
18864SOL    HW259485   6.237   9.245   8.323 -0.1806 -0.3607  1.3957
18865SOL     OW59486   7.066   1.793   7.512  0.2275  0.3541 -0.6446
18865SOL    HW159487   7.035   1.785   7.602 -1.4571  3.0042 -0.8858
18865SOL    HW259488   7.053   1.885   7.490  1.8770  0.0831 -3.1792
18866SOL     OW59489   2.354   9.509   9.101  0.2577  0.4539  0.2710
18866SOL    HW159490   2.305   9.551   9.030 -0.3645 -1.2517 -0.3501
18866SOL    HW259491   2.440   9.552   9.100 -0.0831  1.1387 -0.8612
18867SOL     OW59492   8.046   2.342   1.507 -0.2113 -0.6547 -0.0210
18867SOL    HW159493   7.963   2.379   1.537  0.3687 -0.8239  1.9323
18867SOL    HW259494   8.023   2.255   1.475 -0.5882 -1.4756  2.2920
18868SOL     OW59495   9.384   3.182   3.481  0.1016 -0.6724 -0.0028
18868SOL    HW159496   9.441   3.248   3.522 -0.3204 -0.1627 -0.2208
18868SOL    HW259497   9.396   3.195   3.387 -1.6094  0.5902 -0.1028
18869SOL     OW59498   3.586   3.935   1.076 -0.1268  0.2320 -0.6944
18869SOL    HW159499   3.660   3.971   1.124  0.3223  0.1187 -1.2965
18869SOL    HW259500   3.617   3.925   0.986 -0.4755 -0.9856 -0.6970
18870SOL     OW59501   7.344   3.603   1.036  0.2629  0.0697  0.4597
18870SOL    HW159502   7.370   3.682   0.989  0.6782 -1.3206 -1.8351
18870SOL    HW259503   7.265   3.574   0.990 -0.2704 -0.4938  1.6974
18871SOL     OW59504   3.335   9.392   9.077 -0.1027 -0.3708 -0.6099
18871SOL    HW159505   3.262   9.399   9.138  0.7538  1.0831  0.3181
18871SOL    HW259506   3.365   9.482   9.065  0.7022 -0.7888 -2.0161
18872SOL     OW59507   2.738   0.931   4.957 -0.0627 -0.1750  0.3981
18872SOL    HW159508   2.735   0.839   4.930  0.1305 -0.0599 -0.0231
18872SOL    HW259509   2.818   0.938   5.009  0.9634  0.1624 -1.1418
18873SOL     OW59510   1.455   8.112   2.180 -0.3599  0.2973 -0.4135
18873SOL    HW159511   1.509   8.033   2.191 -2.1370 -0.9690 -0.4714
18873SOL    HW259512   1.404   8.096   2.101 -1.3845  1.1193  0.0616
18874SOL     OW59513   5.645   3.215   7.914 -0.0099  0.5094  0.2712
18874SOL    HW159514   5.735   3.215   7.882 -0.8108  0.7567 -2.1187
18874SOL    HW259515   5.634   3.303   7.952  0.3012  1.0348 -0.8190
18875SOL     OW59516   8.698   8.960   6.439 -0.1247  0.2044  0.1945
18875SOL    HW159517   8.692   8.864   6.437  1.9239  0.0458 -1.6463
18875SOL    HW259518   8.627   8.990   6.381  0.7400 -0.3521 -1.1998
18876SOL     OW59519   2.651   8.445   0.041  0.3191  0.2414 -0.4195
18876SOL    HW159520   2.733   8.461   0.087  1.3191 -3.0593 -0.7522
18876SOL    HW259521   2.678   8.415  -0.046 -1.1996 -0.9148 -0.5478
18877SOL     OW59522   1.490   8.838   3.548 -0.2961  0.2864 -0.3640
18877SOL    HW159523   1.410   8.868   3.590  0.0287  0.7449 -0.0521
18877SOL    HW259524   1.560   8.865   3.608  0.0835 -0.2049 -0.5762
18878SOL     OW59525   0.923   6.095   1.306  0.0386  0.0266 -0.1265
18878SOL    HW159526   0.898   6.037   1.234  1.0013 -0.3756 -0.1518
18878SOL    HW259527   0.877   6.176   1.289 -1.6463 -0.8334  0.1117
18879SOL     OW59528   9.389   5.577   4.638 -0.1538 -0.1562  0.1696
18879SOL    HW159529   9.388   5.668   4.611 -1.7835 -0.4276 -0.8394
18879SOL    HW259530   9.296   5.554   4.650  0.1838 -1.8025 -0.0657
18880SOL     OW59531   5.303   1.230   0.006 -0.1543 -0.7271 -0.5983
18880SOL    HW159532   5.279   1.152   0.056 -0.3585  1.1409  2.4776
18880SOL    HW259533   5.356   1.282   0.067 -1.5984  2.3788 -1.7671
18881SOL     OW59534   4.062   7.690   2.962  0.3719 -0.8299  0.7342
18881SOL    HW159535   3.981   7.736   2.984 -0.0134 -1.4650  0.6624
18881SOL    HW259536   4.087   7.645   3.043  0.2204 -1.2762  0.5378
18882SOL     OW59537   6.993   0.661   8.391 -0.3484  0.1730 -0.1553
18882SOL    HW159538   6.971   0.650   8.298 -1.3827  1.5851 -0.1086
18882SOL    HW259539   6.951   0.585   8.433 -1.3306  0.4116 -0.6537
18883SOL     OW59540   6.167   8.306   8.285  0.1270 -0.2008  0.5719
18883SOL    HW159541   6.251   8.261   8.278  0.7138  1.1499 -1.9861
18883SOL    HW259542   6.110   8.259   8.224  0.0203  0.9019 -0.2088
18884SOL     OW59543   5.965   5.989   2.475 -0.3358 -0.9563  0.1329
18884SOL    HW159544   5.906   5.975   2.548 -1.0287  0.9223 -0.0075
18884SOL    HW259545   5.958   5.910   2.422 -3.9168 -0.2675 -0.6652
18885SOL     OW59546   1.241   3.412   8.394  0.0044 -1.2668 -0.5853
18885SOL    HW159547   1.289   3.378   8.318 -1.0919 -1.4356 -1.2136
18885SOL    HW259548   1.273   3.502   8.404  1.2830 -1.7301 -0.2825
18886SOL     OW59549   5.950   9.257   2.272 -0.4414  0.1998 -0.7804
18886SOL    HW159550   5.897   9.183   2.302 -0.6871  0.3581 -0.8222
18886SOL    HW259551   5.960   9.312   2.349  1.7456 -1.0311 -0.0975
18887SOL     OW59552   8.551   8.459   3.892  0.7433  0.2029 -0.4354
18887SOL    HW159553   8.477   8.434   3.836  1.1406 -2.6150  0.1523
18887SOL    HW259554   8.514   8.461   3.980  0.3878  3.4882 -0.5307
18888SOL     OW59555   3.955   6.095   1.132 -0.3001 -0.2780 -0.0009
18888SOL    HW159556   3.924   6.180   1.163  0.3827  0.1372 -0.4224
18888SOL    HW259557   3.877   6.054   1.095 -0.8914 -0.3414  1.2787
18889SOL     OW59558   4.762   3.719   7.425  0.1031  0.0089  0.3525
18889SOL    HW159559   4.830   3.742   7.361 -1.0500  2.0835 -0.2402
18889SOL    HW259560   4.688   3.692   7.372 -0.6511  1.1195  0.7933
18890SOL     OW59561   1.557   2.348   8.479  0.6818  0.5348  0.1439
18890SOL    HW159562   1.542   2.439   8.506 -0.3819  0.1581  0.8868
18890SOL    HW259563   1.477   2.302   8.506 -0.6017  0.1084 -3.7713
18891SOL     OW59564   1.392   2.184   2.384 -0.6884 -0.3449 -0.3212
18891SOL    HW159565   1.386   2.201   2.478 -0.0844  0.0636 -0.3477
18891SOL    HW259566   1.485   2.194   2.364 -0.8133 -0.4197 -0.9667
18892SOL     OW59567   8.190   3.460   5.637  0.0177 -0.0223  0.1372
18892SOL    HW159568   8.216   3.392   5.700 -1.0899  0.0493  0.6975
18892SOL    HW259569   8.105   3.490   5.668  1.1279  2.7366  0.8139
18893SOL     OW59570   4.581   6.770   3.819  0.0288  0.1058 -0.0518
18893SOL    HW159571   4.519   6.733   3.756 -0.2051 -0.6706  0.6252
18893SOL    HW259572   4.552   6.736   3.904 -0.0430  1.6436  0.5679
18894SOL     OW59573   3.758   1.708   2.297  0.1430 -0.3309 -0.4275
18894SOL    HW159574   3.739   1.677   2.386  2.2031 -0.1759  0.1140
18894SOL    HW259575   3.784   1.799   2.309  0.3997 -0.2976 -1.1930
18895SOL     OW59576   7.466   2.059   3.924 -0.4424 -0.1548 -0.2683
18895SOL    HW159577   7.415   2.137   3.901 -2.0931 -0.5171  1.8063
18895SOL    HW259578   7.463   2.057   4.020  1.5077 -1.5431 -0.1869
18896SOL     OW59579   7.697   1.249   7.391  0.1219 -0.4637  0.3464
18896SOL    HW159580   7.651   1.218   7.314  0.0371  0.4208  0.0245
18896SOL    HW259581   7.768   1.187   7.405  0.8399 -0.0051 -1.1258
18897SOL     OW59582   3.012   4.360   1.705 -0.2836  0.1781  0.4278
18897SOL    HW159583   2.996   4.295   1.774 -1.2120  0.5303  0.5624
18897SOL    HW259584   3.106   4.356   1.689 -0.2640 -0.8925  0.7399
18898SOL     OW59585   6.340   7.866   6.697  0.4497 -0.1167  0.0813
18898SOL    HW159586   6.354   7.958   6.717  0.5827 -0.3831  1.2879
18898SOL    HW259587   6.349   7.821   6.781 -0.6293 -1.1203 -0.3103
18899SOL     OW59588   1.665   6.125   7.101  0.1599 -0.0430  0.2946
18899SOL    HW159589   1.585   6.142   7.052 -0.0593  0.1036  0.6916
18899SOL    HW259590   1.635   6.093   7.186  0.5274 -0.1886  0.3741
18900SOL     OW59591   6.839   1.519   1.501 -0.1872 -0.1559  0.0023
18900SOL    HW159592   6.913   1.579   1.512  0.2586 -0.1917 -2.2039
18900SOL    HW259593   6.859   1.471   1.420 -0.7517 -2.9869  1.3914
18901SOL     OW59594   1.226   9.486   7.406 -0.0787  0.0466  0.2397
18901SOL    HW159595   1.258   9.568   7.370  0.1283  1.2857  3.0169
18901SOL    HW259596   1.289   9.420   7.377  2.3385  1.6339  1.6053
18902SOL     OW59597   6.457   5.227   0.268  0.0711 -0.1759 -1.0277
18902SOL    HW159598   6.531   5.205   0.325  0.2594 -0.5472 -1.4080
18902SOL    HW259599   6.413   5.143   0.254 -1.5949  0.3068  0.7915
18903SOL     OW59600   2.876   2.229   7.819  0.5889 -0.0678 -0.6831
18903SOL    HW159601   2.954   2.199   7.772  0.4522 -1.1365 -0.2569
18903SOL    HW259602   2.888   2.195   7.908  0.9763  2.1499  0.1737
18904SOL     OW59603   0.515   5.482   0.345  0.7136  0.0276  0.0709
18904SOL    HW159604   0.501   5.563   0.297 -0.6709  0.6842  1.4841
18904SOL    HW259605   0.610   5.471   0.346  0.8285  0.3225 -2.1634
18905SOL     OW59606   7.000   1.604   3.077 -0.0665  0.0321 -0.7156
18905SOL    HW159607   6.922   1.584   3.026 -0.1190 -1.2236 -0.1682
18905SOL    HW259608   6.966   1.648   3.156 -0.1873 -0.1984 -0.6398
18906SOL     OW59609   9.036   6.474   3.445 -0.1782 -0.2015 -0.3805
18906SOL    HW159610   9.108   6.431   3.399  0.1717 -0.0188 -0.0127
18906SOL    HW259611   9.070   6.562   3.464 -1.1291  0.4877 -1.7369
18907SOL     OW59612   2.919   8.510   6.028 -0.1776  0.1992 -0.3444
18907SOL    HW159613   2.854   8.576   6.007 -1.1875 -0.8913 -0.7465
18907SOL    HW259614   2.869   8.438   6.066  0.9994 -0.0214  0.8572
18908SOL     OW59615   6.433   2.298   2.003 -0.0914  0.0034  0.4383
18908SOL    HW159616   6.463   2.299   2.094  0.2387  0.0579  0.3313
18908SOL    HW259617   6.374   2.373   1.996  1.4723  1.2480  0.0856
18909SOL     OW59618   2.936   8.467   3.112  0.0118  0.4841 -0.0737
18909SOL    HW159619   2.921   8.561   3.119  0.2660  0.5212 -0.0281
18909SOL    HW259620   2.891   8.430   3.188  1.6533  0.7623  1.0774
18910SOL     OW59621   8.734   3.196   1.684 -0.1231 -0.6027  0.0664
18910SOL    HW159622   8.677   3.124   1.712 -1.4187  0.1299 -0.6017
18910SOL    HW259623   8.765   3.169   1.597 -0.3280 -0.5144 -0.0346
18911SOL     OW59624   4.232   4.251   0.674 -0.1347 -0.1258  0.2753
18911SOL    HW159625   4.284   4.206   0.740 -0.2263  1.2065  1.3007
18911SOL    HW259626   4.225   4.341   0.706 -1.4627  0.1893 -0.7908
18912SOL     OW59627   8.166   7.828   0.070  0.2253  0.6516 -0.1163
18912SOL    HW159628   8.227   7.787   0.010  0.7454  0.1974  0.7048
18912SOL    HW259629   8.198   7.804   0.157  0.1576  2.2357  0.3802
18913SOL     OW59630   9.189   0.622   6.273 -0.0139 -0.0308 -0.2596
18913SOL    HW159631   9.282   0.616   6.253  0.6940  1.1815  2.2502
18913SOL    HW259632   9.186   0.653   6.364 -2.8171  2.7523 -1.1173
18914SOL     OW59633   0.789   3.631   6.941 -0.1991 -0.6774 -0.0665
18914SOL    HW159634   0.712   3.674   6.979 -0.7551 -1.1821 -0.5846
18914SOL    HW259635   0.826   3.697   6.883  1.1622  0.3975  1.9492
18915SOL     OW59636   4.770   8.282   1.443 -0.6879 -0.0748 -0.0945
18915SOL    HW159637   4.712   8.356   1.423  2.0179  2.7324  1.5310
18915SOL    HW259638   4.840   8.289   1.378 -1.0592 -2.2107 -0.8149
18916SOL     OW59639   9.193   9.641   4.672 -0.4954  0.1991  0.2287
18916SOL    HW159640   9.139   9.697   4.728  0.2634 -0.7047  1.9410
18916SOL    HW259641   9.148   9.642   4.588 -2.0459  1.1214  1.0042
18917SOL     OW59642   0.021   6.878   7.621 -0.2115  0.1957 -0.4711
18917SOL    HW159643   0.073   6.804   7.589 -0.9293 -0.4602 -0.1574
18917SOL    HW259644  -0.036   6.840   7.688 -1.2009  0.8636 -0.9040
18918SOL     OW59645   1.791   0.450   8.995  0.3303 -0.0148  0.2900
18918SOL    HW159646   1.779   0.417   9.084  1.1150  1.8387  1.1350
18918SOL    HW259647   1.705   0.443   8.955 -0.2615 -0.0364  1.5164
18919SOL     OW59648   3.839   3.268   9.019  0.3156 -0.1131  0.3817
18919SOL    HW159649   3.804   3.180   9.006  0.0324 -0.1229  1.1421
18919SOL    HW259650   3.849   3.303   8.931 -2.0159  0.0406  0.1039
18920SOL     OW59651   7.695   8.124   3.368 -0.0484 -0.3963 -0.2187
18920SOL    HW159652   7.729   8.035   3.372  0.6018 -0.1740 -0.5985
18920SOL    HW259653   7.607   8.118   3.407  0.0453 -1.1657 -0.1042
18921SOL     OW59654   7.591   6.529   2.221  0.6515 -0.0797  0.0708
18921SOL    HW159655   7.630   6.601   2.271  1.4510  0.2448 -0.9839
18921SOL    HW259656   7.581   6.563   2.133 -0.8384 -0.6097 -0.0035
18922SOL     OW59657   0.608   4.433   5.047 -0.3203 -0.4717  0.6542
18922SOL    HW159658   0.610   4.516   5.001  0.4456  0.3262  2.0563
18922SOL    HW259659   0.557   4.375   4.991 -0.2443  0.7279 -0.6905
18923SOL     OW59660   3.438   8.971   7.794 -0.3139 -0.3866 -0.0787
18923SOL    HW159661   3.388   9.011   7.723 -1.9727 -1.5575  0.3522
18923SOL    HW259662   3.375   8.914   7.838  1.2565 -1.4151  0.9509
18924SOL     OW59663   1.198   1.470   1.551  0.2385  0.1422 -0.0994
18924SOL    HW159664   1.103   1.463   1.541  0.0599  0.9094  0.8679
18924SOL    HW259665   1.218   1.419   1.629  0.5716  0.2466 -0.1163
18925SOL     OW59666   3.351   6.952   7.487  0.7255 -0.2519 -0.0814
18925SOL    HW159667   3.289   7.016   7.453  1.3938  0.7414  0.5076
18925SOL    HW259668   3.362   6.889   7.416 -0.0487  0.2074 -0.6238
18926SOL     OW59669   8.631   3.223   6.897 -0.2647  0.0406  0.3371
18926SOL    HW159670   8.714   3.179   6.876 -1.2050 -2.3718  1.2870
18926SOL    HW259671   8.577   3.211   6.819 -0.3913 -0.1302  0.4517
18927SOL     OW59672   8.123   0.572   9.310 -0.2537  0.3797 -0.1145
18927SOL    HW159673   8.102   0.581   9.217  0.0251  0.4314 -0.1746
18927SOL    HW259674   8.097   0.482   9.332  0.8489 -0.0703 -0.5595
18928SOL     OW59675   7.505   5.740   5.373  0.5153 -0.2462 -0.0998
18928SOL    HW159676   7.521   5.777   5.459 -0.1317 -0.9541  0.3327
18928SOL    HW259677   7.579   5.680   5.358  0.7220  0.0133 -0.1170
18929SOL     OW59678   2.459   5.415   6.560  0.1236  0.3804  0.2154
18929SOL    HW159679   2.372   5.453   6.548 -0.5599 -0.8653  0.9608
18929SOL    HW259680   2.453   5.329   6.519  0.2173 -0.6760  2.2511
18930SOL     OW59681   7.402   2.131   5.350  0.1555 -0.0803  1.0241
18930SOL    HW159682   7.473   2.114   5.288  0.4590  2.4839  0.5654
18930SOL    HW259683   7.438   2.102   5.434  1.2923  0.0734  0.6215
18931SOL     OW59684   6.208   8.047   7.871 -0.3474 -0.0770 -0.0252
18931SOL    HW159685   6.277   8.000   7.824 -1.4947 -1.1789 -0.6676
18931SOL    HW259686   6.195   8.127   7.819  1.3218  0.7900  0.8382
18932SOL     OW59687   7.946   0.020   6.121 -0.0593  0.1907 -0.6689
18932SOL    HW159688   7.868   0.042   6.172 -1.1432 -0.7169 -1.8965
18932SOL    HW259689   7.976  -0.063   6.158  0.3579  0.5488 -0.1842
18933SOL     OW59690   3.293   1.846   2.843 -0.0273 -0.5362  0.0750
18933SOL    HW159691   3.339   1.928   2.858  0.3990 -0.7019 -0.3127
18933SOL    HW259692   3.208   1.873   2.807  0.7370 -0.3039 -1.6412
18934SOL     OW59693   6.046   2.391   8.868 -0.2653 -0.0087 -0.0591
18934SOL    HW159694   6.006   2.440   8.940  0.9152  1.2059 -0.1982
18934SOL    HW259695   6.131   2.432   8.855  1.0562 -2.5095  0.2245
18935SOL     OW59696   7.061   3.014   1.348  0.1871  0.6999 -0.1177
18935SOL    HW159697   7.127   3.069   1.307 -0.2215  0.0969 -1.6348
18935SOL    HW259698   7.105   2.976   1.424  1.2862  1.0529 -0.5598
18936SOL     OW59699   1.135   9.490   7.711  0.2399 -0.8348  0.1980
18936SOL    HW159700   1.160   9.501   7.619 -0.2117 -2.0154 -0.0814
18936SOL    HW259701   1.089   9.572   7.733  0.4307 -0.5059 -0.5996
18937SOL     OW59702   4.140   0.720   9.367  0.0763 -0.3974 -0.1189
18937SOL    HW159703   4.169   0.804   9.330  1.3535 -1.3320 -1.2981
18937SOL    HW259704   4.073   0.745   9.432  1.4048  1.6323  0.5693
18938SOL     OW59705   3.746   4.846   5.098  0.5696  0.2510  0.5352
18938SOL    HW159706   3.702   4.811   5.175 -1.2011 -2.3099 -1.4750
18938SOL    HW259707   3.839   4.850   5.123  0.6420 -4.0551  1.7422
18939SOL     OW59708   4.886   3.475   7.549  0.1776  0.0559 -0.2938
18939SOL    HW159709   4.969   3.502   7.509 -0.6642  0.8730 -1.5815
18939SOL    HW259710   4.864   3.393   7.506  0.6274 -0.5203  0.5404
18940SOL     OW59711   7.820   8.612   3.350 -0.1437  0.0513 -0.9125
18940SOL    HW159712   7.895   8.568   3.390 -1.1259 -0.0747  0.8905
18940SOL    HW259713   7.796   8.555   3.277  0.9909 -0.3332 -1.0171
18941SOL     OW59714   3.476   6.870   7.930  0.6436 -0.1972  0.5732
18941SOL    HW159715   3.538   6.800   7.909 -1.3824 -0.9284 -3.9980
18941SOL    HW259716   3.390   6.832   7.911 -1.0065  2.0096  2.9652
18942SOL     OW59717   1.443   5.881   4.471  0.3391 -0.0646 -0.6480
18942SOL    HW159718   1.401   5.965   4.451  1.9156  0.7638 -0.6716
18942SOL    HW259719   1.433   5.872   4.566 -0.2809 -0.1100 -0.7128
18943SOL     OW59720   9.219   0.238   0.026  0.3158  0.1904  0.1246
18943SOL    HW159721   9.203   0.153   0.066 -0.3749  0.1449 -0.2352
18943SOL    HW259722   9.301   0.228  -0.021 -0.4005 -0.6746 -0.9859
18944SOL     OW59723   7.511   5.184   5.918  0.1766  0.3303 -0.2607
18944SOL    HW159724   7.576   5.231   5.969  0.8761 -0.2713 -0.5701
18944SOL    HW259725   7.438   5.171   5.978  1.1271 -0.6973  0.7436
18945SOL     OW59726   1.707   7.632   1.562 -0.2886  0.1110 -0.4285
18945SOL    HW159727   1.631   7.643   1.504 -0.3113  0.8119 -0.2795
18945SOL    HW259728   1.680   7.673   1.644 -0.1384 -0.5934 -0.0222
18946SOL     OW59729   8.524   7.539   8.671  0.8879  0.6157  0.4661
18946SOL    HW159730   8.475   7.578   8.599  1.0086  1.4706  0.8333
18946SOL    HW259731   8.505   7.445   8.666  1.3800  0.5782 -1.0499
18947SOL     OW59732   5.768   4.582   0.430  0.4867  0.2987 -0.2883
18947SOL    HW159733   5.693   4.617   0.381  1.6121  3.1219 -0.1589
18947SOL    HW259734   5.824   4.543   0.363 -0.2281 -0.2292 -0.5995
18948SOL     OW59735   9.083   9.420   1.859 -0.4961  0.4158 -0.2456
18948SOL    HW159736   9.097   9.514   1.872  0.8380  0.4378 -1.5838
18948SOL    HW259737   9.160   9.379   1.900 -0.1080  0.0500 -1.3083
18949SOL     OW59738   4.204   9.135   0.598 -0.0381 -0.4993  0.5428
18949SOL    HW159739   4.257   9.084   0.660  1.1518 -0.4956 -0.4347
18949SOL    HW259740   4.221   9.095   0.513 -2.4930 -1.1916  0.2961
18950SOL     OW59741   4.617   8.605   2.378 -0.3431 -0.1470 -0.4595
18950SOL    HW159742   4.668   8.679   2.410  0.3022 -0.3988 -0.8763
18950SOL    HW259743   4.607   8.548   2.454  2.8620 -1.6984 -1.0169
18951SOL     OW59744   3.032   9.167   3.845  0.6960 -0.8489 -0.3791
18951SOL    HW159745   3.096   9.169   3.775 -0.4857  0.9996 -1.5023
18951SOL    HW259746   3.040   9.252   3.889 -0.3493 -0.9363  0.0351
18952SOL     OW59747   1.166   1.771   3.696 -0.5744 -0.7914 -0.1321
18952SOL    HW159748   1.091   1.731   3.651 -1.2031 -2.2891  2.1236
18952SOL    HW259749   1.149   1.865   3.690 -2.6088 -1.0855  0.2175
18953SOL     OW59750   9.406   7.233   2.213 -0.0520  0.7595  0.1048
18953SOL    HW159751   9.373   7.309   2.165 -1.0163 -0.1444 -0.6894
18953SOL    HW259752   9.328   7.188   2.244  0.4535 -0.6010 -0.5104
18954SOL     OW59753   5.939   4.323   3.875 -0.4816  0.7107  0.0906
18954SOL    HW159754   6.030   4.354   3.876  0.5339 -1.7427 -2.5580
18954SOL    HW259755   5.945   4.233   3.906 -2.2644  0.9007  1.0787
18955SOL     OW59756   3.474   6.848   5.527 -0.1605 -0.0304 -0.0334
18955SOL    HW159757   3.524   6.805   5.596  0.2499  1.7160  0.8202
18955SOL    HW259758   3.394   6.796   5.519 -0.2436 -0.2384  1.8006
18956SOL     OW59759   0.684   0.209   9.267  0.0804 -0.0361  0.1397
18956SOL    HW159760   0.729   0.140   9.219  1.2329 -0.2429  1.4406
18956SOL    HW259761   0.694   0.287   9.213 -0.6047 -0.7153 -0.9998
18957SOL     OW59762   0.410   0.213   6.712  0.5438 -0.1228  0.8191
18957SOL    HW159763   0.403   0.124   6.677 -4.2754  0.2461  0.1578
18957SOL    HW259764   0.372   0.208   6.799 -1.2266  1.4468  0.2039
18958SOL     OW59765   0.631   4.521   1.304 -0.1553  0.0416 -0.8481
18958SOL    HW159766   0.685   4.442   1.300  1.2376  0.9675 -1.1758
18958SOL    HW259767   0.544   4.492   1.278  0.2604 -1.4262 -0.7034
18959SOL     OW59768   7.819   4.739   3.070 -0.5690 -0.0378  0.0878
18959SOL    HW159769   7.824   4.712   2.978 -0.1343  1.6055 -0.4053
18959SOL    HW259770   7.807   4.658   3.118 -0.3819 -0.9791 -1.3901
18960SOL     OW59771   2.390   1.050   3.721  0.3071  0.2647  0.1130
18960SOL    HW159772   2.409   0.958   3.707  0.9935  0.2971  0.7496
18960SOL    HW259773   2.388   1.060   3.817 -1.1226  0.6402  0.0749
18961SOL     OW59774   3.997   1.591   2.896  0.3658 -0.1209  0.0918
18961SOL    HW159775   4.029   1.541   2.971 -1.3995  0.8042  1.5327
18961SOL    HW259776   3.918   1.634   2.928  0.3230  1.4136 -1.9118
18962SOL     OW59777   8.771   7.265   6.726 -0.1286  0.0440 -0.3565
18962SOL    HW159778   8.788   7.219   6.808 -0.5749 -0.6207 -0.6342
18962SOL    HW259779   8.701   7.327   6.747  0.5494  0.7083  0.0436
18963SOL     OW59780   3.213   3.588   6.370  0.3872 -0.1158  0.7490
18963SOL    HW159781   3.278   3.561   6.306  0.2426  1.5954 -0.1669
18963SOL    HW259782   3.252   3.566   6.455  1.2993 -0.8779  0.1533
18964SOL     OW59783   8.356   0.519   1.060 -0.0704  0.5079 -0.3735
18964SOL    HW159784   8.321   0.608   1.052 -2.0975 -0.3132 -1.3531
18964SOL    HW259785   8.375   0.492   0.970 -0.6411 -0.4697 -0.2194
18965SOL     OW59786   4.959   2.982   5.134  0.5925  0.1068 -0.6870
18965SOL    HW159787   5.040   2.989   5.185  1.3902  1.9869 -2.0872
18965SOL    HW259788   4.954   2.890   5.111  0.3309 -0.7828  2.4648
18966SOL     OW59789   0.726   1.768   4.967  0.4059 -0.6644  0.6611
18966SOL    HW159790   0.694   1.691   4.921  2.5738 -1.7877  0.9150
18966SOL    HW259791   0.717   1.746   5.060 -0.1850 -0.0481  0.7619
18967SOL     OW59792   6.439   5.616   7.186  0.0821 -0.0964 -0.1729
18967SOL    HW159793   6.402   5.556   7.121 -1.1516  0.3697  0.0748
18967SOL    HW259794   6.422   5.703   7.150  0.3019  0.1457  0.3006
18968SOL     OW59795   2.200   1.103   9.197  0.0996 -0.3186 -0.2614
18968SOL    HW159796   2.144   1.111   9.274 -2.4185  0.2858 -2.0698
18968SOL    HW259797   2.173   1.021   9.156  1.2246 -0.4904 -0.7162
18969SOL     OW59798   8.426   4.800   1.219 -0.2412  0.0857 -0.3487
18969SOL    HW159799   8.502   4.815   1.276  0.5570 -0.8807 -1.1003
18969SOL    HW259800   8.457   4.735   1.155 -2.1246 -1.3820  0.1319
18970SOL     OW59801   0.336   0.568   1.830 -0.2165  0.1643  0.8634
18970SOL    HW159802   0.426   0.598   1.842  0.0380 -0.0959 -0.3586
18970SOL    HW259803   0.344   0.477   1.800 -0.8894  0.1539  0.6968
18971SOL     OW59804   0.871   9.134   4.497 -0.2664  0.2266 -0.1119
18971SOL    HW159805   0.862   9.073   4.424  0.2036 -0.1473  0.1330
18971SOL    HW259806   0.841   9.218   4.463 -0.2609  0.0038 -0.6687
18972SOL     OW59807   8.604   5.559   5.893  0.2315  0.6002 -0.7070
18972SOL    HW159808   8.666   5.496   5.930  0.2295  1.1075  0.1808
18972SOL    HW259809   8.644   5.645   5.908 -1.4349  1.0846  1.4964
18973SOL     OW59810   0.417   6.593   4.362 -0.0314 -0.0866 -0.0040
18973SOL    HW159811   0.469   6.615   4.284 -2.2457 -1.0824 -1.8934
18973SOL    HW259812   0.340   6.649   4.356 -1.7371 -2.3488 -0.3298
18974SOL     OW59813   0.360   1.815   2.379  0.3485  0.1221  0.0972
18974SOL    HW159814   0.424   1.882   2.405  0.9748 -0.6133  0.4999
18974SOL    HW259815   0.369   1.810   2.284  1.0859 -0.1479  0.1709
18975SOL     OW59816   3.628   3.316   4.473  0.0091 -0.2085 -0.5174
18975SOL    HW159817   3.624   3.255   4.399 -0.6176 -0.1589 -0.5267
18975SOL    HW259818   3.600   3.264   4.548 -0.7988  0.1376 -0.5721
18976SOL     OW59819   6.838   2.135   3.605 -1.1039 -0.3200 -0.2320
18976SOL    HW159820   6.879   2.095   3.682 -1.8495 -0.5137  0.0761
18976SOL    HW259821   6.810   2.222   3.635 -1.8790 -0.5969 -0.1086
18977SOL     OW59822   8.174   6.916   8.761 -0.1846  0.0941 -0.5326
18977SOL    HW159823   8.084   6.887   8.778  0.4557 -1.3485  0.5852
18977SOL    HW259824   8.165   7.009   8.740 -1.6830  0.7799  2.5355
18978SOL     OW59825   5.915   8.836   2.524  0.0117 -0.3050 -0.2240
18978SOL    HW159826   5.872   8.777   2.587  0.0880 -2.2378 -1.9026
18978SOL    HW259827   5.991   8.870   2.571  0.5447 -2.3649  0.4847
18979SOL     OW59828   4.892   8.675   9.333 -0.2544 -0.1389 -0.5312
18979SOL    HW159829   4.825   8.728   9.289 -0.4142 -0.8533 -1.1792
18979SOL    HW259830   4.918   8.611   9.266  0.8859 -0.0341 -0.2005
18980SOL     OW59831   4.395   9.244   7.430  0.5009  0.3517  0.4943
18980SOL    HW159832   4.468   9.207   7.381  0.3117  1.8808 -1.0623
18980SOL    HW259833   4.317   9.223   7.378  0.1104  0.6921  0.9260
18981SOL     OW59834   2.091   8.063   5.176 -0.1106 -0.1848 -0.1496
18981SOL    HW159835   2.131   8.075   5.090  0.4984 -0.6867  0.0551
18981SOL    HW259836   2.123   8.137   5.228 -0.5609  0.1750 -0.3783
18982SOL     OW59837   5.344   8.614   1.662  0.2495  0.2703  0.8065
18982SOL    HW159838   5.291   8.581   1.734 -0.1826  0.1488  0.4401
18982SOL    HW259839   5.280   8.635   1.593  0.3243  3.2637  1.5285
18983SOL     OW59840   8.584   4.815   8.850 -0.1661  0.0051 -0.0656
18983SOL    HW159841   8.606   4.870   8.775  0.5252 -0.8580 -0.5055
18983SOL    HW259842   8.497   4.845   8.878 -1.0228 -0.5422 -2.0153
18984SOL     OW59843   6.752   1.925   1.430 -0.2875 -0.2892 -0.1584
18984SOL    HW159844   6.759   2.008   1.382  1.2040  0.1440  0.7269
18984SOL    HW259845   6.675   1.936   1.486  0.4588  0.9205  0.6759
18985SOL     OW59846   2.911   0.401   5.486 -0.6543 -0.3212 -0.1245
18985SOL    HW159847   2.993   0.415   5.533 -1.4238  1.1844  0.8684
18985SOL    HW259848   2.937   0.390   5.395  0.7602 -1.6533  0.3904
18986SOL     OW59849   2.604   7.402   0.383  0.4014  0.0343 -0.3217
18986SOL    HW159850   2.656   7.323   0.370  0.4712 -0.3960  2.0482
18986SOL    HW259851   2.642   7.467   0.324  1.7693 -1.0697 -0.6955
18987SOL     OW59852   2.058   2.256   8.299 -0.1259  0.3868 -0.6712
18987SOL    HW159853   2.121   2.272   8.229 -0.6185 -0.9449 -1.4694
18987SOL    HW259854   1.998   2.331   8.296 -0.0930  0.3896 -1.6399
18988SOL     OW59855   0.069   3.629   5.882  0.0484 -0.3665  0.3589
18988SOL    HW159856   0.153   3.672   5.898 -0.1991  0.5856 -0.7473
18988SOL    HW259857   0.039   3.666   5.799 -0.9376 -1.5294  0.1758
18989SOL     OW59858   0.519   7.912   6.186 -0.6663  0.4183  0.0192
18989SOL    HW159859   0.482   7.902   6.273 -1.2960 -1.5043 -0.4269
18989SOL    HW259860   0.567   7.831   6.170  1.8874  1.8996 -0.3373
18990SOL     OW59861   8.960   2.288   9.252  0.0938 -0.1865 -0.5164
18990SOL    HW159862   8.942   2.214   9.194  2.1146 -1.7464  0.6940
18990SOL    HW259863   8.959   2.249   9.340  3.0578  0.7714  0.0328
18991SOL     OW59864   3.400   3.091   9.597 -0.6353 -0.7112  0.3836
18991SOL    HW159865   3.454   3.150   9.545 -0.1485 -0.9959  0.5651
18991SOL    HW259866   3.445   3.007   9.593 -2.4996 -1.7382 -1.8389
18992SOL     OW59867   2.264   2.361   5.013  0.3985  0.3773 -0.3046
18992SOL    HW159868   2.234   2.271   4.998 -0.3319  0.4626  0.5198
18992SOL    HW259869   2.277   2.366   5.108 -0.7001  1.4599 -0.1800
18993SOL     OW59870   2.947   2.823   3.438 -0.1193 -0.7203  0.0385
18993SOL    HW159871   3.017   2.765   3.467 -0.8849 -0.5268  2.5276
18993SOL    HW259872   2.866   2.775   3.457 -0.7161  0.2069 -0.0721
18994SOL     OW59873   6.579   5.755   7.409  0.1178  0.2887  0.1318
18994SOL    HW159874   6.555   5.842   7.379 -1.2056 -0.0765  0.0441
18994SOL    HW259875   6.520   5.696   7.361  1.2052 -0.6809 -0.0563
18995SOL     OW59876   1.646   8.376   3.433  0.6260 -0.4157 -0.2365
18995SOL    HW159877   1.644   8.446   3.368 -1.9180 -1.2041 -1.1438
18995SOL    HW259878   1.559   8.380   3.474  0.7194 -2.4674  0.2619
18996SOL     OW59879   5.810   5.995   6.758  0.2932 -0.2301 -0.4799
18996SOL    HW159880   5.777   6.083   6.775  1.8407  0.2315  0.2995
18996SOL    HW259881   5.782   5.975   6.669 -0.6035  0.7895 -0.4451
18997SOL     OW59882   2.149   0.222   4.465 -0.2571  0.5071  0.5126
18997SOL    HW159883   2.179   0.169   4.539 -0.0878  0.4133  0.3771
18997SOL    HW259884   2.087   0.166   4.418  0.4482  0.1649 -0.0296
18998SOL     OW59885   6.955   6.370   9.418  0.4119  0.1016 -0.3018
18998SOL    HW159886   7.002   6.382   9.336  0.5973 -1.1477 -0.3897
18998SOL    HW259887   7.018   6.392   9.486  0.9120 -0.8569 -0.4423
18999SOL     OW59888   2.972   2.753   0.450  0.5510  0.0107  0.0423
18999SOL    HW159889   2.931   2.775   0.533  1.5867 -0.3373  0.6700
18999SOL    HW259890   3.064   2.735   0.473  0.2138 -3.1950 -0.6604
19000SOL     OW59891   4.200   2.992   8.893  0.5307  0.3281  0.3708
19000SOL    HW159892   4.207   3.079   8.934 -1.8064  0.7968 -0.0961
19000SOL    HW259893   4.122   2.953   8.932 -0.1530 -0.3469 -1.5895
19001SOL     OW59894   0.420   6.576   0.575  0.6594 -0.3948  0.5760
19001SOL    HW159895   0.472   6.647   0.611 -1.1652  1.2640  0.1192
19001SOL    HW259896   0.363   6.548   0.647  0.3629 -0.3895  0.3471
19002SOL     OW59897   6.219   9.291   5.671  0.2906  0.6454 -0.7251
19002SOL    HW159898   6.271   9.248   5.602  0.3583  2.6377 -1.9838
19002SOL    HW259899   6.145   9.329   5.624  1.0904  3.3098 -0.0084
19003SOL     OW59900   7.256   5.448   6.650  0.1098  0.1946  0.1001
19003SOL    HW159901   7.170   5.431   6.688  0.0529 -2.0393 -0.9108
19003SOL    HW259902   7.316   5.447   6.725 -0.8146  3.4298  1.0713
19004SOL     OW59903   9.040   1.267   7.769  0.4891 -0.4273 -0.4613
19004SOL    HW159904   9.051   1.334   7.701 -1.6876 -1.1419 -1.6036
19004SOL    HW259905   9.043   1.184   7.721 -0.3956 -0.9691  0.4036
19005SOL     OW59906   1.136   8.734   0.770 -0.7841  0.1398 -0.9097
19005SOL    HW159907   1.109   8.658   0.822 -0.7034  0.8500  0.1873
19005SOL    HW259908   1.056   8.784   0.757 -0.3804  1.3156  0.8073
19006SOL     OW59909   2.547   7.347   5.641 -0.7547 -0.5235  0.1708
19006SOL    HW159910   2.591   7.386   5.717  0.4399  0.1278 -0.8229
19006SOL    HW259911   2.593   7.264   5.627  0.1815  0.1429 -0.8503
19007SOL     OW59912   3.605   6.619   1.816 -0.0145 -0.0375 -0.2952
19007SOL    HW159913   3.691   6.631   1.776  0.7496 -1.4332  0.8306
19007SOL    HW259914   3.555   6.568   1.752  0.3011  0.0017 -0.5718
19008SOL     OW59915   3.861   1.392   3.262 -0.0470  0.7317  0.0808
19008SOL    HW159916   3.769   1.409   3.243 -0.3771 -1.3242 -0.4449
19008SOL    HW259917   3.874   1.424   3.351 -1.0855  1.6529 -0.0789
19009SOL     OW59918   4.738   3.179   3.703 -0.8267 -0.1474 -0.1480
19009SOL    HW159919   4.766   3.128   3.779 -1.2431  0.5332  0.4761
19009SOL    HW259920   4.743   3.270   3.731 -1.1789  0.1089 -0.8716
19010SOL     OW59921   2.786   4.378   6.620  0.2089  0.0936 -0.5525
19010SOL    HW159922   2.800   4.285   6.636  2.6493 -0.0625 -2.9033
19010SOL    HW259923   2.692   4.385   6.602 -0.4656 -1.4338  1.9263
19011SOL     OW59924   6.850   1.058   1.544  0.0910 -0.5700 -0.9100
19011SOL    HW159925   6.892   1.094   1.622 -0.2122 -1.6624 -0.2256
19011SOL    HW259926   6.780   1.003   1.577 -0.9670  0.0719 -2.0045
19012SOL     OW59927   3.720   9.577   2.754 -0.4626 -0.2878  0.5773
19012SOL    HW159928   3.803   9.619   2.730 -0.6972 -0.8314 -1.3239
19012SOL    HW259929   3.725   9.567   2.849  0.8945  1.2687  0.7211
19013SOL     OW59930   0.161   7.017   2.454  0.4994  0.3573 -0.0267
19013SOL    HW159931   0.196   7.048   2.370 -0.0910 -0.4838 -0.6074
19013SOL    HW259932   0.084   7.072   2.470  1.0294  1.0079  0.3474
19014SOL     OW59933   5.791   1.931   0.760 -0.0728 -0.5329  0.0501
19014SOL    HW159934   5.743   1.942   0.678  0.9227  0.0767 -0.4836
19014SOL    HW259935   5.843   1.852   0.747  0.2287 -0.3320  0.0004
19015SOL     OW59936   0.221   9.544   8.660  0.3261  0.3277  0.4884
19015SOL    HW159937   0.232   9.455   8.694  1.6119 -0.2467 -1.2925
19015SOL    HW259938   0.223   9.534   8.565  0.3481  2.2545  0.2431
19016SOL     OW59939   4.499   6.230   0.127 -0.1486  0.0588  0.1284
19016SOL    HW159940   4.541   6.316   0.125 -1.0306  0.5227  0.8904
19016SOL    HW259941   4.481   6.209   0.036  1.4605 -0.0236 -0.2002
19017SOL     OW59942   1.208   7.793   4.347 -0.5040 -0.0741 -0.4954
19017SOL    HW159943   1.238   7.718   4.398  0.3300 -0.5100 -1.5906
19017SOL    HW259944   1.113   7.796   4.363  0.0211  1.4587  3.1771
19018SOL     OW59945   6.114   7.349   3.245 -0.4653 -0.2279  0.0350
19018SOL    HW159946   6.207   7.337   3.227 -0.6900 -1.7366 -0.3048
19018SOL    HW259947   6.083   7.409   3.178  0.2885  0.4013  0.2426
19019SOL     OW59948   7.651   9.213   1.066  0.2687  0.0478  0.0994
19019SOL    HW159949   7.589   9.144   1.089  0.3694  0.3755  1.4494
19019SOL    HW259950   7.596   9.288   1.042  0.1264  0.3061  1.1956
19020SOL     OW59951   3.000   4.393   7.742 -0.3527  0.4324 -0.3025
19020SOL    HW159952   3.061   4.466   7.748  1.1383 -0.8974  2.7278
19020SOL    HW259953   3.055   4.318   7.718 -1.5021 -0.1168 -1.3387
19021SOL     OW59954   3.424   9.054   8.144  0.5256 -0.4424 -0.0776
19021SOL    HW159955   3.365   8.981   8.164 -0.8953  1.2496  2.4055
19021SOL    HW259956   3.491   9.051   8.213  1.2672 -0.1826 -0.7639
19022SOL     OW59957   6.942   8.534   2.179  0.0064 -0.3568 -0.3345
19022SOL    HW159958   6.878   8.559   2.246  0.5023 -0.2868  0.1150
19022SOL    HW259959   6.896   8.549   2.096 -0.4866 -0.1071 -0.0239
19023SOL     OW59960   1.514   0.417   4.418 -0.0952 -0.1115  0.1703
19023SOL    HW159961   1.511   0.402   4.513 -1.8949 -1.0183  0.0310
19023SOL    HW259962   1.442   0.478   4.402  0.1909  0.0272 -0.5982
19024SOL     OW59963   2.858   4.523   5.046  0.2694  0.0412  0.0117
19024SOL    HW159964   2.785   4.573   5.011 -0.9794 -1.6902 -0.0011
19024SOL    HW259965   2.871   4.453   4.982  1.0728 -0.4353  0.6786
19025SOL     OW59966   8.590   7.182   0.078  0.2785  0.2119 -0.3618
19025SOL    HW159967   8.550   7.095   0.076  0.1709  0.2007  0.9664
19025SOL    HW259968   8.684   7.165   0.071  0.2582 -0.0242 -0.0980
19026SOL     OW59969   0.469   0.991   8.675 -0.4892 -0.3889 -0.6211
19026SOL    HW159970   0.447   0.902   8.645  0.5326 -0.7782 -0.2610
19026SOL    HW259971   0.563   0.998   8.663 -0.4424  0.3734  0.0856
19027SOL     OW59972   9.300   4.133   9.526  0.5147 -0.1549 -0.4395
19027SOL    HW159973   9.266   4.046   9.546  0.4952 -0.3663 -1.3702
19027SOL    HW259974   9.346   4.123   9.443 -1.5160  1.2158 -1.8039
19028SOL     OW59975   5.568   6.260   6.201 -0.1655  0.3945  0.7270
19028SOL    HW159976   5.639   6.251   6.138 -0.8538  0.3679 -0.0631
19028SOL    HW259977   5.500   6.200   6.169 -1.0816  1.4245  0.6943
19029SOL     OW59978   3.933   5.787   7.075  0.1960  0.0647 -0.0561
19029SOL    HW159979   3.845   5.813   7.104  0.1599  1.0395 -0.9805
19029SOL    HW259980   3.926   5.693   7.059 -0.5158  0.0195  0.4483
19030SOL     OW59981   2.117   1.963   8.303  0.4129 -0.2114 -0.5901
19030SOL    HW159982   2.072   2.045   8.284  0.4822  0.4218  1.6656
19030SOL    HW259983   2.086   1.938   8.390  3.9169 -0.0167  0.8849
19031SOL     OW59984   4.210   0.195   8.148  0.2950 -0.1429 -0.1332
19031SOL    HW159985   4.301   0.189   8.118  0.1580 -1.5788 -0.2907
19031SOL    HW259986   4.213   0.166   8.239  0.1750  1.0198  0.2614
19032SOL     OW59987   4.374   0.408   5.461 -0.5815 -0.1393  0.4867
19032SOL    HW159988   4.295   0.433   5.415 -1.3208 -0.4089  1.5682
19032SOL    HW259989   4.417   0.491   5.483 -0.1640 -0.0169 -0.7460
19033SOL     OW59990   9.549   2.987   4.719  0.5079 -0.4439 -0.3730
19033SOL    HW159991   9.458   2.984   4.691  0.4268  0.7997 -0.2943
19033SOL    HW259992   9.597   3.015   4.642  0.6471  0.1950 -0.0606
19034SOL     OW59993   9.115   1.017   1.465  0.8897  0.1007 -0.6184
19034SOL    HW159994   9.069   0.933   1.460  1.7402 -0.5217  1.0554
19034SOL    HW259995   9.206   0.995   1.448  1.1972  0.5769  0.2981
19035SOL     OW59996   5.380   2.577   5.340  0.0612 -0.5653 -0.4754
19035SOL    HW159997   5.363   2.659   5.294  2.2584  0.5562  0.5509
19035SOL    HW259998   5.422   2.521   5.274 -0.4368 -0.4542 -0.8910
19036SOL     OW59999   8.328   7.002   5.253  0.3532  0.4518 -0.8497
19036SOL    HW160000   8.378   7.030   5.176 -1.5048  0.1109 -2.2886
19036SOL    HW260001   8.307   7.083   5.298  0.0365  0.8565 -1.6875
19037SOL     OW60002   5.089   1.072   7.526 -0.6156  0.4436  0.4247
19037SOL    HW160003   5.137   1.026   7.595 -2.4236 -2.2983 -0.0113
19037SOL    HW260004   5.129   1.042   7.444  0.0830  1.9930  0.1563
19038SOL     OW60005   4.777   3.580   9.425  0.1690  0.2358  0.1552
19038SOL    HW160006   4.770   3.659   9.371  0.3650  1.0351  1.2683
19038SOL    HW260007   4.818   3.610   9.506 -0.8851 -0.7682  1.0892
19039SOL     OW60008   6.249   4.114   8.331  0.1133  0.9095  0.5186
19039SOL    HW160009   6.215   4.160   8.409  3.5022  2.9816  0.9715
19039SOL    HW260010   6.278   4.184   8.273  1.6007 -0.6495 -0.7081
19040SOL     OW60011   4.910   8.953   2.704  0.1737  0.0070  0.0376
19040SOL    HW160012   4.937   9.034   2.747  1.5013 -0.5872  0.3680
19040SOL    HW260013   4.983   8.893   2.718 -0.6226 -1.1293 -0.5380
19041SOL     OW60014   5.133   2.888   8.481 -0.5051 -0.3687 -0.1356
19041SOL    HW160015   5.045   2.875   8.517 -0.0553 -2.9374  0.2588
19041SOL    HW260016   5.183   2.927   8.552 -0.9524 -0.2755  0.1335
19042SOL     OW60017   8.131   7.735   3.663  0.0765  0.0005  0.0059
19042SOL    HW160018   8.200   7.678   3.629  0.1509 -0.0947  0.3134
19042SOL    HW260019   8.064   7.674   3.694 -0.4646  0.0921 -0.9278
19043SOL     OW60020   7.971   4.561   4.118  0.5542 -0.5362 -0.8376
19043SOL    HW160021   7.968   4.492   4.184  1.2299 -0.2987 -0.5522
19043SOL    HW260022   7.936   4.521   4.039 -0.5589 -0.7438 -0.2642
19044SOL     OW60023   0.898   0.559   3.034 -0.5272 -0.4219 -0.3326
19044SOL    HW160024   0.841   0.627   3.071  0.0910  0.8542 -1.6175
19044SOL    HW260025   0.987   0.586   3.060 -0.1625  0.0245 -1.9319
19045SOL     OW60026   7.685   0.866   5.659  0.0768 -0.4197 -0.1494
19045SOL    HW160027   7.759   0.895   5.712  0.6640  2.0517 -2.1180
19045SOL    HW260028   7.611   0.862   5.720  1.5894 -2.2209  1.7127
19046SOL     OW60029   9.319   4.931   6.451 -1.2375  0.2306 -0.0223
19046SOL    HW160030   9.373   4.852   6.456 -1.1954  0.3272  1.4608
19046SOL    HW260031   9.272   4.923   6.367  2.0451  0.8342 -2.1168
19047SOL     OW60032   8.570   6.320   2.590 -0.2187 -0.0255 -0.2223
19047SOL    HW160033   8.488   6.367   2.572 -1.0533 -1.0362  0.7467
19047SOL    HW260034   8.542   6.243   2.639  1.2607 -0.7589 -0.4856
19048SOL     OW60035   5.338   2.131   7.459  0.1851 -0.4307  0.3433
19048SOL    HW160036   5.364   2.207   7.406  0.2686 -0.0353  0.9528
19048SOL    HW260037   5.389   2.059   7.422  0.5790 -0.0678  0.1681
19049SOL     OW60038   4.927   4.566   1.474  0.8120  0.4837 -0.2587
19049SOL    HW160039   4.908   4.541   1.383 -1.7293 -0.5426  0.4719
19049SOL    HW260040   5.006   4.518   1.496 -0.1453 -1.6102 -1.0873
19050SOL     OW60041   9.006   3.361   5.955 -1.0204  0.3551  0.2091
19050SOL    HW160042   8.972   3.404   5.877 -1.4675  0.0996  0.2645
19050SOL    HW260043   9.094   3.397   5.965 -2.5328  4.0723  2.2856
19051SOL     OW60044   4.137   5.003   6.972  0.2812  0.6846 -0.8848
19051SOL    HW160045   4.097   5.082   6.939  1.2595  1.4670 -0.2755
19051SOL    HW260046   4.193   5.033   7.044 -1.1794 -0.8304  0.9913
19052SOL     OW60047   1.677   1.269   4.923 -0.0918 -0.5392  0.0816
19052SOL    HW160048   1.585   1.287   4.943  0.2052 -0.9223  1.9396
19052SOL    HW260049   1.723   1.350   4.946  0.1796 -0.7632  0.3411
19053SOL     OW60050   7.092   1.678   9.210 -0.1227 -0.5326  0.3814
19053SOL    HW160051   7.060   1.595   9.173  0.9887 -0.7879 -0.0388
19053SOL    HW260052   7.019   1.709   9.264 -1.2351 -0.8938 -0.8446
19054SOL     OW60053   9.296   7.719   9.237  0.4444  0.4261 -0.6324
19054SOL    HW160054   9.372   7.760   9.280 -0.6734 -0.6082  2.5759
19054SOL    HW260055   9.327   7.631   9.214  0.7048  0.5983 -0.9639
19055SOL     OW60056   2.939   0.972   6.572 -0.1792  0.2200  0.8928
19055SOL    HW160057   2.843   0.972   6.570 -0.1692  0.0769  0.2924
19055SOL    HW260058   2.965   0.962   6.481  0.4127  0.8466  0.9853
19056SOL     OW60059   8.432   3.754   3.702  0.0654 -0.6307 -0.2781
19056SOL    HW160060   8.521   3.768   3.733 -0.0372  0.7828 -0.5195
19056SOL    HW260061   8.381   3.733   3.780  0.7961 -2.5762 -0.2951
19057SOL     OW60062   9.541   8.343   3.025  0.0854  0.3762 -0.0703
19057SOL    HW160063   9.556   8.420   2.971  0.3682  0.1359 -0.3335
19057SOL    HW260064   9.473   8.294   2.980 -0.4162  0.6936  0.3298
19058SOL     OW60065   6.543   5.318   3.723 -0.6828  0.8348 -0.3752
19058SOL    HW160066   6.588   5.362   3.796  0.0437  0.6487 -0.7014
19058SOL    HW260067   6.549   5.381   3.651 -0.2484  0.4973 -0.6434
19059SOL     OW60068   1.517   6.576   2.522 -0.5373 -0.0665  0.0576
19059SOL    HW160069   1.513   6.508   2.590 -1.0118 -0.1836 -0.0805
19059SOL    HW260070   1.587   6.635   2.550  0.7358 -1.2767 -0.4365
19060SOL     OW60071   7.018   0.631   7.626 -0.6567 -0.6075 -0.0448
19060SOL    HW160072   7.053   0.692   7.560  0.9868  0.6332  1.8768
19060SOL    HW260073   7.017   0.546   7.581  0.7841  0.1062 -1.5547
19061SOL     OW60074   5.058   9.269   5.383 -0.6498  0.2867 -0.3051
19061SOL    HW160075   5.051   9.174   5.374  0.5091  0.0302  1.1464
19061SOL    HW260076   5.098   9.282   5.468  0.7543  2.0390 -1.1694
19062SOL     OW60077   8.657   2.885   1.860  0.4846 -0.1657 -1.0075
19062SOL    HW160078   8.638   2.966   1.907  0.5171 -1.1532  0.7990
19062SOL    HW260079   8.719   2.839   1.916 -0.6942 -2.1167 -1.2101
19063SOL     OW60080   7.432   8.398   8.239  0.9695 -0.4967 -0.1824
19063SOL    HW160081   7.502   8.450   8.198 -0.9185  0.5387 -2.3332
19063SOL    HW260082   7.367   8.388   8.170 -1.8030  0.1013  2.1664
19064SOL     OW60083   4.655   9.351   7.163 -0.4117 -0.1938  0.6646
19064SOL    HW160084   4.652   9.257   7.178  0.5590 -0.5129 -0.9236
19064SOL    HW260085   4.565   9.375   7.142 -0.2602 -1.2537 -1.4144
19065SOL     OW60086   4.251   8.577   8.778  0.7768  0.4529 -0.9760
19065SOL    HW160087   4.337   8.537   8.790  0.4903  0.4522  1.6870
19065SOL    HW260088   4.189   8.507   8.796  0.2465  0.9663 -0.7714
19066SOL     OW60089   2.094   5.214   2.035  0.3436  0.0221  0.7481
19066SOL    HW160090   2.147   5.264   2.097 -0.4513  2.7542 -0.6286
19066SOL    HW260091   2.140   5.131   2.026  3.1585  1.4094  1.3038
19067SOL     OW60092   6.807   5.895   8.586  0.0285  0.4559  0.0666
19067SOL    HW160093   6.856   5.861   8.661 -2.4002 -1.1308  1.0831
19067SOL    HW260094   6.861   5.873   8.510  2.1530  1.3121  1.2421
19068SOL     OW60095   1.887   3.911   6.223 -0.6207  0.3742 -0.0227
19068SOL    HW160096   1.937   3.991   6.241 -1.2775  0.7182  0.2988
19068SOL    HW260097   1.923   3.879   6.140 -0.6719  1.2687 -0.4103
19069SOL     OW60098   2.989   9.081   3.021  0.0610 -0.6721 -0.0063
19069SOL    HW160099   3.012   9.160   2.973  0.4843 -1.2745 -0.8225
19069SOL    HW260100   2.932   9.111   3.092 -0.7111  0.2310 -0.9831
19070SOL     OW60101   3.063   3.248   5.288  0.1396 -0.9901 -0.8360
19070SOL    HW160102   3.133   3.238   5.352 -0.3261  0.5302 -0.0294
19070SOL    HW260103   3.023   3.333   5.309 -2.4414 -2.1351 -0.7597
19071SOL     OW60104   5.776   0.926   5.234  0.2724 -0.3403 -0.5958
19071SOL    HW160105   5.743   0.883   5.313  1.1399  0.1197  0.0364
19071SOL    HW260106   5.768   1.020   5.254 -1.1928 -0.1663 -1.7844
19072SOL     OW60107   6.834   0.020   1.867 -0.2275  0.3469 -0.1391
19072SOL    HW160108   6.854  -0.042   1.796  0.5110 -1.8859  1.8587
19072SOL    HW260109   6.742   0.005   1.886 -0.7486  1.7996 -1.3172
19073SOL     OW60110   8.517   1.076   3.287 -0.3060  0.4352 -0.1612
19073SOL    HW160111   8.443   1.024   3.255 -0.4446  0.0406  0.7668
19073SOL    HW260112   8.489   1.167   3.277 -1.3402  0.2848  1.0993
19074SOL     OW60113   8.004   0.514   0.233  0.0693  0.0592 -0.0666
19074SOL    HW160114   8.049   0.491   0.152 -0.5495 -0.4298 -0.2860
19074SOL    HW260115   7.970   0.430   0.266 -1.6284  0.5209 -0.5110
19075SOL     OW60116   7.472   0.598   6.095 -0.1217 -0.3727 -0.1855
19075SOL    HW160117   7.509   0.522   6.139 -1.0074 -0.3841  0.5661
19075SOL    HW260118   7.424   0.644   6.164 -0.0656  0.5660 -0.7566
19076SOL     OW60119   3.730   2.641   0.507  0.2170 -0.0046  0.2469
19076SOL    HW160120   3.677   2.716   0.533 -1.9982 -1.4989  0.2885
19076SOL    HW260121   3.756   2.661   0.417  2.8432  2.4116  1.3677
19077SOL     OW60122   3.631   8.467   0.249  0.2472 -0.0396  0.2694
19077SOL    HW160123   3.552   8.420   0.223 -1.6841  2.7650  0.5727
19077SOL    HW260124   3.677   8.485   0.166 -0.3467 -0.2010 -0.0969
19078SOL     OW60125   3.502   4.341   8.297  0.1924  0.0941  0.7644
19078SOL    HW160126   3.594   4.362   8.284  0.0076  0.3512 -0.1707
19078SOL    HW260127   3.455   4.413   8.255 -0.4558 -1.8462 -2.0939
19079SOL     OW60128   6.337   7.299   2.457 -0.7146 -0.1577 -0.8400
19079SOL    HW160129   6.408   7.339   2.507 -0.9963  0.9227 -1.2886
19079SOL    HW260130   6.372   7.214   2.430 -0.8418 -1.1421  1.8646
19080SOL     OW60131   6.942   8.978   2.330  0.7619  0.0988 -0.2464
19080SOL    HW160132   7.004   8.980   2.258 -1.7800 -0.5007 -2.5948
19080SOL    HW260133   6.934   9.070   2.357  0.7250  0.5217 -1.6619
19081SOL     OW60134   3.421   4.133   2.801  0.8421 -0.4367 -0.0048
19081SOL    HW160135   3.349   4.088   2.845  0.1990  0.4658 -0.0892
19081SOL    HW260136   3.443   4.205   2.861 -0.4438  1.1743 -1.3802
19082SOL     OW60137   3.960   2.466   2.698 -0.2749 -0.0519 -0.0239
19082SOL    HW160138   3.951   2.371   2.686 -2.0336  0.0070  0.5125
19082SOL    HW260139   3.992   2.498   2.614 -1.9168 -0.8598 -0.9943
19083SOL     OW60140   3.709   3.007   4.066  0.5881  0.1167  0.0366
19083SOL    HW160141   3.776   3.071   4.042 -0.3957  1.8740  1.6468
19083SOL    HW260142   3.639   3.021   4.003  0.1884  0.9853  0.6549
19084SOL     OW60143   0.891   4.787   7.645 -0.3783  0.5539  0.6089
19084SOL    HW160144   0.865   4.878   7.659 -1.4068  0.4444 -0.4387
19084SOL    HW260145   0.985   4.791   7.629 -0.6298  1.6185 -0.7964
19085SOL     OW60146   8.335   2.598   2.923  0.0937  0.1623 -0.6687
19085SOL    HW160147   8.401   2.629   2.860  0.1454  1.5703  0.0425
19085SOL    HW260148   8.386   2.561   2.995  0.0361 -1.3411 -1.3620
19086SOL     OW60149   5.154   5.836   6.334  0.6532  0.7193  0.2610
19086SOL    HW160150   5.142   5.807   6.425  0.6794 -1.7345 -0.4231
19086SOL    HW260151   5.249   5.834   6.320  0.6015  0.0609 -0.0749
19087SOL     OW60152   3.907   5.606   1.846 -0.0895 -0.1033  0.1818
19087SOL    HW160153   3.849   5.544   1.802 -0.3558 -1.1146  1.8636
19087SOL    HW260154   3.982   5.615   1.788 -1.8893  1.3054 -2.0962
19088SOL     OW60155   2.217   3.995   1.733 -0.2983  0.0830 -0.2603
19088SOL    HW160156   2.217   3.935   1.658 -1.1151  0.1311 -0.3070
19088SOL    HW260157   2.212   4.082   1.694 -1.3299  0.0859 -0.1497
19089SOL     OW60158   4.700   1.366   9.326  0.2021 -0.1588 -0.1519
19089SOL    HW160159   4.629   1.332   9.272 -1.3663 -0.0315  1.7213
19089SOL    HW260160   4.656   1.404   9.402  2.2949 -0.3519  1.2332
19090SOL     OW60161   8.815   1.758   5.035 -0.0493  0.2900  0.0095
19090SOL    HW160162   8.726   1.726   5.020 -0.2055  0.7201  0.0280
19090SOL    HW260163   8.871   1.692   4.993 -0.3917  0.2596 -0.4064
19091SOL     OW60164   8.748   1.532   9.305  0.2220 -0.3867  0.3735
19091SOL    HW160165   8.769   1.532   9.212 -0.4247 -1.1150  0.2192
19091SOL    HW260166   8.804   1.465   9.343 -0.5752 -1.1393  0.2469
19092SOL     OW60167   3.975   4.389   0.965  1.0642  0.4569  0.0796
19092SOL    HW160168   4.017   4.456   0.912 -0.3696 -0.6660 -2.6760
19092SOL    HW260169   4.038   4.317   0.969  0.5953 -0.1030 -1.6327
19093SOL     OW60170   3.620   4.631   3.488 -0.1770 -0.2848 -0.0563
19093SOL    HW160171   3.563   4.606   3.561  2.3319 -1.2007  1.6938
19093SOL    HW260172   3.656   4.548   3.456 -0.8890  0.1420 -2.1322
19094SOL     OW60173   9.069   9.050   2.031 -0.1689  0.0556 -0.0101
19094SOL    HW160174   9.066   9.101   1.950  1.2563 -0.0198 -0.1256
19094SOL    HW260175   9.046   8.961   2.004  1.1570 -0.1528 -0.5029
19095SOL     OW60176   1.631   2.690   9.495 -0.3697  0.7737 -0.4124
19095SOL    HW160177   1.640   2.704   9.589  2.6184 -0.1355 -0.4567
19095SOL    HW260178   1.556   2.631   9.487 -0.7805  0.9893  1.3572
19096SOL     OW60179   9.120   2.998   7.055  0.9243  0.1779  0.5248
19096SOL    HW160180   9.085   3.084   7.078 -2.1779 -0.6690 -0.5736
19096SOL    HW260181   9.178   3.015   6.981  1.4022  1.4333  1.1474
19097SOL     OW60182   5.940   6.259   2.399  0.3472  0.0423 -0.6446
19097SOL    HW160183   5.964   6.170   2.426  0.6620  0.0963 -0.7475
19097SOL    HW260184   5.872   6.245   2.332 -0.4136 -0.0898  0.1343
19098SOL     OW60185   0.819   1.934   6.247 -0.3863 -0.8167  0.2383
19098SOL    HW160186   0.767   1.970   6.175 -0.6206 -3.8222 -1.2374
19098SOL    HW260187   0.761   1.870   6.289  0.9344 -1.6941  0.7957
19099SOL     OW60188   0.925   5.487   5.653 -0.2423  0.6785 -0.4074
19099SOL    HW160189   0.859   5.554   5.632  0.1181  0.9685 -0.6338
19099SOL    HW260190   1.007   5.525   5.623  0.2331  0.8985  1.1015
19100SOL     OW60191   8.800   9.601   8.161 -0.5138 -0.6348  0.3315
19100SOL    HW160192   8.768   9.583   8.249  0.5502 -0.8283  0.6916
19100SOL    HW260193   8.895   9.604   8.170 -0.4251  0.1160 -0.6728
19101SOL     OW60194   2.346   0.163   1.230  0.1319 -0.3465  0.1405
19101SOL    HW160195   2.266   0.111   1.239  0.2249 -0.6943 -0.8862
19101SOL    HW260196   2.361   0.200   1.317 -2.4918  1.7544 -0.1969
19102SOL     OW60197   7.203   2.423   1.428 -0.1622  0.4034  0.4097
19102SOL    HW160198   7.210   2.422   1.332 -0.5954 -1.3903  0.3654
19102SOL    HW260199   7.288   2.392   1.458 -0.4984 -0.4054  0.5479
19103SOL     OW60200   2.078   1.139   7.155 -0.2597 -0.6216  0.0649
19103SOL    HW160201   2.039   1.053   7.138  1.0814 -1.3417  0.4599
19103SOL    HW260202   2.103   1.137   7.247  0.8811 -0.2891 -0.2128
19104SOL     OW60203   4.715   1.160   8.460  0.3741  0.0914 -0.2596
19104SOL    HW160204   4.660   1.233   8.489 -0.1574 -0.4584  0.1437
19104SOL    HW260205   4.677   1.133   8.376 -0.8578 -1.1688  0.6565
19105SOL     OW60206   7.168   2.476   4.622  0.0220  0.0636 -0.3629
19105SOL    HW160207   7.177   2.568   4.648 -1.4415  0.4561 -1.0859
19105SOL    HW260208   7.100   2.478   4.554  1.4104 -1.2969 -1.8629
19106SOL     OW60209   5.086   9.548   7.673  0.0917  0.1973 -0.3400
19106SOL    HW160210   5.029   9.513   7.743 -1.6018  2.6620 -0.3607
19106SOL    HW260211   5.074   9.486   7.601 -1.1597 -0.3322  0.2768
19107SOL     OW60212   1.804   6.013   9.347 -0.1430  0.0015 -0.3407
19107SOL    HW160213   1.778   6.018   9.255  4.0337  0.7457 -1.6821
19107SOL    HW260214   1.810   6.104   9.375 -0.2506 -0.1888  0.3082
19108SOL     OW60215   0.515   2.535   0.868 -0.5311 -0.3064 -0.3572
19108SOL    HW160216   0.462   2.479   0.924  0.5604  0.7908  1.8908
19108SOL    HW260217   0.517   2.619   0.913 -0.1520  0.8672 -2.4202
19109SOL     OW60218   0.779   7.307   3.737  0.4116  0.1052 -0.3449
19109SOL    HW160219   0.725   7.269   3.668 -2.1428  0.4406  1.3109
19109SOL    HW260220   0.717   7.355   3.792  2.8934  3.5279 -0.1974
19110SOL     OW60221   8.259   2.156   0.337 -0.0125 -0.2679  0.7380
19110SOL    HW160222   8.259   2.070   0.380  1.5467 -1.1477 -0.8969
19110SOL    HW260223   8.280   2.137   0.246 -0.4726  1.7985  0.1627
19111SOL     OW60224   9.263   0.639   7.120 -0.0015  0.4038  0.4575
19111SOL    HW160225   9.273   0.573   7.051 -0.8450 -0.7408  1.4030
19111SOL    HW260226   9.184   0.613   7.167  0.0292  1.7167  1.2811
19112SOL     OW60227   7.869   4.354   3.383 -0.0732  0.4909  0.6694
19112SOL    HW160228   7.946   4.391   3.427  0.3389  0.7405 -0.2334
19112SOL    HW260229   7.827   4.301   3.450  1.5649 -0.6479  0.8743
19113SOL     OW60230   9.392   4.775   1.285 -0.4118 -0.2467 -0.1997
19113SOL    HW160231   9.444   4.735   1.215 -1.5823 -3.3384  0.5230
19113SOL    HW260232   9.306   4.733   1.278 -0.9434  0.2683  2.3028
19114SOL     OW60233   1.084   2.930   2.559 -0.0738  0.0101 -0.1418
19114SOL    HW160234   1.158   2.933   2.621 -1.0904 -0.4383  1.1373
19114SOL    HW260235   1.016   2.882   2.606 -0.2196 -2.1670 -2.3691
19115SOL     OW60236   6.719   3.467   6.563 -0.4971 -0.1137  0.1689
19115SOL    HW160237   6.674   3.413   6.628 -1.0274  0.2522  0.1127
19115SOL    HW260238   6.670   3.549   6.563 -0.6033 -0.1680 -0.8084
19116SOL     OW60239   3.493   7.743   0.005 -0.5765  0.6611  0.1290
19116SOL    HW160240   3.426   7.812  -0.000  0.1585  1.4387  0.7029
19116SOL    HW260241   3.472   7.697   0.087 -0.4869  0.8327  0.2510
19117SOL     OW60242   0.025   2.110   7.138 -0.2378 -0.3284 -0.1938
19117SOL    HW160243  -0.025   2.037   7.103 -1.1390  0.2371 -0.1188
19117SOL    HW260244   0.030   2.172   7.065 -0.0269 -0.1942 -0.0643
19118SOL     OW60245   5.955   3.022   8.178  0.3027  0.2418 -0.4697
19118SOL    HW160246   5.967   2.955   8.245  1.7311 -0.0799 -1.0239
19118SOL    HW260247   6.007   2.991   8.103  0.0292  1.3862 -1.1559
19119SOL     OW60248   4.062   0.657   7.903  0.6845 -0.3376  0.3788
19119SOL    HW160249   4.048   0.583   7.963 -1.5314 -1.4482 -1.3536
19119SOL    HW260250   4.150   0.643   7.868  0.0937 -2.6172 -0.3977
19120SOL     OW60251   1.402   3.574   8.876 -0.0930 -0.2339 -0.4250
19120SOL    HW160252   1.337   3.557   8.944  1.4240 -0.5599  1.0133
19120SOL    HW260253   1.486   3.571   8.922  0.9390  0.3948 -2.1717
19121SOL     OW60254   6.752   9.309   8.620  0.5483 -0.0828 -0.0777
19121SOL    HW160255   6.800   9.267   8.690  0.3072  0.4317  0.4078
19121SOL    HW260256   6.661   9.283   8.633  0.4113  0.5001  0.1719
19122SOL     OW60257   1.228   2.910   3.288  0.4069 -0.2579  0.5419
19122SOL    HW160258   1.208   3.002   3.271  1.2002 -0.1082  0.3887
19122SOL    HW260259   1.144   2.865   3.279  0.4362  0.0673 -1.9623
19123SOL     OW60260   7.201   3.268   8.628  0.4957 -0.6245  0.0746
19123SOL    HW160261   7.283   3.220   8.637  0.9785  0.1724 -0.0568
19123SOL    HW260262   7.226   3.360   8.627 -0.3942 -0.3723 -0.0053
19124SOL     OW60263   5.817   8.570   5.084  0.1823 -0.2290 -0.8462
19124SOL    HW160264   5.803   8.477   5.100  0.6091 -0.0938  0.4933
19124SOL    HW260265   5.831   8.577   4.990  0.1547 -1.5193 -0.9617
19125SOL     OW60266   2.707   7.216   3.714 -0.3064 -0.1653 -0.2609
19125SOL    HW160267   2.696   7.268   3.794  2.7986 -0.3837  0.4336
19125SOL    HW260268   2.684   7.277   3.643  1.6232  1.7473  0.6086
19126SOL     OW60269   4.752   7.320   7.361  0.3239 -0.3238 -0.2294
19126SOL    HW160270   4.842   7.347   7.346  0.5344 -0.2894  0.9894
19126SOL    HW260271   4.702   7.402   7.360  0.1366 -0.4185 -1.8109
19127SOL     OW60272   0.798   5.740   8.363  0.0296 -0.0473 -0.0395
19127SOL    HW160273   0.725   5.790   8.400 -0.4246 -1.2652  0.7769
19127SOL    HW260274   0.848   5.804   8.312 -1.4742  0.8650 -0.4251
19128SOL     OW60275   5.636   3.194   1.967  0.8332 -0.5345 -0.0963
19128SOL    HW160276   5.684   3.113   1.985  0.9671 -0.7006 -1.1657
19128SOL    HW260277   5.629   3.198   1.872  1.8372  1.2952 -0.1390
19129SOL     OW60278   5.417   5.693   4.521  0.1110  0.6494 -0.6711
19129SOL    HW160279   5.419   5.722   4.430 -0.9295  1.0018 -0.5996
19129SOL    HW260280   5.407   5.598   4.515  2.3208  0.4000 -0.9073
19130SOL     OW60281   0.448   4.207   8.224 -0.2411 -0.3025 -0.2948
19130SOL    HW160282   0.511   4.280   8.223 -1.3768  0.7203 -1.6163
19130SOL    HW260283   0.502   4.129   8.213  0.8292  0.5546 -1.6003
19131SOL     OW60284   7.311   6.694   8.293  0.3148  0.1354  0.2043
19131SOL    HW160285   7.233   6.642   8.275  1.1502 -1.1080 -0.0101
19131SOL    HW260286   7.374   6.666   8.226  0.7322  1.6131 -0.0603
19132SOL     OW60287   3.423   4.923   6.172  0.4455  0.6331  0.1325
19132SOL    HW160288   3.426   4.947   6.265  2.4155  0.5067  0.1349
19132SOL    HW260289   3.331   4.932   6.148  0.0739  1.7247  1.8196
19133SOL     OW60290   1.681   2.029   7.802  0.6721  0.2423  0.1654
19133SOL    HW160291   1.625   2.096   7.840 -1.0465 -2.1999  2.3164
19133SOL    HW260292   1.623   1.977   7.747  1.3711 -0.8869  0.4548
19134SOL     OW60293   8.999   5.922   5.981  0.3831  0.2254  0.0933
19134SOL    HW160294   9.082   5.945   6.023 -0.7109  0.7180  2.1172
19134SOL    HW260295   8.941   5.995   6.001 -0.3196  0.3452 -2.1070
19135SOL     OW60296   6.939   3.984   8.275 -0.2427 -0.0425  0.0182
19135SOL    HW160297   6.907   3.898   8.246  0.8893 -0.0543 -1.2645
19135SOL    HW260298   6.860   4.039   8.275 -0.8244 -0.8477  0.0069
19136SOL     OW60299   3.844   2.625   3.397  0.4508 -0.1803  0.0179
19136SOL    HW160300   3.918   2.576   3.360  0.6774  1.0309 -1.1916
19136SOL    HW260301   3.864   2.631   3.490  0.9582 -1.4236  0.0124
19137SOL     OW60302   0.214   7.155   2.237  0.6277  0.1206 -0.4911
19137SOL    HW160303   0.218   7.184   2.146  0.3269 -0.7549 -0.7942
19137SOL    HW260304   0.200   7.236   2.287 -2.4258  0.3363 -1.4817
19138SOL     OW60305   2.310   0.219   7.812  0.6974  0.3383 -0.2478
19138SOL    HW160306   2.304   0.268   7.730 -0.8856 -0.0773 -0.4131
19138SOL    HW260307   2.316   0.127   7.784  0.3293  0.2090  0.0984
19139SOL     OW60308   7.464   1.668   8.936  0.0007  0.3282 -0.0347
19139SOL    HW160309   7.522   1.592   8.933 -0.2857  0.0817  0.4876
19139SOL    HW260310   7.391   1.644   8.878  0.2561  0.4971 -0.4242
19140SOL     OW60311   7.699   8.001   5.730 -0.2587 -0.3748 -0.1117
19140SOL    HW160312   7.736   7.954   5.805 -1.8935 -0.4156  0.7323
19140SOL    HW260313   7.733   7.955   5.653 -1.2817 -2.5642  0.6680
19141SOL     OW60314   0.695   2.985   0.971 -0.0112  0.0053 -0.1932
19141SOL    HW160315   0.671   3.066   1.017 -0.9778 -0.0111 -0.6548
19141SOL    HW260316   0.705   3.012   0.880 -1.3313 -0.5643 -0.5265
19142SOL     OW60317   5.981   1.286   1.086  0.2402 -0.0435  0.1885
19142SOL    HW160318   5.915   1.351   1.112 -0.4159 -1.0073  0.9967
19142SOL    HW260319   6.029   1.328   1.014 -0.2290  1.2936  0.6225
19143SOL     OW60320   1.411   0.366   1.823 -0.2187  0.1506 -0.0024
19143SOL    HW160321   1.498   0.376   1.784  0.6335  0.2774  1.7976
19143SOL    HW260322   1.355   0.427   1.776  0.5966 -0.1146 -1.3612
19144SOL     OW60323   4.777   8.272   5.756  0.4962 -0.2467  0.7686
19144SOL    HW160324   4.855   8.269   5.811  0.3936  1.3413  1.0229
19144SOL    HW260325   4.764   8.364   5.736 -1.8639 -0.3594  1.4992
19145SOL     OW60326   1.688   7.987   8.861  0.0586  0.2079  0.0340
19145SOL    HW160327   1.628   7.940   8.803  1.5267 -1.4069 -0.2548
19145SOL    HW260328   1.771   7.988   8.814  0.9448  0.0224  1.5293
19146SOL     OW60329   6.626   3.457   2.867 -0.0959 -0.2214  0.2982
19146SOL    HW160330   6.654   3.548   2.870 -1.3246  0.1728  3.1720
19146SOL    HW260331   6.536   3.460   2.835 -0.0106 -0.4876  0.0221
19147SOL     OW60332   4.396   8.043   2.970  0.0881  0.3061  0.1193
19147SOL    HW160333   4.337   7.977   2.934  0.6494 -0.2747  0.2409
19147SOL    HW260334   4.474   8.038   2.915 -0.1801  1.4490 -0.3801
19148SOL     OW60335   5.783   9.093   3.475  0.4285  0.1634 -0.1911
19148SOL    HW160336   5.698   9.137   3.469  0.8074  1.0728  0.8103
19148SOL    HW260337   5.833   9.128   3.401  0.8118  1.6634  0.7332
19149SOL     OW60338   9.308   1.575   9.137 -0.2504  0.4386 -0.1501
19149SOL    HW160339   9.384   1.617   9.179 -0.5735 -0.1384  1.0757
19149SOL    HW260340   9.332   1.569   9.045  0.5263  1.7157 -0.0631
19150SOL     OW60341   4.158   5.446   3.988 -0.0636 -0.0596  0.3542
19150SOL    HW160342   4.136   5.447   4.081  1.1897 -0.6992  0.6804
19150SOL    HW260343   4.236   5.501   3.981 -0.6229  0.6474 -0.4652
19151SOL     OW60344   0.398   0.537   0.466 -0.1365  0.1183 -0.5056
19151SOL    HW160345   0.483   0.493   0.460 -1.1824 -1.8900 -1.8993
19151SOL    HW260346   0.347   0.500   0.393 -2.0786  1.5599  0.0401
19152SOL     OW60347   7.517   4.799   1.506  0.1769  0.3720 -0.3893
19152SOL    HW160348   7.562   4.727   1.550  0.2287 -0.4828 -1.7703
19152SOL    HW260349   7.546   4.878   1.552  1.7227 -0.3083 -0.1468
19153SOL     OW60350   5.596   1.150   4.466  0.2812 -0.0107 -0.0766
19153SOL    HW160351   5.556   1.237   4.466  1.6397  0.6355 -0.1014
19153SOL    HW260352   5.625   1.137   4.556  0.2629 -0.3503 -0.1197
19154SOL     OW60353   8.977   1.735   6.334 -0.1878  0.7180 -0.3556
19154SOL    HW160354   8.891   1.721   6.375 -0.4388  0.5172 -0.9386
19154SOL    HW260355   8.958   1.793   6.260  0.2245  0.8937 -0.3215
19155SOL     OW60356   0.534   8.899   9.044 -0.3879 -0.0267 -0.0537
19155SOL    HW160357   0.448   8.941   9.046  0.2323  1.2765  0.8997
19155SOL    HW260358   0.518   8.814   9.004 -1.6732  1.1501 -2.2573
19156SOL     OW60359   9.372   7.782   8.197  0.2591 -0.1067  0.8835
19156SOL    HW160360   9.376   7.875   8.175  0.4442  0.0271  1.4517
19156SOL    HW260361   9.345   7.739   8.116 -1.2590  0.5975  0.9649
19157SOL     OW60362   8.905   4.503   3.402 -0.1145 -0.0257 -0.1767
19157SOL    HW160363   8.988   4.473   3.366 -0.6714  0.4223 -1.9319
19157SOL    HW260364   8.885   4.583   3.354 -1.5720 -0.1466  0.1727
19158SOL     OW60365   1.317   3.375   8.728  0.6432 -0.3171  0.7903
19158SOL    HW160366   1.350   3.288   8.746  2.1978  0.8303  4.1879
19158SOL    HW260367   1.358   3.431   8.794 -0.8432  2.8846 -0.7805
19159SOL     OW60368   0.673   6.370   4.149  0.6771 -0.1574 -0.1896
19159SOL    HW160369   0.742   6.364   4.082  0.1424  1.4443 -0.9255
19159SOL    HW260370   0.666   6.463   4.169 -0.8716 -0.3481  0.3076
19160SOL     OW60371   2.725   7.190   0.536 -0.9575  0.3916 -0.0665
19160SOL    HW160372   2.692   7.216   0.622 -0.0474 -2.0555  1.1181
19160SOL    HW260373   2.818   7.210   0.539 -0.7536 -0.4945 -0.1212
19161SOL     OW60374   3.997   3.645   8.777 -0.1575 -0.6221  0.0703
19161SOL    HW160375   4.042   3.565   8.803  0.8168  0.5779  2.3806
19161SOL    HW260376   3.972   3.630   8.686  0.4374 -3.3230  0.2689
19162SOL     OW60377   7.586   6.133   6.321  0.6412 -0.4573  0.1818
19162SOL    HW160378   7.546   6.052   6.291  1.2333 -0.3787 -0.8765
19162SOL    HW260379   7.634   6.109   6.400 -0.7469 -0.7245  0.9810
19163SOL     OW60380   4.255   4.262   1.651  0.2887  0.4320 -0.5086
19163SOL    HW160381   4.349   4.255   1.665  0.0843 -0.0186  0.7375
19163SOL    HW260382   4.246   4.280   1.557  1.5994  0.3359 -0.6685
19164SOL     OW60383   0.731   3.975   0.009  0.2496 -0.5133 -0.0490
19164SOL    HW160384   0.782   3.894   0.017 -1.2471 -1.6565 -1.4251
19164SOL    HW260385   0.667   3.970   0.080  0.0351 -0.6366 -0.2496
19165SOL     OW60386   4.589   7.965   4.222 -0.5676 -0.2941 -0.0738
19165SOL    HW160387   4.671   7.976   4.270 -0.3108  0.1520 -0.6031
19165SOL    HW260388   4.596   7.878   4.182 -0.8158 -0.6985  0.7471
19166SOL     OW60389   4.884   8.622   1.983 -0.2883 -0.8927  0.0190
19166SOL    HW160390   4.801   8.660   1.955 -0.3833 -0.9045  0.2841
19166SOL    HW260391   4.860   8.538   2.022 -0.4372  0.1281  2.2898
19167SOL     OW60392   0.145   1.348   8.331 -0.2856 -0.0120  0.3778
19167SOL    HW160393   0.068   1.357   8.387 -0.2300 -0.4651  0.5294
19167SOL    HW260394   0.198   1.425   8.351 -1.8973  1.7470 -1.6428
19168SOL     OW60395   3.808   2.102   7.597 -0.2951 -0.0002  0.0286
19168SOL    HW160396   3.807   2.198   7.593 -0.4433 -0.0038 -0.0330
19168SOL    HW260397   3.779   2.073   7.511  0.4398 -0.1096 -0.1823
19169SOL     OW60398   8.741   7.962   3.105  1.0486 -0.0223  0.3541
19169SOL    HW160399   8.649   7.967   3.131  0.9311 -0.0543 -0.0549
19169SOL    HW260400   8.764   8.051   3.082  1.3724  0.1526  1.2911
19170SOL     OW60401   1.603   4.830   0.110 -0.0466 -0.0178 -0.5014
19170SOL    HW160402   1.633   4.879   0.186  1.7268  0.9983 -1.7810
19170SOL    HW260403   1.642   4.743   0.121  1.0127  0.4142 -0.6762
19171SOL     OW60404   7.506   7.500   4.657 -0.3234  0.5846  0.4642
19171SOL    HW160405   7.538   7.411   4.671 -1.3883  0.0895 -0.1297
19171SOL    HW260406   7.581   7.556   4.677  0.6114 -0.4898  0.0695
19172SOL     OW60407   7.116   2.325   2.637  0.4008  0.0931  0.0463
19172SOL    HW160408   7.077   2.301   2.721  0.2247  4.1457  1.3442
19172SOL    HW260409   7.049   2.304   2.572  0.4835 -2.9680  0.7786
19173SOL     OW60410   9.610   4.875   1.420  0.0240 -0.2823  0.1622
19173SOL    HW160411   9.527   4.857   1.377  0.3531  0.1709 -0.6900
19173SOL    HW260412   9.587   4.931   1.494 -0.3632  0.4037 -0.4604
19174SOL     OW60413   5.866   6.336   7.666 -0.2035 -0.5507  0.4294
19174SOL    HW160414   5.950   6.332   7.620 -0.2528  0.2519  0.2524
19174SOL    HW260415   5.866   6.259   7.723 -0.8382 -2.5839 -2.0899
19175SOL     OW60416   2.356   9.287   5.903 -0.1482 -0.4335 -0.6121
19175SOL    HW160417   2.342   9.216   5.839  2.1927 -0.6437 -0.9711
19175SOL    HW260418   2.313   9.255   5.983 -2.4977 -0.4935 -1.7835
19176SOL     OW60419   2.786   8.991   4.570  0.1034  0.0480 -0.1192
19176SOL    HW160420   2.721   9.026   4.632 -0.3506  0.1705 -0.6566
19176SOL    HW260421   2.734   8.964   4.494  0.8579  1.8445 -1.3372
19177SOL     OW60422   9.476   5.137   4.480  0.4593 -0.1237  0.6470
19177SOL    HW160423   9.443   5.167   4.395  2.9193 -0.3306 -0.4636
19177SOL    HW260424   9.483   5.042   4.471  0.4203 -0.1803  1.2013
19178SOL     OW60425   5.086   6.127   5.498  0.1864 -0.8730  0.0671
19178SOL    HW160426   5.160   6.075   5.467 -0.2352 -1.3086 -0.2172
19178SOL    HW260427   5.024   6.063   5.533 -0.9556 -0.7314 -1.5428
19179SOL     OW60428   1.798   7.475   4.993 -0.0882  0.4363 -0.3570
19179SOL    HW160429   1.774   7.412   4.924 -2.1175 -0.7863  1.3494
19179SOL    HW260430   1.747   7.448   5.069  0.9504  2.6381  1.2293
19180SOL     OW60431   8.376   5.101   9.173 -0.5189 -0.8592  0.2810
19180SOL    HW160432   8.406   5.061   9.091  1.7860  2.7732 -0.8692
19180SOL    HW260433   8.429   5.058   9.241  1.7430 -0.0919 -0.8758
19181SOL     OW60434   5.124   2.946   7.317 -0.6221 -0.5631  0.1734
19181SOL    HW160435   5.191   2.962   7.384 -0.2005  0.8784 -0.5484
19181SOL    HW260436   5.047   2.992   7.348 -0.6780 -0.5823  0.0650
19182SOL     OW60437   3.993   0.188   6.998  0.7607 -0.2537  0.2032
19182SOL    HW160438   3.932   0.215   6.930  1.0274 -1.5817 -0.5948
19182SOL    HW260439   3.953   0.111   7.038  0.0822  1.1111  2.3422
19183SOL     OW60440   8.075   4.884   9.434  0.0753 -0.5240 -0.3293
19183SOL    HW160441   8.089   4.936   9.355  0.6719 -2.6012 -1.6520
19183SOL    HW260442   7.980   4.868   9.435  0.0217 -0.2256 -0.4280
19184SOL     OW60443   1.260   1.288   8.492 -0.6419 -0.3594  0.2070
19184SOL    HW160444   1.295   1.313   8.577 -0.2170 -0.1569 -0.0233
19184SOL    HW260445   1.300   1.203   8.474 -1.4800 -0.8574  0.6382
19185SOL     OW60446   3.296   2.373   0.441  0.2861  0.4652 -0.4819
19185SOL    HW160447   3.282   2.466   0.425 -0.1141  1.1129  2.9365
19185SOL    HW260448   3.388   2.367   0.468  0.1351 -0.0288 -0.0568
19186SOL     OW60449   2.278   9.220   0.157 -0.6667  0.3584  0.0981
19186SOL    HW160450   2.317   9.196   0.241 -1.6474  1.0035  0.7566
19186SOL    HW260451   2.346   9.199   0.092  0.2345  0.1865  1.0738
19187SOL     OW60452   5.705   0.475   3.231 -0.3874  0.1407 -0.0283
19187SOL    HW160453   5.649   0.489   3.154 -0.6860  1.3956  0.3965
19187SOL    HW260454   5.784   0.433   3.196 -0.8411 -0.0137 -0.9006
19188SOL     OW60455   7.816   6.828   0.513  0.2142 -0.1968  0.3640
19188SOL    HW160456   7.823   6.763   0.583 -1.2200  1.1892  1.8736
19188SOL    HW260457   7.724   6.853   0.512  0.0969 -0.4600 -2.3464
19189SOL     OW60458   3.640   1.815   5.579  0.0747 -0.1942 -0.1770
19189SOL    HW160459   3.736   1.820   5.580  0.1017 -0.6506  0.5380
19189SOL    HW260460   3.618   1.779   5.665 -0.6909 -0.8747 -0.6447
19190SOL     OW60461   6.451   6.737   2.671 -0.5672 -0.1691 -0.6013
19190SOL    HW160462   6.511   6.663   2.666  0.3242  0.1947  2.5115
19190SOL    HW260463   6.402   6.734   2.589  3.0488 -0.9995 -2.9761
19191SOL     OW60464   1.000   7.235   5.018 -0.7576  0.5616  0.2713
19191SOL    HW160465   1.004   7.169   4.949  0.7111  0.6776  0.2197
19191SOL    HW260466   0.928   7.292   4.992 -0.7496  0.1367 -0.7410
19192SOL     OW60467   1.048   6.175   8.107 -0.8719 -0.1051 -0.0956
19192SOL    HW160468   1.119   6.111   8.100  1.4970  2.3423 -0.3283
19192SOL    HW260469   0.976   6.128   8.147  1.1452 -2.5672  0.8533
19193SOL     OW60470   8.404   1.138   1.735  0.4400 -0.3653  0.6112
19193SOL    HW160471   8.319   1.181   1.734  1.4953  1.9055 -1.7264
19193SOL    HW260472   8.386   1.048   1.707 -1.2027 -0.0576  0.5981
19194SOL     OW60473   1.743   3.032   1.399 -0.3428  0.3362  0.5477
19194SOL    HW160474   1.754   2.938   1.387 -0.2999  0.4344 -0.2224
19194SOL    HW260475   1.716   3.042   1.490  0.1564 -0.3809  0.7812
19195SOL     OW60476   8.944   3.719   7.662 -0.6887 -0.2018 -0.1182
19195SOL    HW160477   8.998   3.645   7.688  1.5671  1.1917 -0.5428
19195SOL    HW260478   8.881   3.729   7.733  0.6473 -0.9447  1.2255
19196SOL     OW60479   2.016   7.105   9.104  0.3814 -0.2476 -0.0475
19196SOL    HW160480   2.035   7.082   9.013  2.7941 -1.3160  0.6417
19196SOL    HW260481   2.018   7.201   9.105  0.2693 -0.2187 -1.1113
19197SOL     OW60482   2.949   7.987   0.276  0.2896  0.4818 -0.0491
19197SOL    HW160483   2.905   7.967   0.359  1.0230  1.1404  0.5208
19197SOL    HW260484   3.039   7.956   0.288  0.0665 -0.6492 -1.1165
19198SOL     OW60485   4.143   1.853   4.816 -0.2221  0.2662 -0.3664
19198SOL    HW160486   4.084   1.929   4.816 -1.9039 -0.9464  1.2092
19198SOL    HW260487   4.195   1.862   4.895 -2.4739 -1.5778  1.4881
19199SOL     OW60488   0.372   8.760   1.183  0.4064  0.6357 -0.0711
19199SOL    HW160489   0.432   8.724   1.117 -0.2137 -1.2655  0.3370
19199SOL    HW260490   0.420   8.753   1.265  0.5381  1.4098 -0.0798
19200SOL     OW60491   9.175   0.070   8.898  0.4047 -0.0474 -0.2356
19200SOL    HW160492   9.191   0.020   8.978 -0.1614  0.3186  0.1182
19200SOL    HW260493   9.081   0.060   8.883  0.0454  1.8045  0.4787
19201SOL     OW60494   7.073   4.409   0.522 -0.4822 -1.0536 -0.3022
19201SOL    HW160495   7.114   4.400   0.436 -0.7435  0.9088 -0.6708
19201SOL    HW260496   6.980   4.422   0.503 -0.7989 -2.1692  0.3812
19202SOL     OW60497   5.371   6.973   9.025  0.0806 -0.1308 -0.3033
19202SOL    HW160498   5.366   7.043   8.960 -1.2371  0.7333  0.6843
19202SOL    HW260499   5.458   6.983   9.063 -0.6767  2.1557  1.0327
19203SOL     OW60500   5.861   6.755   8.436 -0.3637  0.0888 -0.0995
19203SOL    HW160501   5.892   6.740   8.525 -2.5052  0.7715  0.8176
19203SOL    HW260502   5.939   6.786   8.389  0.9375 -0.8112  1.3613
19204SOL     OW60503   5.777   7.040   4.043 -0.0073  0.1428  0.6819
19204SOL    HW160504   5.868   7.049   4.070  1.7680 -1.4958 -3.7546
19204SOL    HW260505   5.736   6.988   4.112  2.3413  0.9888  2.8440
19205SOL     OW60506   5.992   5.861   6.924 -0.1460  0.0973 -0.6837
19205SOL    HW160507   5.968   5.770   6.907 -0.9694 -0.2084  1.7430
19205SOL    HW260508   5.923   5.913   6.881 -0.6616 -0.5003 -0.5932
19206SOL     OW60509   2.668   9.079   0.352 -0.0536  0.4967  0.5459
19206SOL    HW160510   2.702   8.989   0.348  0.9309  0.8153  1.3318
19206SOL    HW260511   2.617   9.088   0.272 -2.4674 -1.6525  1.6903
19207SOL     OW60512   2.387   1.233   6.903 -0.0671  0.0614 -0.1935
19207SOL    HW160513   2.432   1.249   6.985  0.9697 -0.8964 -0.5383
19207SOL    HW260514   2.321   1.301   6.897  0.0790  0.3535  1.2567
19208SOL     OW60515   2.995   8.900   1.662 -0.0632  0.1546  0.0455
19208SOL    HW160516   3.000   8.911   1.567 -3.6854  2.0208 -0.1133
19208SOL    HW260517   3.061   8.959   1.697 -0.8127  1.9180 -1.3538
19209SOL     OW60518   4.080   2.712   3.915  0.4225 -0.1460 -0.2793
19209SOL    HW160519   4.076   2.617   3.913  3.2785 -0.3667 -0.5610
19209SOL    HW260520   4.114   2.732   4.003  0.2193  0.5679 -0.3614
19210SOL     OW60521   7.462   3.191   5.074 -0.4433  0.8450 -0.3916
19210SOL    HW160522   7.379   3.234   5.093 -0.2179  2.1202 -2.0639
19210SOL    HW260523   7.498   3.240   5.000  0.7577 -1.0769 -1.1446
19211SOL     OW60524   6.867   1.201   0.596  0.6359 -0.1300 -0.0982
19211SOL    HW160525   6.840   1.175   0.684 -0.1720 -1.6607 -0.7558
19211SOL    HW260526   6.934   1.137   0.572 -0.2884 -0.7447 -1.1723
19212SOL     OW60527   3.389   4.727   5.626 -0.0338  0.1436  0.1704
19212SOL    HW160528   3.339   4.758   5.701  0.5455  0.0910  0.5864
19212SOL    HW260529   3.460   4.675   5.664  0.2550  0.0994 -0.4123
19213SOL     OW60530   6.870   4.844   5.133  0.3305  0.0197 -0.5045
19213SOL    HW160531   6.932   4.846   5.061  0.8275  0.0629 -0.0762
19213SOL    HW260532   6.786   4.824   5.091  0.6409 -0.1194 -1.0718
19214SOL     OW60533   8.725   2.677   3.650  0.0977  0.8093 -0.0603
19214SOL    HW160534   8.768   2.674   3.736 -2.1130  1.3886  1.1373
19214SOL    HW260535   8.660   2.607   3.653 -0.8695  1.6501 -0.7504
19215SOL     OW60536   6.779   3.819   6.228  0.1588  0.0885 -0.7128
19215SOL    HW160537   6.789   3.851   6.138 -0.6104 -0.7424 -1.1180
19215SOL    HW260538   6.848   3.863   6.277 -0.1015  1.4077 -1.4820
19216SOL     OW60539   2.164   3.203   0.017 -0.2293 -0.1954  0.0350
19216SOL    HW160540   2.215   3.160  -0.051  0.0985 -0.9404  0.7346
19216SOL    HW260541   2.086   3.235  -0.027 -0.9197 -2.2785 -0.3438
19217SOL     OW60542   3.191   2.888   7.614  0.2138 -0.7246 -0.5195
19217SOL    HW160543   3.195   2.854   7.524 -0.8734 -2.6365  0.0948
19217SOL    HW260544   3.137   2.966   7.607  1.4672  0.0808 -1.7552
19218SOL     OW60545   0.190   3.067   8.823  0.1202 -0.6297  0.0820
19218SOL    HW160546   0.160   2.989   8.777  0.0929  0.5286 -1.9725
19218SOL    HW260547   0.270   3.039   8.867  0.3588 -1.7107 -0.9733
19219SOL     OW60548   0.865   3.045   6.064  0.7562  0.0596 -0.2745
19219SOL    HW160549   0.931   3.113   6.083  1.4705 -0.8917  0.8217
19219SOL    HW260550   0.916   2.965   6.050 -0.1037 -0.4078 -0.8224
19220SOL     OW60551   5.723   3.950   6.725 -0.0199  0.0804  0.2377
19220SOL    HW160552   5.687   3.997   6.801  1.1226  3.5836 -1.1935
19220SOL    HW260553   5.703   4.006   6.651 -0.2999 -2.7873 -2.0495
19221SOL     OW60554   4.525   8.770   7.375 -0.2109  0.0170 -0.1607
19221SOL    HW160555   4.529   8.816   7.291 -1.4279  1.2363  0.4112
19221SOL    HW260556   4.436   8.785   7.406  1.1869  3.0417  3.1789
19222SOL     OW60557   0.608   8.806   4.459  0.1370  0.0274  0.5350
19222SOL    HW160558   0.665   8.821   4.384  1.8700 -0.7342  1.6347
19222SOL    HW260559   0.588   8.894   4.492  0.9658  0.2930  0.3355
19223SOL     OW60560   0.967   0.969   1.840  0.5455  0.5071 -0.3090
19223SOL    HW160561   0.911   0.998   1.912  1.6298  1.0219  0.3561
19223SOL    HW260562   1.043   0.930   1.883  0.3387 -0.9458 -1.1986
19224SOL     OW60563   7.861   5.011   8.251 -0.1044  0.6084 -0.2107
19224SOL    HW160564   7.884   4.955   8.325 -1.2615 -0.4402 -0.6025
19224SOL    HW260565   7.799   5.074   8.287  0.8821  1.4072  0.1379
19225SOL     OW60566   7.704   5.220   8.687 -0.1700  0.4369 -0.2764
19225SOL    HW160567   7.689   5.228   8.781  1.2834 -0.2168  0.0360
19225SOL    HW260568   7.686   5.128   8.668  2.1396 -0.1147 -0.0857
19226SOL     OW60569   4.119   3.487   3.879  0.7196  0.0392 -0.2669
19226SOL    HW160570   4.040   3.466   3.927  0.8477 -0.3111 -0.2076
19226SOL    HW260571   4.169   3.543   3.938  1.4018 -1.3022  0.4876
19227SOL     OW60572   2.476   3.664   0.184 -0.0264 -0.3516  0.0618
19227SOL    HW160573   2.496   3.590   0.127 -1.8184 -0.6307 -0.2604
19227SOL    HW260574   2.506   3.741   0.134  3.6295 -0.8473  1.2009
19228SOL     OW60575   4.642   8.974   5.114  0.5973 -0.2312 -0.1690
19228SOL    HW160576   4.636   9.068   5.132 -0.2436 -0.5029  1.1081
19228SOL    HW260577   4.732   8.961   5.083  0.9323  0.8836  0.2980
19229SOL     OW60578   8.048   3.250   7.222  0.2477 -0.6778  0.4840
19229SOL    HW160579   8.043   3.196   7.144  0.0713 -1.3597  0.9602
19229SOL    HW260580   7.983   3.319   7.208  1.7394  0.5170 -0.9353
19230SOL     OW60581   8.678   0.826   1.828 -0.0994  0.3980 -0.2564
19230SOL    HW160582   8.588   0.852   1.808  0.1845 -0.0465 -2.2963
19230SOL    HW260583   8.682   0.733   1.806  1.0952  0.6329 -1.1133
19231SOL     OW60584   3.592   2.018   2.986  0.1955  0.2735 -0.3455
19231SOL    HW160585   3.683   1.998   3.008  0.0040  0.4015  0.6111
19231SOL    HW260586   3.580   2.108   3.017 -0.3015  0.2028 -0.3341
19232SOL     OW60587   1.256   4.368   5.218  0.5678 -0.5478  0.5741
19232SOL    HW160588   1.241   4.457   5.248  2.8849 -0.1753  0.7572
19232SOL    HW260589   1.246   4.372   5.123  0.7903 -0.0584  0.5684
19233SOL     OW60590   5.281   5.433   5.280  0.2258 -0.4081 -0.4818
19233SOL    HW160591   5.360   5.389   5.313 -0.0269 -1.1485 -0.8407
19233SOL    HW260592   5.216   5.363   5.274 -0.7320  0.3402  0.6266
19234SOL     OW60593   7.957   3.659   2.089  0.4484 -0.0560 -0.6602
19234SOL    HW160594   7.953   3.667   1.993  1.0211 -0.0446 -0.6848
19234SOL    HW260595   8.016   3.585   2.104 -0.7071 -0.9401 -0.3358
19235SOL     OW60596   8.315   9.051   4.870 -0.2077  0.2705 -0.5913
19235SOL    HW160597   8.292   9.004   4.949  0.6277 -0.6293 -0.8673
19235SOL    HW260598   8.232   9.063   4.824 -0.4670 -0.7448 -0.4078
19236SOL     OW60599   8.392   0.453   2.562 -0.4096  0.5059  0.4627
19236SOL    HW160600   8.432   0.508   2.494 -2.0264  0.0346 -0.9492
19236SOL    HW260601   8.320   0.408   2.517 -1.6362  0.2710  2.5343
19237SOL     OW60602   8.072   7.829   8.472 -0.0202  0.5572  0.0022
19237SOL    HW160603   8.002   7.856   8.413 -0.0508 -0.4860 -0.4505
19237SOL    HW260604   8.028   7.775   8.538  0.3982 -0.4463 -0.5156
19238SOL     OW60605   7.900   1.538   8.920  0.1469 -0.2529  0.0283
19238SOL    HW160606   7.830   1.521   8.982 -0.1851  0.6531 -0.0855
19238SOL    HW260607   7.905   1.459   8.867 -0.7034 -0.3762  0.1241
19239SOL     OW60608   9.497   5.488   0.728 -0.8061  0.2027 -0.0079
19239SOL    HW160609   9.552   5.457   0.656  0.7104 -0.6021  1.4214
19239SOL    HW260610   9.495   5.415   0.790  1.1064  2.1055  2.5050
19240SOL     OW60611   0.250   8.711   3.324 -0.1714 -0.0321  0.1657
19240SOL    HW160612   0.214   8.671   3.403  0.6636 -0.5407  0.2977
19240SOL    HW260613   0.187   8.688   3.255 -0.5402 -0.1756  0.5450
19241SOL     OW60614   4.995   3.376   1.227 -0.4807 -0.0696  0.3857
19241SOL    HW160615   4.954   3.390   1.313 -1.4972 -0.5505 -0.0140
19241SOL    HW260616   4.954   3.442   1.171  0.6945  0.7192  0.4076
19242SOL     OW60617   9.636   8.855   5.096  0.3147 -0.0464  0.1558
19242SOL    HW160618   9.707   8.874   5.036 -0.2028 -1.8357 -1.1282
19242SOL    HW260619   9.564   8.825   5.040 -0.7810 -0.1657  1.5484
19243SOL     OW60620   9.144   5.280   9.552  0.3468  0.2891  0.3002
19243SOL    HW160621   9.072   5.292   9.489  1.1498 -1.1412 -0.9491
19243SOL    HW260622   9.154   5.366   9.593 -0.9441  0.9742 -0.7291
19244SOL     OW60623   4.308   4.149   1.353 -0.4318 -0.1627  0.0314
19244SOL    HW160624   4.278   4.122   1.266  0.3224  0.2178 -0.3595
19244SOL    HW260625   4.266   4.088   1.413  0.5849 -1.7043 -0.7664
19245SOL     OW60626   1.818   9.190   8.959 -0.2126  0.2436 -0.9057
19245SOL    HW160627   1.730   9.226   8.965 -0.4382 -0.4911  2.6921
19245SOL    HW260628   1.821   9.121   9.026  3.2592  0.6616 -0.4133
19246SOL     OW60629   9.644   1.641   2.387 -0.0524 -0.1316  0.2877
19246SOL    HW160630   9.568   1.586   2.407  0.5127 -0.2226  2.4763
19246SOL    HW260631   9.624   1.680   2.302 -2.2258 -0.6901  0.4815
19247SOL     OW60632   1.731   4.457   7.838  0.2060 -0.6171  0.4361
19247SOL    HW160633   1.710   4.479   7.929  0.1919  0.1176  0.2619
19247SOL    HW260634   1.827   4.455   7.836  0.3126  1.8339 -0.0618
19248SOL     OW60635   8.069   4.265   6.156 -0.1096 -0.7214  0.4655
19248SOL    HW160636   8.110   4.179   6.166  0.4324 -0.8023 -1.8233
19248SOL    HW260637   8.119   4.323   6.214  0.3503 -1.6834  1.0515
19249SOL     OW60638   5.042   7.770   2.671  0.1329 -0.0985  0.4896
19249SOL    HW160639   5.063   7.860   2.648  1.8799 -0.6133 -0.0706
19249SOL    HW260640   5.083   7.756   2.756  0.1970 -0.4618  0.4030
19250SOL     OW60641   7.786   8.783   9.495 -0.5586 -0.0262  0.3900
19250SOL    HW160642   7.739   8.707   9.529  0.4263 -1.5952 -1.5420
19250SOL    HW260643   7.879   8.761   9.506 -0.2048  1.9404  1.8776
19251SOL     OW60644   2.134   7.084   2.934  0.2557 -0.3359 -0.1639
19251SOL    HW160645   2.158   7.046   3.019  1.3149  0.8139  0.0734
19251SOL    HW260646   2.184   7.165   2.929 -0.3766 -0.0074 -1.5710
19252SOL     OW60647   8.936   9.521   6.308  0.3037  0.1107  0.4128
19252SOL    HW160648   8.971   9.556   6.226  0.0249  1.0960  0.6965
19252SOL    HW260649   8.902   9.598   6.354  0.4597 -0.4211  1.4557
19253SOL     OW60650   1.149   4.923   8.355 -0.4893  0.3337  0.7660
19253SOL    HW160651   1.087   4.987   8.389  0.7386  2.3066 -0.5426
19253SOL    HW260652   1.232   4.945   8.396 -0.7211 -3.0839  3.5249
19254SOL     OW60653   2.613   2.184   4.282 -0.0192  0.3971 -0.3451
19254SOL    HW160654   2.706   2.162   4.284 -0.4139 -1.4626  0.5132
19254SOL    HW260655   2.579   2.153   4.366 -1.7907 -0.9897 -1.4803
19255SOL     OW60656   1.087   8.005   6.368  0.4872 -0.3986  0.5195
19255SOL    HW160657   1.008   7.956   6.348  0.7668 -0.6555  0.0024
19255SOL    HW260658   1.157   7.939   6.365  1.2172  0.3365 -2.5260
19256SOL     OW60659   5.589   1.362   9.095  0.6187 -0.4786  0.1796
19256SOL    HW160660   5.656   1.383   9.160  0.2451 -2.1618  1.2061
19256SOL    HW260661   5.579   1.267   9.102 -0.7026 -0.4676 -1.1035
19257SOL     OW60662   1.918   9.451   8.188 -0.0981  0.1809 -0.4027
19257SOL    HW160663   1.884   9.497   8.111  1.7000 -0.2781 -1.5302
19257SOL    HW260664   1.980   9.388   8.153  0.2642 -0.5291  1.3956
19258SOL     OW60665   8.278   1.120   0.091  0.2631 -0.1604  0.1674
19258SOL    HW160666   8.341   1.066   0.042  0.7534  0.3220  0.2587
19258SOL    HW260667   8.256   1.192   0.031  0.1939 -0.0434  0.3323
19259SOL     OW60668   1.072   2.907   5.293 -0.4184  0.0393 -0.2455
19259SOL    HW160669   1.062   2.828   5.240  0.9451  1.0117 -2.0379
19259SOL    HW260670   0.983   2.943   5.300 -0.7678 -0.6636 -0.9581
19260SOL     OW60671   8.506   5.294   8.020  0.1127  0.5198  0.3295
19260SOL    HW160672   8.465   5.321   8.102  1.0729 -0.3805  1.1409
19260SOL    HW260673   8.591   5.257   8.046 -0.1551 -1.1100 -0.8906
19261SOL     OW60674   2.695   6.182   3.490 -0.4886  0.2557  0.0899
19261SOL    HW160675   2.699   6.210   3.582 -0.4694 -0.5068  0.3341
19261SOL    HW260676   2.670   6.261   3.442 -2.5830  0.2307  0.9981
19262SOL     OW60677   3.205   6.799   2.028 -0.3622 -0.0292 -0.1340
19262SOL    HW160678   3.194   6.830   1.938 -1.0735 -1.2348 -0.4965
19262SOL    HW260679   3.290   6.833   2.055 -0.6176  1.2563 -0.8680
19263SOL     OW60680   7.224   0.607   4.150  0.5853 -0.0253 -0.3918
19263SOL    HW160681   7.299   0.625   4.094  0.1542  2.8674 -0.1809
19263SOL    HW260682   7.174   0.541   4.103  2.3445 -0.7352 -1.3570
19264SOL     OW60683   4.607   1.606   3.686  1.2125  0.3659 -0.0497
19264SOL    HW160684   4.533   1.590   3.745 -0.4789 -0.6716 -2.3252
19264SOL    HW260685   4.580   1.681   3.633  1.8099  0.0050 -0.8842
19265SOL     OW60686   1.591   1.882   1.503 -0.4714 -0.2077  0.3048
19265SOL    HW160687   1.609   1.975   1.494  0.6225 -0.4115  0.2612
19265SOL    HW260688   1.597   1.848   1.413 -1.1333 -0.2746  0.2851
19266SOL     OW60689   9.644   5.110   4.851 -0.3294  0.0445  0.0253
19266SOL    HW160690   9.722   5.099   4.796 -0.2524 -0.5527  0.2530
19266SOL    HW260691   9.575   5.063   4.804 -0.1246 -0.9733  0.7372
19267SOL     OW60692   1.236   0.575   8.363 -0.1234  0.4508  0.3968
19267SOL    HW160693   1.314   0.526   8.339  0.5028  1.7567 -0.3213
19267SOL    HW260694   1.186   0.515   8.419  0.9188 -0.7436  0.0835
19268SOL     OW60695   0.617   9.197   2.422  0.3133  0.6078 -0.9872
19268SOL    HW160696   0.614   9.115   2.372 -0.7113 -1.0315  1.5578
19268SOL    HW260697   0.651   9.172   2.507 -2.4993  2.2560  0.7845
19269SOL     OW60698   5.266   3.714   5.188  0.4545  0.2004 -0.0640
19269SOL    HW160699   5.247   3.785   5.126 -2.4079  0.7392  1.2550
19269SOL    HW260700   5.226   3.637   5.149  0.3757  0.1148  0.1872
19270SOL     OW60701   6.610   6.913   9.625 -0.5908  0.2721  0.5645
19270SOL    HW160702   6.705   6.924   9.630 -0.4278 -0.5338 -0.4194
19270SOL    HW260703   6.575   7.001   9.642  0.3632  0.7734  0.0258
19271SOL     OW60704   7.842   0.658   8.534 -0.1531 -0.4384 -0.1724
19271SOL    HW160705   7.782   0.684   8.464  0.1592 -1.1811 -0.7269
19271SOL    HW260706   7.852   0.737   8.587 -1.6455 -0.3159 -0.0422
19272SOL     OW60707   2.470   3.451   5.586  0.4735 -0.1788  0.2209
19272SOL    HW160708   2.425   3.385   5.639 -0.2780  0.5013  0.4428
19272SOL    HW260709   2.546   3.476   5.638  0.7676 -0.8726  0.1318
19273SOL     OW60710   0.627   5.460   4.133  0.2828 -0.7934 -0.2114
19273SOL    HW160711   0.708   5.449   4.084 -0.4274 -0.8721 -1.3924
19273SOL    HW260712   0.582   5.533   4.091 -0.1925 -0.6537  0.5209
19274SOL     OW60713   2.285   1.681   4.627  0.1100 -0.8097 -0.1536
19274SOL    HW160714   2.198   1.679   4.667 -0.2946 -2.4084 -1.0454
19274SOL    HW260715   2.322   1.595   4.645  0.6798 -0.8760 -1.5275
19275SOL     OW60716   5.719   5.339   7.119 -0.3706 -0.0743  0.2972
19275SOL    HW160717   5.785   5.278   7.153  1.0085  1.2383  0.0780
19275SOL    HW260718   5.685   5.296   7.041 -0.6719 -1.3255  1.0923
19276SOL     OW60719   7.686   2.034   1.421  0.3695 -0.1760  0.0830
19276SOL    HW160720   7.653   2.102   1.362 -1.2322 -0.2603  0.8250
19276SOL    HW260721   7.697   2.078   1.505  1.0134 -0.4351  0.1344
19277SOL     OW60722   4.156   6.518   7.275  0.3740  0.1201 -0.1075
19277SOL    HW160723   4.224   6.525   7.343 -0.6558 -2.0805  1.2722
19277SOL    HW260724   4.105   6.598   7.283  1.9662  1.1924 -0.2625
19278SOL     OW60725   0.102   0.295   4.791 -0.0347 -0.1903  0.0363
19278SOL    HW160726   0.179   0.312   4.736  0.0324 -2.4652 -0.6692
19278SOL    HW260727   0.038   0.360   4.762  0.9802  0.5069 -0.7225
19279SOL     OW60728   8.303   3.139   6.690  0.6733 -0.7720 -0.0226
19279SOL    HW160729   8.293   3.233   6.677  0.4939 -0.3963  2.4687
19279SOL    HW260730   8.371   3.114   6.628  1.3707  1.1708 -0.1109
19280SOL     OW60731   5.966   7.849   4.618 -0.4284  0.7044  0.1125
19280SOL    HW160732   5.948   7.848   4.712  2.2350 -0.4756  0.6838
19280SOL    HW260733   5.883   7.823   4.577 -0.9738 -1.1996  2.2713
19281SOL     OW60734   7.279   8.458   4.936  0.8899  0.4019  0.0585
19281SOL    HW160735   7.187   8.480   4.951  0.4875  0.2266 -1.8351
19281SOL    HW260736   7.325   8.542   4.937  0.4012  0.6937 -0.7261
19282SOL     OW60737   0.925   1.145   2.852  0.5446 -0.5403 -0.7459
19282SOL    HW160738   1.000   1.201   2.873  0.7720 -0.4225 -1.7848
19282SOL    HW260739   0.939   1.065   2.902  0.1783  0.3439  0.8324
19283SOL     OW60740   3.635   2.945   5.311  0.7554 -0.5731  0.7298
19283SOL    HW160741   3.581   3.009   5.265  0.5916 -1.0096  0.3027
19283SOL    HW260742   3.705   2.924   5.249 -1.1981 -3.5580 -0.7137
19284SOL     OW60743   5.736   0.931   6.009 -0.0352  0.0134  0.1442
19284SOL    HW160744   5.641   0.922   6.006  0.0846 -1.4703  0.0485
19284SOL    HW260745   5.761   0.895   6.095  0.3355  1.6589  0.7575
19285SOL     OW60746   8.605   8.799   6.661 -0.1735  0.4660 -0.9312
19285SOL    HW160747   8.651   8.883   6.658 -0.0458  0.5252  1.0820
19285SOL    HW260748   8.535   8.812   6.725 -0.3290 -0.8693 -0.7889
19286SOL     OW60749   7.087   4.563   2.073 -0.4547 -0.4224 -0.1759
19286SOL    HW160750   7.162   4.559   2.013  0.6364 -0.1561  1.1285
19286SOL    HW260751   7.090   4.480   2.120 -0.1278  0.1657  0.8618
19287SOL     OW60752   9.146   4.749   4.666  0.1327 -0.0332  0.6992
19287SOL    HW160753   9.094   4.696   4.727  0.4614 -1.1340  0.0561
19287SOL    HW260754   9.116   4.839   4.680 -0.2503 -0.3490  2.0125
19288SOL     OW60755   7.590   7.659   5.018 -0.5263 -0.1158  0.4106
19288SOL    HW160756   7.507   7.615   5.036 -0.7134  0.7694  1.8042
19288SOL    HW260757   7.598   7.654   4.922 -1.7135 -1.0304  0.3247
19289SOL     OW60758   3.365   4.937   4.683 -0.1041 -0.5119 -0.2972
19289SOL    HW160759   3.433   4.885   4.726 -0.0671 -0.6700 -0.5512
19289SOL    HW260760   3.316   4.977   4.756 -0.4123 -1.2552 -0.0921
19290SOL     OW60761   3.853   7.723   0.794 -0.0828 -0.1831  0.2544
19290SOL    HW160762   3.936   7.710   0.748  0.0503 -0.8745  0.6660
19290SOL    HW260763   3.838   7.817   0.792  1.1158  0.0322  0.8705
19291SOL     OW60764   7.872   7.675   6.550 -0.4542  0.1922  0.1195
19291SOL    HW160765   7.934   7.746   6.530 -0.8872  0.5529  0.0330
19291SOL    HW260766   7.921   7.615   6.605  0.5884 -0.5304 -1.5295
19292SOL     OW60767   6.621   3.512   1.661 -0.1036 -0.0983  0.1323
19292SOL    HW160768   6.570   3.453   1.607 -1.7714  2.2554 -1.0024
19292SOL    HW260769   6.571   3.520   1.742  1.0834 -1.6181  1.0676
19293SOL     OW60770   2.203   4.517   7.569 -0.5752 -0.2137 -0.4329
19293SOL    HW160771   2.263   4.448   7.541 -0.0465 -0.3803  1.0220
19293SOL    HW260772   2.202   4.579   7.495  1.5001 -0.1343 -0.4732
19294SOL     OW60773   3.214   9.634   3.592  0.6640  0.7115 -0.2779
19294SOL    HW160774   3.219   9.576   3.516 -0.6080 -0.4993  0.5154
19294SOL    HW260775   3.122   9.660   3.598  0.2027 -1.1089  2.1404
19295SOL     OW60776   8.157   6.183   1.915  0.2472  0.1451 -0.2275
19295SOL    HW160777   8.094   6.177   1.987 -1.4375  1.2235 -1.5528
19295SOL    HW260778   8.185   6.092   1.900 -2.8547 -0.7487 -1.1663
19296SOL     OW60779   1.969   1.749   3.756 -0.5980  0.0773 -0.3361
19296SOL    HW160780   1.892   1.691   3.761 -1.7695  1.6391  0.9465
19296SOL    HW260781   2.027   1.716   3.824 -0.9411 -0.0320 -0.0898
19297SOL     OW60782   0.509   4.792   2.035  0.5228 -0.4658  0.2297
19297SOL    HW160783   0.497   4.735   1.958 -0.4106 -0.0061  0.0223
19297SOL    HW260784   0.454   4.753   2.102 -1.4513  1.0558 -0.3997
19298SOL     OW60785   1.742   0.144   0.087  0.0956 -0.1223 -0.0317
19298SOL    HW160786   1.764   0.051   0.083  1.2297  0.0817  0.9751
19298SOL    HW260787   1.744   0.174  -0.004 -1.4047 -1.3149 -0.4864
19299SOL     OW60788   4.969   8.798   2.189 -0.0726 -0.8009 -0.4954
19299SOL    HW160789   5.063   8.815   2.186 -0.2615  1.5869  2.4190
19299SOL    HW260790   4.950   8.750   2.108  3.3911 -0.2460 -1.7840
19300SOL     OW60791   5.690   5.053   8.929 -0.2365  0.5519  0.5996
19300SOL    HW160792   5.714   5.067   8.837  0.1872 -0.9674  0.4547
19300SOL    HW260793   5.699   4.959   8.942 -0.0303  0.7749  2.2840
19301SOL     OW60794   5.302   6.723   7.631  0.2208 -0.8594 -0.2713
19301SOL    HW160795   5.387   6.683   7.613  1.1475  0.5773  0.7278
19301SOL    HW260796   5.274   6.682   7.713 -1.2333 -3.0749 -1.7621
19302SOL     OW60797   2.819   3.568   4.330 -0.0469  0.4486 -0.0503
19302SOL    HW160798   2.820   3.623   4.408  0.2167 -0.5545  0.6691
19302SOL    HW260799   2.740   3.514   4.340 -0.1391  0.4816 -0.5920
19303SOL     OW60800   2.722   8.515   2.282 -0.1151 -0.3725 -0.0353
19303SOL    HW160801   2.791   8.465   2.241  0.0053 -0.6313  0.4699
19303SOL    HW260802   2.765   8.592   2.318 -0.6974  1.6199 -3.2245
19304SOL     OW60803   4.180   6.075   2.498 -0.7651  1.1136 -0.0134
19304SOL    HW160804   4.109   6.057   2.559 -0.5949  3.4380  0.9455
19304SOL    HW260805   4.176   6.169   2.482  1.0736  1.0460 -1.2481
19305SOL     OW60806   6.976   1.759   7.995  0.5178 -0.5066 -0.7849
19305SOL    HW160807   7.051   1.766   7.937  2.4713  0.2414  1.6607
19305SOL    HW260808   7.006   1.704   8.068 -0.4851  1.6013  1.3604
19306SOL     OW60809   7.148   8.869   1.738 -0.2290  0.4694 -0.0585
19306SOL    HW160810   7.233   8.907   1.717  0.1400  0.6569  1.6498
19306SOL    HW260811   7.141   8.792   1.681  0.1825  1.5633 -1.6317
19307SOL     OW60812   2.641   3.771   1.643 -0.2460  0.0638 -0.2684
19307SOL    HW160813   2.606   3.832   1.708 -0.9526 -1.1203  0.4901
19307SOL    HW260814   2.672   3.696   1.694 -1.0052 -0.9913 -1.2909
19308SOL     OW60815   3.973   6.784   2.859  0.1420  0.0211 -0.1369
19308SOL    HW160816   3.963   6.693   2.887  0.9003 -0.0167  0.0174
19308SOL    HW260817   3.931   6.786   2.773  0.2191 -0.5025 -0.1940
19309SOL     OW60818   7.414   3.963   7.730  0.2338 -0.1928  0.0439
19309SOL    HW160819   7.501   3.923   7.721 -0.3206 -1.0805 -1.6401
19309SOL    HW260820   7.359   3.894   7.765 -0.7073 -0.9926 -2.7886
19310SOL     OW60821   2.667   9.485   9.357  0.5055 -0.5302 -0.2683
19310SOL    HW160822   2.677   9.477   9.452  0.9893 -0.0043 -0.2701
19310SOL    HW260823   2.600   9.420   9.334  0.1662 -0.4478  0.4697
19311SOL     OW60824   7.437   3.460   0.718  0.1766  0.2167 -0.6397
19311SOL    HW160825   7.490   3.382   0.737  0.2033 -0.1259 -2.0353
19311SOL    HW260826   7.346   3.431   0.732  0.2075  0.0518 -0.7789
19312SOL     OW60827   7.607   8.267   8.430  0.0219  0.0811  0.3086
19312SOL    HW160828   7.534   8.313   8.388 -0.4409  0.3378  1.3527
19312SOL    HW260829   7.628   8.195   8.371  0.1216  1.0578 -0.8969
19313SOL     OW60830   6.082   4.405   2.672 -0.5033  0.4509  0.0798
19313SOL    HW160831   6.027   4.458   2.614  0.4113  1.0896 -0.2160
19313SOL    HW260832   6.073   4.448   2.758 -1.3725 -0.1361  0.2970
19314SOL     OW60833   5.275   3.055   4.640  0.2461 -0.1506  0.4315
19314SOL    HW160834   5.369   3.068   4.649  1.0137 -3.6182 -0.9432
19314SOL    HW260835   5.255   2.982   4.698 -1.1114 -0.9921 -1.0019
19315SOL     OW60836   8.295   5.356   7.154 -0.1669  0.4896 -0.0776
19315SOL    HW160837   8.272   5.283   7.211  1.6090 -0.6597 -0.7563
19315SOL    HW260838   8.341   5.417   7.211  2.0757 -0.8938 -0.2858
19316SOL     OW60839   8.049   1.341   5.865 -0.5388  0.3964 -0.4005
19316SOL    HW160840   7.975   1.324   5.807  0.9489 -1.6932 -1.8424
19316SOL    HW260841   8.105   1.400   5.815  0.4491 -0.9108 -0.8821
19317SOL     OW60842   8.641   9.288   2.377  0.1423 -0.1542  0.5608
19317SOL    HW160843   8.626   9.198   2.349  1.9211 -0.4269  0.3282
19317SOL    HW260844   8.676   9.332   2.299  0.7405  0.3174  1.0814
19318SOL     OW60845   9.523   2.321   2.180 -0.1479  1.2608 -0.1405
19318SOL    HW160846   9.531   2.261   2.106 -0.3315  0.4302  0.4955
19318SOL    HW260847   9.589   2.291   2.242  1.2029  3.0179 -0.6594
19319SOL     OW60848   3.462   5.611   6.882 -0.2034  0.8375 -1.1549
19319SOL    HW160849   3.521   5.683   6.859 -0.0926  1.3991  0.7333
19319SOL    HW260850   3.462   5.609   6.978 -0.5736 -1.4040 -1.1446
19320SOL     OW60851   1.165   3.839   5.136 -0.1199 -0.2703  0.2108
19320SOL    HW160852   1.240   3.880   5.093  0.1417 -0.0727  0.8338
19320SOL    HW260853   1.092   3.851   5.075  0.0875  0.6167  0.1219
19321SOL     OW60854   9.109   7.491   6.779  0.0022  0.3362 -0.6959
19321SOL    HW160855   9.180   7.459   6.724  1.0615  0.3926  0.5908
19321SOL    HW260856   9.088   7.418   6.837  0.6515  1.0499  0.4994
19322SOL     OW60857   1.062   7.687   6.527  0.0936  0.2239 -0.5352
19322SOL    HW160858   1.000   7.745   6.481 -2.4221 -1.0337  1.0391
19322SOL    HW260859   1.087   7.736   6.605 -2.2559 -0.7718  0.9426
19323SOL     OW60860   9.437   1.070   7.503  0.0371 -0.6621 -0.4245
19323SOL    HW160861   9.512   1.084   7.446 -0.5614  1.4721 -0.7869
19323SOL    HW260862   9.474   1.057   7.590  0.8363 -0.0583 -0.6725
19324SOL     OW60863   4.090   0.130   5.523 -0.0905 -0.0788 -0.4715
19324SOL    HW160864   4.155   0.099   5.461 -1.6631 -1.7008 -1.4256
19324SOL    HW260865   4.096   0.225   5.520  2.0296 -0.1801 -0.6879
19325SOL     OW60866   1.618   0.907   6.751  0.4888  0.4769 -0.3918
19325SOL    HW160867   1.553   0.920   6.821  1.5917  0.6176  0.6255
19325SOL    HW260868   1.581   0.837   6.697  0.6573 -1.2933  1.6582
19326SOL     OW60869   7.368   3.908   1.031 -0.4905  0.0646 -0.0485
19326SOL    HW160870   7.274   3.915   1.046 -0.6370  0.8430 -1.2097
19326SOL    HW260871   7.406   3.981   1.079 -0.1335 -1.8041  2.7522
19327SOL     OW60872   7.396   5.709   8.900 -0.1622 -0.2611 -0.4104
19327SOL    HW160873   7.433   5.642   8.958  1.7087  1.3008  0.2907
19327SOL    HW260874   7.375   5.662   8.820  0.2369 -1.8521  0.3698
19328SOL     OW60875   3.440   3.014   3.206 -0.0885 -0.0889  0.2132
19328SOL    HW160876   3.485   3.033   3.289  0.0313 -0.1013  0.1518
19328SOL    HW260877   3.408   3.099   3.177  0.2262 -0.0165  0.0667
19329SOL     OW60878   1.930   6.688   4.220  0.0611 -0.9477  0.2921
19329SOL    HW160879   1.994   6.754   4.193  0.0152 -1.6599 -1.6758
19329SOL    HW260880   1.956   6.608   4.175 -2.1175 -1.2833 -0.5124
19330SOL     OW60881   8.719   4.578   0.128 -0.7509  0.2382  0.3905
19330SOL    HW160882   8.784   4.631   0.174  0.1927 -2.1873  2.0721
19330SOL    HW260883   8.767   4.538   0.055 -0.6582 -0.5942  0.8984
19331SOL     OW60884   2.717   7.799   4.956 -0.2401 -0.5301 -0.2867
19331SOL    HW160885   2.709   7.747   5.036  1.7174 -1.0801 -0.4055
19331SOL    HW260886   2.696   7.888   4.983  0.8325 -0.6274  0.9600
19332SOL     OW60887   3.708   7.685   8.451  0.2254 -0.3477  0.1934
19332SOL    HW160888   3.753   7.640   8.380 -1.4915 -0.9244 -0.5845
19332SOL    HW260889   3.638   7.734   8.408 -0.1891  0.1412  1.3872
19333SOL     OW60890   0.989   1.968   2.198 -0.4595 -0.4957  0.1150
19333SOL    HW160891   0.921   2.008   2.144  0.7651  0.6126 -0.6585
19333SOL    HW260892   1.017   2.037   2.258 -0.7671 -1.2758  1.1908
19334SOL     OW60893   1.625   0.729   8.917 -0.5636  0.4056  0.4556
19334SOL    HW160894   1.546   0.755   8.965 -0.1594 -0.0908  1.4283
19334SOL    HW260895   1.618   0.634   8.910 -2.1810  0.6592 -3.3212
19335SOL     OW60896   0.946   3.217   2.397  0.7009 -0.2523  0.4421
19335SOL    HW160897   0.998   3.280   2.347 -1.5412 -0.2068 -2.0495
19335SOL    HW260898   1.000   3.138   2.401  1.3298  0.0620 -1.2663
19336SOL     OW60899   5.990   0.552   1.690  0.4799 -0.5900  0.1725
19336SOL    HW160900   5.913   0.606   1.707 -0.9095 -0.4378 -4.9811
19336SOL    HW260901   6.058   0.615   1.665  0.1579 -0.9201 -1.6803
19337SOL     OW60902   4.493   2.228   9.122 -0.2183  0.1203  0.1905
19337SOL    HW160903   4.491   2.153   9.183  0.5724  0.0971  0.1908
19337SOL    HW260904   4.411   2.221   9.074 -0.6786 -0.0899  0.9827
19338SOL     OW60905   3.163   4.258   9.349 -0.2644 -0.4898 -0.5425
19338SOL    HW160906   3.131   4.293   9.266 -0.8626  0.5901  0.1188
19338SOL    HW260907   3.147   4.164   9.345  0.7902 -0.6402 -2.1184
19339SOL     OW60908   6.191   0.767   6.021  0.0426 -0.0225 -0.3480
19339SOL    HW160909   6.223   0.703   5.958  0.8019  0.0083 -0.0037
19339SOL    HW260910   6.192   0.721   6.104 -0.4582  0.0979 -0.2756
19340SOL     OW60911   4.586   6.761   3.028 -0.2645  0.1386  0.0527
19340SOL    HW160912   4.653   6.807   3.078 -0.5961 -0.2438  0.8793
19340SOL    HW260913   4.516   6.825   3.017 -0.6110 -0.0677  0.9626
19341SOL     OW60914   8.913   2.961   3.830  0.0365  0.2172  0.7020
19341SOL    HW160915   8.832   3.008   3.848 -0.2303 -0.4279  1.2553
19341SOL    HW260916   8.968   2.978   3.906  0.9844  1.7754 -0.2770
19342SOL     OW60917   9.355   6.098   9.217  0.6453 -0.3765 -0.0352
19342SOL    HW160918   9.306   6.163   9.167 -1.2971 -0.2101  1.9313
19342SOL    HW260919   9.414   6.058   9.153 -1.8828 -0.4146 -2.5404
19343SOL     OW60920   7.211   3.117   1.846  0.7284  0.3339  0.5180
19343SOL    HW160921   7.212   3.053   1.918  0.0368  0.3229  0.5273
19343SOL    HW260922   7.264   3.190   1.879  1.1434 -0.0394  0.6896
19344SOL     OW60923   2.254   1.483   8.229 -0.3286 -0.4837  0.1655
19344SOL    HW160924   2.186   1.420   8.253  0.2882 -0.4989  2.0510
19344SOL    HW260925   2.271   1.531   8.310  1.5440 -0.1118 -0.4094
19345SOL     OW60926   3.327   5.721   2.811  0.3147  0.1685  0.3772
19345SOL    HW160927   3.321   5.792   2.875 -0.4389  2.1821 -1.7887
19345SOL    HW260928   3.251   5.733   2.755  1.4521 -0.8874 -1.4682
19346SOL     OW60929   0.819   6.211   4.338  0.0304  0.0095 -0.1276
19346SOL    HW160930   0.746   6.251   4.292  1.1350  0.5701 -1.4702
19346SOL    HW260931   0.897   6.255   4.304  1.0047 -0.4323  1.3824
19347SOL     OW60932   8.853   3.534   5.229 -0.0723  0.2860 -0.7579
19347SOL    HW160933   8.918   3.485   5.178  1.7965 -0.0925  1.7571
19347SOL    HW260934   8.799   3.466   5.270  0.9871  0.3245  0.8142
19348SOL     OW60935   0.248   6.142   3.949  0.3328 -0.0148  0.4239
19348SOL    HW160936   0.197   6.083   3.893  1.1120 -0.4159  0.1133
19348SOL    HW260937   0.190   6.163   4.022 -0.0144 -1.0422  0.4573
19349SOL     OW60938   1.825   9.559   4.440 -0.4223 -0.2663  0.4252
19349SOL    HW160939   1.735   9.538   4.415 -0.5988  0.2407  0.6304
19349SOL    HW260940   1.817   9.611   4.520 -0.0804  1.4513 -0.5883
19350SOL     OW60941   3.154   6.209   1.135  0.1869 -0.8129  0.5301
19350SOL    HW160942   3.127   6.158   1.059 -0.0541 -0.0798  0.1163
19350SOL    HW260943   3.100   6.289   1.131 -1.4247 -1.6968  2.6731
19351SOL     OW60944   4.412   0.979   8.342 -0.1566  0.4373  0.2831
19351SOL    HW160945   4.498   0.969   8.302  0.0761  0.4067  0.7745
19351SOL    HW260946   4.388   1.070   8.325  0.0696  0.5062  0.3253
19352SOL     OW60947   6.158   6.398   5.211  0.3596 -0.0056 -0.3626
19352SOL    HW160948   6.143   6.443   5.294 -0.0132 -0.3854 -0.2217
19352SOL    HW260949   6.164   6.469   5.147 -0.5665  0.2372 -0.1960
19353SOL     OW60950   6.846   3.792   3.056  0.5081 -0.5628 -0.1091
19353SOL    HW160951   6.941   3.800   3.060  0.7471 -2.0960 -1.4168
19353SOL    HW260952   6.824   3.730   3.126  0.0429  2.1048  2.2586
19354SOL     OW60953   7.722   4.656   7.055  0.2095  0.4375 -0.3008
19354SOL    HW160954   7.792   4.603   7.018  1.7059  1.2805  1.1599
19354SOL    HW260955   7.710   4.621   7.144 -0.5537  0.9164 -0.2091
19355SOL     OW60956   0.794   5.005   4.116 -0.7053 -0.0159 -0.3326
19355SOL    HW160957   0.769   4.932   4.172  0.1932 -0.5999 -0.6794
19355SOL    HW260958   0.853   5.057   4.170 -0.2977 -0.2663 -0.5339
19356SOL     OW60959   8.116   2.841   7.078 -0.0390 -0.1133  0.0752
19356SOL    HW160960   8.075   2.778   7.137 -0.2510  2.1565  2.5514
19356SOL    HW260961   8.044   2.872   7.023 -0.1958 -1.0640 -0.2666
19357SOL     OW60962   2.694   5.284   3.014 -0.4155 -0.6013  0.5217
19357SOL    HW160963   2.772   5.245   3.054  0.1203  0.2929  0.3734
19357SOL    HW260964   2.697   5.257   2.922  1.8294  2.4972 -0.4493
19358SOL     OW60965   3.132   5.628   2.368  0.2528  0.2157 -0.2804
19358SOL    HW160966   3.145   5.666   2.281  0.6856  0.9635  0.0962
19358SOL    HW260967   3.120   5.703   2.426 -0.5856 -0.2910  0.2292
19359SOL     OW60968   6.564   0.071   7.622 -0.5320 -0.6385 -0.1247
19359SOL    HW160969   6.617   0.150   7.632  1.0283 -1.4573 -1.4153
19359SOL    HW260970   6.522   0.081   7.537  1.0773 -1.9185 -1.1309
19360SOL     OW60971   6.641   7.877   5.076  0.0748  0.4896  0.3583
19360SOL    HW160972   6.676   7.911   5.158 -1.1910  0.2735  1.0144
19360SOL    HW260973   6.557   7.839   5.100  1.1031 -2.5590 -0.4639
19361SOL     OW60974   3.103   2.337   7.320 -0.4241 -0.0123  0.3284
19361SOL    HW160975   3.183   2.290   7.344 -0.6800 -0.2957  0.6346
19361SOL    HW260976   3.050   2.336   7.399 -1.0420 -0.4630 -0.0793
19362SOL     OW60977   6.538   6.196   0.872 -0.4175  0.1597  0.0336
19362SOL    HW160978   6.496   6.256   0.811  1.3427  0.8245 -0.5548
19362SOL    HW260979   6.530   6.239   0.957  0.3170  0.9713 -0.2943
19363SOL     OW60980   8.020   4.425   1.426 -0.1168  0.0531  0.8763
19363SOL    HW160981   7.983   4.403   1.512 -1.8120 -1.4398 -0.1556
19363SOL    HW260982   8.026   4.340   1.381  1.4673  0.7163 -0.2160
19364SOL     OW60983   7.892   8.616   2.524 -0.3970 -0.3549  0.1507
19364SOL    HW160984   7.834   8.677   2.569 -0.5449 -0.0011 -0.5065
19364SOL    HW260985   7.836   8.543   2.500 -0.8097  0.4002 -1.3072
19365SOL     OW60986   0.454   3.492   7.771  0.4334 -0.6176 -0.0272
19365SOL    HW160987   0.462   3.439   7.692  0.2190  2.8093 -2.6052
19365SOL    HW260988   0.500   3.574   7.749 -0.0276  0.6617  3.2609
19366SOL     OW60989   0.232   8.812   1.501  0.1276  0.7368  0.0810
19366SOL    HW160990   0.299   8.784   1.438 -0.2775  0.2922 -0.1578
19366SOL    HW260991   0.173   8.737   1.508 -1.0145  1.5275 -0.6227
19367SOL     OW60992   0.291   3.980   1.098 -0.2807 -0.0984  0.0589
19367SOL    HW160993   0.271   4.050   1.161  0.9237  1.4011 -1.1449
19367SOL    HW260994   0.359   3.929   1.140 -0.2772  0.2103  0.4402
19368SOL     OW60995   4.440   8.395   3.831  0.1784 -0.3943 -0.4662
19368SOL    HW160996   4.498   8.406   3.906 -0.5709 -0.4820  0.1439
19368SOL    HW260997   4.362   8.447   3.853  0.4628  0.6480 -1.7685
19369SOL     OW60998   8.891   1.800   4.470  0.1266 -0.6694 -0.1494
19369SOL    HW160999   8.937   1.724   4.434  0.1728 -0.0320 -1.4802
19369SOL    HW261000   8.932   1.875   4.428 -0.8087  0.0232  0.1431
19370SOL     OW61001   6.883   2.350   2.014  0.2378  0.0085  0.3860
19370SOL    HW161002   6.847   2.277   1.963  1.5330  0.3847 -1.1244
19370SOL    HW261003   6.940   2.308   2.078 -1.4151 -0.4662  1.6372
19371SOL     OW61004   3.960   5.279   3.852 -0.9207  0.6025  0.3773
19371SOL    HW161005   4.047   5.296   3.887 -0.1128  0.3351 -1.3951
19371SOL    HW261006   3.975   5.226   3.774 -2.6866  0.4600  0.0806
19372SOL     OW61007   0.092   0.017   7.358  0.1913 -0.2607 -0.4103
19372SOL    HW161008   0.021  -0.027   7.404  0.6006 -0.4980  0.0091
19372SOL    HW261009   0.061   0.107   7.346 -0.5228 -0.5868 -1.0079
19373SOL     OW61010   0.936   4.778   2.025 -0.2864  0.7163  0.2649
19373SOL    HW161011   0.959   4.795   2.116 -0.4067 -1.7129  0.8228
19373SOL    HW261012   0.991   4.704   2.000 -0.2486  1.3485 -1.6680
19374SOL     OW61013   7.051   0.574   1.067 -0.9804 -0.0789 -0.4573
19374SOL    HW161014   7.104   0.545   0.992  0.3106 -1.6041  0.9672
19374SOL    HW261015   7.080   0.664   1.083 -1.3707  0.3251 -1.8299
19375SOL     OW61016   3.215   2.879   4.782  0.1686 -0.9369  0.0620
19375SOL    HW161017   3.298   2.913   4.816 -0.8117  0.4096  1.2256
19375SOL    HW261018   3.154   2.887   4.855 -1.5799  0.3750 -1.4359
19376SOL     OW61019   0.077   6.893   6.174 -0.0889 -0.5933 -0.4886
19376SOL    HW161020   0.091   6.834   6.248 -2.5393  0.3102  0.8401
19376SOL    HW261021   0.078   6.980   6.213  1.0853  0.1201 -2.0034
19377SOL     OW61022   7.850   6.830   8.013  0.0736 -0.1825  0.8518
19377SOL    HW161023   7.881   6.826   7.923  0.7790 -1.0861  1.1268
19377SOL    HW261024   7.815   6.919   8.023 -0.8043 -0.3470 -0.5662
19378SOL     OW61025   6.171   4.077   6.635 -0.0478 -0.1324  0.0298
19378SOL    HW161026   6.088   4.085   6.587 -0.2851  1.2865  0.6256
19378SOL    HW261027   6.238   4.091   6.569 -0.3593  1.2410 -0.0288
19379SOL     OW61028   6.959   4.178   6.023  0.0450 -0.1385 -0.3265
19379SOL    HW161029   7.009   4.113   6.072 -2.6664 -1.1564  1.3086
19379SOL    HW261030   6.982   4.261   6.064  0.8432 -0.5042 -0.0147
19380SOL     OW61031   0.161   4.140   4.841 -0.6438 -0.2622 -0.3841
19380SOL    HW161032   0.068   4.148   4.862 -0.4730 -0.1223  0.3490
19380SOL    HW261033   0.182   4.049   4.862 -0.2988  0.0750  0.8140
19381SOL     OW61034   4.204   5.285   4.680 -0.0704  0.1477  0.1960
19381SOL    HW161035   4.128   5.250   4.634  0.7098 -0.1792 -0.9102
19381SOL    HW261036   4.245   5.344   4.617  0.6995  0.1693  0.6998
19382SOL     OW61037   3.103   1.392   9.063 -0.0527  0.2633  0.2920
19382SOL    HW161038   3.116   1.358   9.152  0.6241 -0.5742 -0.1113
19382SOL    HW261039   3.029   1.342   9.029 -1.1583  1.4950  0.8208
19383SOL     OW61040   6.422   6.830   1.278 -0.1570  0.5097  0.0486
19383SOL    HW161041   6.446   6.910   1.323 -1.1664  1.8986 -1.7473
19383SOL    HW261042   6.351   6.856   1.218 -1.7001 -2.0530  0.5993
19384SOL     OW61043   6.616   3.846   1.924  0.2177  0.0547 -0.6363
19384SOL    HW161044   6.675   3.815   1.856 -1.4707  0.0074 -2.1390
19384SOL    HW261045   6.538   3.875   1.877 -0.4212  1.4184  1.1716
19385SOL     OW61046   6.067   2.838   8.016 -0.2795 -0.2112  0.6763
19385SOL    HW161047   6.128   2.765   8.029  1.0582  0.8603  0.5882
19385SOL    HW261048   5.981   2.800   8.034  0.4428 -1.6429  1.2981
19386SOL     OW61049   8.221   5.726   4.116  0.3295 -0.3258  0.4938
19386SOL    HW161050   8.285   5.735   4.046  1.3662  1.2931  1.5670
19386SOL    HW261051   8.170   5.807   4.112 -1.0037 -1.1440  0.2973
19387SOL     OW61052   4.906   3.017   5.636 -0.4782 -0.4353 -0.0027
19387SOL    HW161053   4.826   3.068   5.647 -0.1641 -0.2477  1.6886
19387SOL    HW261054   4.898   2.945   5.698  0.6885 -0.3480  0.2844
19388SOL     OW61055   6.942   0.853   1.392  0.2071  0.7477  0.0190
19388SOL    HW161056   6.975   0.914   1.325 -0.1067  2.0554  1.0358
19388SOL    HW261057   6.889   0.907   1.450 -3.3830 -1.1631 -1.2106
19389SOL     OW61058   0.613   5.251   6.012  0.2491 -0.2371 -0.7784
19389SOL    HW161059   0.617   5.273   5.919 -0.1614 -1.6854 -1.1622
19389SOL    HW261060   0.591   5.158   6.014  1.8878 -0.6415  0.7619
19390SOL     OW61061   4.649   3.448   9.181 -0.0143 -0.2774 -0.0050
19390SOL    HW161062   4.722   3.443   9.243 -0.9248  0.9338  1.2323
19390SOL    HW261063   4.572   3.465   9.236 -0.8029  1.2768 -1.4898
19391SOL     OW61064   2.267   7.876   0.707 -0.3512  0.0434  0.2514
19391SOL    HW161065   2.245   7.968   0.696 -0.4694  0.1764  1.4759
19391SOL    HW261066   2.286   7.867   0.801 -2.1740 -1.5601  0.5182
19392SOL     OW61067   6.825   0.668   1.993  0.4705  0.4973 -0.0903
19392SOL    HW161068   6.920   0.676   1.997  0.5639 -0.1545 -0.7874
19392SOL    HW261069   6.802   0.616   2.070  1.1510 -3.0698 -2.1280
19393SOL     OW61070   3.260   3.637   0.330  0.0684 -0.4147  0.5332
19393SOL    HW161071   3.222   3.725   0.342 -1.1450 -0.8209 -0.1019
19393SOL    HW261072   3.188   3.586   0.293  1.3503 -1.1623 -1.0222
19394SOL     OW61073   2.362   8.482   3.347 -0.5103  0.5493 -0.1259
19394SOL    HW161074   2.394   8.392   3.351  1.2356  1.0739 -0.8795
19394SOL    HW261075   2.268   8.474   3.331 -0.4565 -1.1244  0.2167
19395SOL     OW61076   8.662   7.078   5.296  0.6861 -0.6469  0.3572
19395SOL    HW161077   8.622   7.160   5.266  0.1372 -1.4859 -1.3929
19395SOL    HW261078   8.754   7.085   5.270  0.8490 -0.2354  1.0243
19396SOL     OW61079   6.967   0.408   6.119 -0.6421 -0.6111  0.2614
19396SOL    HW161080   7.035   0.377   6.060 -0.6692  0.3117 -0.2701
19396SOL    HW261081   6.901   0.339   6.119  0.1117 -1.3422  0.4875
19397SOL     OW61082   4.411   8.869   1.313 -0.5573 -0.2389  0.1333
19397SOL    HW161083   4.363   8.822   1.382  0.7709 -0.4468  0.9434
19397SOL    HW261084   4.371   8.956   1.313 -1.6245 -0.7115  0.0717
19398SOL     OW61085   2.659   4.244   5.197  1.0593 -0.0013 -0.0723
19398SOL    HW161086   2.648   4.167   5.141  2.2264  0.4233 -0.9375
19398SOL    HW261087   2.578   4.294   5.186  0.7190 -0.5964 -0.3227
19399SOL     OW61088   8.381   1.336   3.293  0.4481 -0.0796 -0.8052
19399SOL    HW161089   8.361   1.370   3.381  1.2999  0.6844 -0.8953
19399SOL    HW261090   8.296   1.316   3.255 -0.0253  0.9881 -0.3507
19400SOL     OW61091   9.514   7.932   7.852  0.0922 -0.2303  0.5664
19400SOL    HW161092   9.422   7.948   7.835 -0.2378 -0.3504  2.0545
19400SOL    HW261093   9.561   7.991   7.794 -0.8892 -0.9403 -0.9951
19401SOL     OW61094   2.606   1.048   8.029 -0.3595  0.0884  0.4233
19401SOL    HW161095   2.541   1.049   8.099 -0.5439  2.2933  0.2816
19401SOL    HW261096   2.690   1.038   8.074 -0.6866 -2.3482  0.6349
19402SOL     OW61097   6.176   7.956   0.958  0.4516 -0.1728  0.1729
19402SOL    HW161098   6.173   7.981   0.866 -4.1000 -0.2685  0.0867
19402SOL    HW261099   6.106   8.007   0.999 -0.3693 -3.0339  2.7015
19403SOL     OW61100   4.552   3.831   8.681 -0.1189 -0.5004  0.0485
19403SOL    HW161101   4.537   3.893   8.752 -0.1795 -0.2128 -0.2120
19403SOL    HW261102   4.573   3.886   8.605 -3.1021 -0.5673 -0.9851
19404SOL     OW61103   7.852   0.084   6.807 -0.3635  0.0728 -0.0480
19404SOL    HW161104   7.781   0.086   6.742  0.4176  1.6385 -0.8974
19404SOL    HW261105   7.827   0.150   6.872  1.0895  1.8966 -1.2546
19405SOL     OW61106   6.355   1.983   4.228 -0.8288  0.5778  0.3913
19405SOL    HW161107   6.316   1.927   4.160  0.4614 -1.7760  1.4429
19405SOL    HW261108   6.287   1.987   4.296 -1.1120  0.6796  0.1065
19406SOL     OW61109   7.480   1.266   2.607 -0.2651  0.0039 -0.2301
19406SOL    HW161110   7.496   1.275   2.513  1.1552  0.1092 -0.0054
19406SOL    HW261111   7.416   1.334   2.628 -0.3711  0.1686 -1.0709
19407SOL     OW61112   3.717   4.381   3.466  0.0759  0.0681 -0.0300
19407SOL    HW161113   3.808   4.396   3.494 -0.6504  0.4644  2.3504
19407SOL    HW261114   3.705   4.286   3.473  0.4197 -0.0374 -0.7881
19408SOL     OW61115   6.867   4.129   4.002  0.1782  0.0979 -0.3936
19408SOL    HW161116   6.924   4.057   3.975 -0.2611  0.0923 -1.3330
19408SOL    HW261117   6.835   4.167   3.920 -1.6554 -0.2786  0.0948
19409SOL     OW61118   3.739   5.296   1.684  0.8529  0.5212 -0.1887
19409SOL    HW161119   3.652   5.262   1.662  1.0266 -0.0681  0.0176
19409SOL    HW261120   3.724   5.356   1.757  0.7847 -0.6562  0.7884
19410SOL     OW61121   5.954   2.829   1.328 -0.1179  0.0700  0.8539
19410SOL    HW161122   5.883   2.772   1.298  0.1886  0.8070 -1.5358
19410SOL    HW261123   5.940   2.911   1.280  1.6472  0.6562  1.2704
19411SOL     OW61124   9.558   6.159   0.350 -0.3314 -0.3842 -0.2016
19411SOL    HW161125   9.594   6.116   0.428  0.0581 -1.9247 -1.1807
19411SOL    HW261126   9.534   6.246   0.380  0.8471 -0.5506  1.3732
19412SOL     OW61127   0.169   1.578   6.610 -0.1308  0.1448  0.0693
19412SOL    HW161128   0.186   1.539   6.525  0.0461  0.3893 -0.0075
19412SOL    HW261129   0.190   1.670   6.599 -0.3952  0.2352  0.2953
19413SOL     OW61130   7.414   2.613   5.286 -0.3540 -0.1794 -0.0644
19413SOL    HW161131   7.395   2.622   5.379  0.4418 -0.8382  0.1778
19413SOL    HW261132   7.399   2.521   5.267 -0.6678 -0.0181 -0.6324
19414SOL     OW61133   5.431   4.369   8.405  0.3639  0.0122  0.9542
19414SOL    HW161134   5.407   4.338   8.318 -0.1859 -0.0437  1.1220
19414SOL    HW261135   5.468   4.456   8.390  0.4384 -0.0711  0.6483
19415SOL     OW61136   9.362   8.225   4.340 -0.8034 -0.4824 -0.7324
19415SOL    HW161137   9.363   8.278   4.261  2.1246  1.3724  0.3395
19415SOL    HW261138   9.423   8.154   4.322 -1.4068 -1.0174 -0.6901
19416SOL     OW61139   2.440   0.962   4.980  0.2332  0.5899 -0.0245
19416SOL    HW161140   2.418   0.876   4.946  0.2200  0.8992 -0.8125
19416SOL    HW261141   2.536   0.963   4.984  0.2028  0.0779  1.2226
19417SOL     OW61142   2.534   0.139   0.082 -0.3195 -0.1578  0.1943
19417SOL    HW161143   2.562   0.220   0.124  2.0047 -0.8411  0.0824
19417SOL    HW261144   2.529   0.161  -0.011 -0.3934  0.0234  0.2397
19418SOL     OW61145   8.793   8.299   7.965  0.5283  0.0794 -0.0824
19418SOL    HW161146   8.806   8.386   8.003 -1.7407  0.5504 -0.2223
19418SOL    HW261147   8.712   8.268   8.004  1.1192 -1.8686 -0.2934
19419SOL     OW61148   0.971   2.999   2.860 -0.1046 -0.6388  0.4244
19419SOL    HW161149   0.904   3.066   2.851  1.3859  0.8187 -0.2958
19419SOL    HW261150   1.008   3.014   2.947  0.5233 -0.2297  0.0912
19420SOL     OW61151   3.932   7.321   3.609 -0.0845  0.2245 -0.1992
19420SOL    HW161152   3.939   7.411   3.639 -0.7738  0.6220 -1.1791
19420SOL    HW261153   4.012   7.279   3.640 -0.0663  0.9891  0.8491
19421SOL     OW61154   8.124   6.145   0.713  0.7344 -0.1272  0.2563
19421SOL    HW161155   8.217   6.169   0.713  0.4941  1.4494 -2.8284
19421SOL    HW261156   8.119   6.070   0.654  0.0767 -0.2931  0.5168
19422SOL     OW61157   8.506   4.188   4.621  0.0614 -0.3253 -0.2402
19422SOL    HW161158   8.488   4.264   4.677 -1.5197 -1.8835  1.5216
19422SOL    HW261159   8.596   4.164   4.642  0.1673  0.3541  0.1080
19423SOL     OW61160   9.064   4.601   0.667  0.6300 -0.5110 -0.2631
19423SOL    HW161161   9.087   4.694   0.667  0.6401 -0.4224  2.7042
19423SOL    HW261162   9.144   4.557   0.696  0.7941 -1.5745 -2.1497
19424SOL     OW61163   4.887   0.536   2.692  0.2146 -0.4978  0.2630
19424SOL    HW161164   4.857   0.582   2.613 -0.9445 -0.6483  0.5899
19424SOL    HW261165   4.811   0.485   2.720  0.8666 -1.0831  1.0229
19425SOL     OW61166   8.321   2.255   6.098  0.2231  0.1596 -0.4259
19425SOL    HW161167   8.273   2.272   6.018  1.9945 -0.1089 -1.6025
19425SOL    HW261168   8.315   2.337   6.148  0.8056  1.0578 -1.7811
19426SOL     OW61169   6.428   8.863   7.726 -0.1680  0.5559 -0.7143
19426SOL    HW161170   6.517   8.848   7.694  0.0253  0.8696 -0.3299
19426SOL    HW261171   6.373   8.849   7.650 -0.1385 -3.1538 -0.2475
19427SOL     OW61172   2.907   0.958   3.045  0.2194  0.2199 -0.0838
19427SOL    HW161173   2.832   0.964   2.985 -1.0003 -1.4149  1.1688
19427SOL    HW261174   2.965   0.895   3.003  0.3288  0.5939 -0.4982
19428SOL     OW61175   3.201   4.037   3.734 -0.7048 -0.9969  0.3633
19428SOL    HW161176   3.257   4.108   3.701 -1.2140  0.0514  1.7011
19428SOL    HW261177   3.214   3.966   3.670  0.9970 -0.2674 -0.1789
19429SOL     OW61178   4.879   1.966   7.377 -0.0602  0.4176  0.1658
19429SOL    HW161179   4.797   1.923   7.352  1.3069 -2.2978 -0.0575
19429SOL    HW261180   4.878   2.049   7.330 -2.2261  0.0101 -0.6119
19430SOL     OW61181   7.271   4.912   4.797 -0.2662 -0.0038  0.7463
19430SOL    HW161182   7.230   4.998   4.798 -1.4010 -0.5143  1.2789
19430SOL    HW261183   7.226   4.864   4.728 -0.6207 -0.5890  1.3608
19431SOL     OW61184   7.010   4.273   0.898 -0.2885  0.2762 -0.1933
19431SOL    HW161185   6.915   4.265   0.900 -0.1983 -0.6578  1.0454
19431SOL    HW261186   7.027   4.357   0.942 -0.5998  1.4859 -2.2338
19432SOL     OW61187   6.054   0.584   8.008  0.2074  0.4004  0.3434
19432SOL    HW161188   6.088   0.579   8.097 -1.6381  1.0122  1.1324
19432SOL    HW261189   5.968   0.542   8.013  0.1519  0.2743 -1.2010
19433SOL     OW61190   8.491   4.985   8.356  0.1782 -0.0593 -0.0385
19433SOL    HW161191   8.578   5.001   8.390  1.4128  0.1750 -3.0107
19433SOL    HW261192   8.439   5.060   8.384  1.9153  1.6421 -1.1200
19434SOL     OW61193   2.747   1.995   4.703  0.4995  0.0550  0.0364
19434SOL    HW161194   2.765   2.048   4.625  0.6480 -3.5333 -2.6260
19434SOL    HW261195   2.674   1.939   4.677 -0.2881 -0.4437  2.9992
19435SOL     OW61196   2.885   3.579   7.166  0.1438 -0.9138  0.1137
19435SOL    HW161197   2.833   3.641   7.217 -0.0468 -0.6137 -0.4435
19435SOL    HW261198   2.939   3.533   7.232  1.0654  0.5750  0.4405
19436SOL     OW61199   8.257   8.162   3.522  0.6028  0.0659  0.4916
19436SOL    HW161200   8.312   8.103   3.471 -0.4378 -0.3113 -0.2335
19436SOL    HW261201   8.172   8.119   3.526 -0.1718  1.4682  0.0115
19437SOL     OW61202   6.255   9.109   9.357 -0.5712  0.5056 -0.4745
19437SOL    HW161203   6.342   9.114   9.318  1.1014  1.3746  2.9789
19437SOL    HW261204   6.209   9.185   9.322  1.6718  2.6593  0.9314
19438SOL     OW61205   1.321   0.217   8.074 -0.2934 -0.2175 -0.1640
19438SOL    HW161206   1.243   0.262   8.041 -1.3588 -0.9162  1.2648
19438SOL    HW261207   1.389   0.284   8.078 -1.2301  0.7511 -0.1215
19439SOL     OW61208   4.651   0.559   1.117  0.0697 -0.1278  0.1396
19439SOL    HW161209   4.697   0.501   1.178 -1.3017 -1.2720  0.1477
19439SOL    HW261210   4.573   0.510   1.091  0.2072  0.6416 -1.9516
19440SOL     OW61211   0.248   5.723   5.256  0.0621  0.0181  0.0397
19440SOL    HW161212   0.166   5.754   5.295  0.5192  1.1538  0.1257
19440SOL    HW261213   0.315   5.749   5.319  0.3978 -1.9990  0.5819
19441SOL     OW61214   7.871   3.199   3.800 -0.4033 -0.3907 -0.4894
19441SOL    HW161215   7.785   3.228   3.769  0.2525  1.6856 -0.5552
19441SOL    HW261216   7.869   3.104   3.791 -3.0742 -0.5248  0.5146
19442SOL     OW61217   4.987   6.765   8.495 -0.0302  0.3280 -0.0764
19442SOL    HW161218   4.963   6.760   8.402  2.5625 -2.4696 -0.7396
19442SOL    HW261219   4.944   6.689   8.535  2.2659 -1.0274  0.0070
19443SOL     OW61220   5.835   4.397   9.377  0.6035 -0.0286 -0.7213
19443SOL    HW161221   5.848   4.385   9.283  1.6488 -3.6832 -0.2764
19443SOL    HW261222   5.924   4.407   9.413  0.2840  0.4028 -0.0160
19444SOL     OW61223   8.532   6.456   1.563 -0.0135 -0.6718 -0.3848
19444SOL    HW161224   8.465   6.392   1.538  0.4441 -1.0140 -0.7355
19444SOL    HW261225   8.615   6.411   1.549  0.3138  0.0314 -0.7395
19445SOL     OW61226   3.353   2.938   7.212 -0.4249  0.0398  0.0014
19445SOL    HW161227   3.384   2.849   7.197 -0.0282  0.0852  0.5227
19445SOL    HW261228   3.326   2.969   7.126 -0.7530 -0.6511 -0.1554
19446SOL     OW61229   1.457   0.908   0.909  0.7794  0.0664  0.3156
19446SOL    HW161230   1.413   0.887   0.992 -0.5852 -0.7326 -0.5668
19446SOL    HW261231   1.504   0.828   0.886  0.3265 -0.0634 -0.1747
19447SOL     OW61232   3.244   6.393   3.904  0.5680  0.0169 -0.2339
19447SOL    HW161233   3.240   6.370   3.811 -1.5313 -0.3700 -0.0841
19447SOL    HW261234   3.182   6.464   3.914 -0.6555 -1.1926  1.1810
19448SOL     OW61235   6.262   8.704   3.924  1.1436 -0.1315  0.3321
19448SOL    HW161236   6.294   8.614   3.933  1.7267  0.1452  1.1575
19448SOL    HW261237   6.170   8.695   3.902  1.2965 -0.9304 -0.0065
19449SOL     OW61238   2.222   6.544   1.585 -0.0835  0.6296 -0.2381
19449SOL    HW161239   2.253   6.634   1.584 -0.6003  0.8146  0.2624
19449SOL    HW261240   2.236   6.513   1.495 -0.4832  1.4019 -0.5785
19450SOL     OW61241   3.786   7.577   4.463 -0.6524  0.3548  0.0881
19450SOL    HW161242   3.720   7.637   4.496  0.1148  0.8806  0.7212
19450SOL    HW261243   3.846   7.564   4.537 -0.0850 -0.1501 -0.4439
19451SOL     OW61244   7.285   8.256   1.387 -0.5359 -0.4125 -0.0563
19451SOL    HW161245   7.236   8.175   1.404 -1.2045  0.4761  2.7629
19451SOL    HW261246   7.376   8.232   1.402 -0.6240 -0.9066 -0.2997
19452SOL     OW61247   8.917   1.269   7.052 -0.2609 -0.1757 -0.2066
19452SOL    HW161248   8.832   1.261   7.010 -0.4857 -0.0511  0.2237
19452SOL    HW261249   8.973   1.307   6.984 -0.9572  1.3307  0.0255
19453SOL     OW61250   4.108   0.101   3.882  0.0960 -0.5132 -0.1593
19453SOL    HW161251   4.083   0.129   3.970 -0.9684  0.2208 -0.6627
19453SOL    HW261252   4.177   0.162   3.856 -2.7953  2.5039 -1.5880
19454SOL     OW61253   2.718   2.368   9.295  0.1741 -0.2462 -0.3344
19454SOL    HW161254   2.774   2.321   9.234 -0.2118 -2.4226  0.8824
19454SOL    HW261255   2.630   2.335   9.278 -0.6498  2.3016 -1.4605
19455SOL     OW61256   3.069   8.384   5.644  0.0142 -0.8317 -0.3817
19455SOL    HW161257   3.093   8.452   5.581 -0.1702  0.1053  0.5211
19455SOL    HW261258   3.152   8.363   5.688 -0.0994 -0.4171  0.0500
19456SOL     OW61259   5.970   1.456   0.081  0.3258 -0.0904 -0.5448
19456SOL    HW161260   6.051   1.505   0.098 -0.7797  1.1233  1.5786
19456SOL    HW261261   5.983   1.372   0.124  0.6522 -0.1066 -0.6715
19457SOL     OW61262   6.322   7.609   7.233 -0.6240 -0.4544 -0.4266
19457SOL    HW161263   6.295   7.701   7.233 -0.3047 -0.3579  0.2431
19457SOL    HW261264   6.417   7.611   7.232 -0.6169 -0.7942 -1.6493
19458SOL     OW61265   8.284   5.342   8.944  0.7246  0.1682 -0.8025
19458SOL    HW161266   8.335   5.422   8.954 -0.5047  1.2431 -2.5629
19458SOL    HW261267   8.328   5.293   8.874  1.2629 -0.5341  0.0146
19459SOL     OW61268   1.792   8.263   2.803 -0.3808 -0.2805 -0.0167
19459SOL    HW161269   1.746   8.267   2.886 -0.3732 -2.1597  0.1188
19459SOL    HW261270   1.725   8.282   2.737 -0.5244  0.5735  0.3659
19460SOL     OW61271   9.489   2.731   8.155 -0.7835  0.2577  0.5948
19460SOL    HW161272   9.561   2.767   8.207 -0.3625 -0.5631  0.5868
19460SOL    HW261273   9.457   2.806   8.104  0.0301  0.6473  0.6408
19461SOL     OW61274   6.464   5.378   8.332 -0.2158  0.8327 -0.3207
19461SOL    HW161275   6.391   5.381   8.271 -0.3386  0.2723 -0.2060
19461SOL    HW261276   6.474   5.285   8.353 -1.6453  1.1621  2.2604
19462SOL     OW61277   9.226   0.888   2.068  0.1338 -0.2577 -0.4412
19462SOL    HW161278   9.188   0.812   2.113  0.0368 -0.7736 -1.3719
19462SOL    HW261279   9.281   0.930   2.135 -2.6061  0.9939  1.2381
19463SOL     OW61280   5.803   9.595   2.655  0.2428  0.2784  0.1072
19463SOL    HW161281   5.780   9.687   2.641  1.5054  0.8737  1.5487
19463SOL    HW261282   5.784   9.580   2.748  1.0178 -0.5853  0.1441
19464SOL     OW61283   2.563   4.509   6.700 -0.1208  0.0081 -0.4278
19464SOL    HW161284   2.543   4.514   6.794  1.7676 -2.7934  0.2472
19464SOL    HW261285   2.480   4.528   6.657 -1.3902  0.0241  1.8649
19465SOL     OW61286   9.335   9.569   1.606 -0.1459  0.1460 -0.3480
19465SOL    HW161287   9.345   9.664   1.614  0.2025  0.0772  0.0434
19465SOL    HW261288   9.423   9.538   1.584 -0.0429 -0.1950  0.5290
19466SOL     OW61289   3.103   1.053   4.312 -0.6347  0.2930  0.0457
19466SOL    HW161290   3.095   0.961   4.337 -0.2375  0.4669  0.8679
19466SOL    HW261291   3.090   1.101   4.394 -3.5917  1.1439 -0.7981
19467SOL     OW61292   9.453   3.708   2.217  0.2001  0.2317  0.0473
19467SOL    HW161293   9.423   3.798   2.204 -0.9891 -0.0642  0.5888
19467SOL    HW261294   9.435   3.664   2.134  1.8404  0.7450 -0.6175
19468SOL     OW61295   9.475   0.672   3.745 -0.4686  0.2183 -0.6754
19468SOL    HW161296   9.504   0.762   3.730  0.5102 -0.1942 -1.3426
19468SOL    HW261297   9.394   0.664   3.695 -0.6531  0.7875 -0.4665
19469SOL     OW61298   3.793   7.675   3.774  0.3952 -0.7488 -0.8466
19469SOL    HW161299   3.816   7.756   3.820 -2.1799  0.7743 -2.0346
19469SOL    HW261300   3.859   7.667   3.706  0.8902  0.1559 -0.5019
19470SOL     OW61301   8.423   5.648   4.459 -0.3388 -0.2287 -0.6339
19470SOL    HW161302   8.389   5.641   4.548 -0.6679  0.3095 -0.7120
19470SOL    HW261303   8.355   5.695   4.411  0.3259  0.4825 -0.8993
19471SOL     OW61304   5.076   9.110   4.443  0.1411  0.2335  0.4019
19471SOL    HW161305   5.156   9.150   4.475  1.5072 -1.4900 -0.6684
19471SOL    HW261306   5.025   9.092   4.522  1.7852 -0.5895  1.3254
19472SOL     OW61307   3.927   8.431   7.423 -0.5686 -0.0461  0.5081
19472SOL    HW161308   3.871   8.493   7.376  0.4664 -0.4014 -1.2972
19472SOL    HW261309   3.869   8.388   7.485 -1.7380  1.3160  0.4063
19473SOL     OW61310   9.416   7.641   5.303 -0.1654  0.3566 -0.3914
19473SOL    HW161311   9.401   7.551   5.274  0.1075  0.2566 -0.2326
19473SOL    HW261312   9.487   7.672   5.246  1.6188 -0.4302  1.2717
19474SOL     OW61313   1.826   1.098   9.369 -0.6939  0.3168  0.2709
19474SOL    HW161314   1.760   1.105   9.438  1.7515 -1.1779  3.0042
19474SOL    HW261315   1.810   1.012   9.330 -1.0417  0.4357  0.1477
19475SOL     OW61316   8.671   1.644   7.717 -0.2503  0.6478 -0.1338
19475SOL    HW161317   8.710   1.664   7.632  2.1229  3.3849  1.4061
19475SOL    HW261318   8.740   1.599   7.766 -1.4087 -0.4662  0.5369
19476SOL     OW61319   0.715   8.746   9.523 -0.0173  0.0665  0.3917
19476SOL    HW161320   0.707   8.772   9.615 -0.0130  0.7397  0.2023
19476SOL    HW261321   0.809   8.727   9.512 -0.1026 -0.5639  0.6635
19477SOL     OW61322   8.671   0.124   1.009  0.8680 -0.1167 -0.3242
19477SOL    HW161323   8.665   0.055   1.076  0.6089  0.0833 -0.1365
19477SOL    HW261324   8.647   0.204   1.056  0.0808 -0.0635 -0.8000
19478SOL     OW61325   7.217   5.411   1.773  0.4841 -0.1694  0.5728
19478SOL    HW161326   7.287   5.350   1.796  0.8396  0.7716  2.2183
19478SOL    HW261327   7.176   5.432   1.857 -1.1824  0.0181 -0.2498
19479SOL     OW61328   4.486   4.442   0.716  0.1211  0.0394 -0.0111
19479SOL    HW161329   4.519   4.505   0.652  0.7952  0.2187  0.4905
19479SOL    HW261330   4.397   4.471   0.735  0.5428  1.0769  0.4788
19480SOL     OW61331   6.005   1.158   4.627 -0.2684 -0.2747 -0.4730
19480SOL    HW161332   6.010   1.202   4.543 -0.0172  2.1392  0.7351
19480SOL    HW261333   5.912   1.140   4.640 -0.7942  2.5429  0.2218
19481SOL     OW61334   1.277   5.996   8.158  0.4516  0.0519 -0.0413
19481SOL    HW161335   1.314   6.040   8.234  0.7605  1.1598 -0.8135
19481SOL    HW261336   1.255   5.908   8.190  2.1879 -0.0966  0.8944
19482SOL     OW61337   7.955   1.247   8.914 -0.3496 -0.6448 -0.2387
19482SOL    HW161338   7.894   1.266   8.986  0.6250 -1.1299  0.7546
19482SOL    HW261339   8.017   1.184   8.951  0.9915  0.1189 -1.0770
19483SOL     OW61340   7.189   3.488   8.878 -0.0316 -0.3917  0.5140
19483SOL    HW161341   7.122   3.557   8.873  1.5472  1.2382  0.5571
19483SOL    HW261342   7.230   3.500   8.964  0.4358 -1.2201  0.4162
19484SOL     OW61343   1.293   0.441   7.381 -0.3390  0.5576  0.0556
19484SOL    HW161344   1.208   0.468   7.415 -0.1509  0.9512  0.2203
19484SOL    HW261345   1.320   0.512   7.323 -0.8202 -0.2688 -1.2254
19485SOL     OW61346   0.481   6.928   2.859 -0.4720 -0.2980  0.5553
19485SOL    HW161347   0.480   6.881   2.776 -0.3642 -1.4621  1.1975
19485SOL    HW261348   0.404   6.984   2.857 -2.9086 -3.3847  1.3792
19486SOL     OW61349   0.925   7.726   7.362  0.5192  0.2322 -0.3858
19486SOL    HW161350   0.954   7.800   7.416  0.4633 -0.9255  1.3154
19486SOL    HW261351   0.844   7.698   7.403 -0.9833  0.9178 -2.6887
19487SOL     OW61352   1.548   6.478   7.982 -0.1762 -0.1130  0.4214
19487SOL    HW161353   1.534   6.567   8.014 -0.7273  0.4301 -1.2240
19487SOL    HW261354   1.468   6.431   8.007 -0.6544  0.3372 -0.2243
19488SOL     OW61355   6.001   9.299   3.869 -0.3017  0.1054 -0.0921
19488SOL    HW161356   5.999   9.277   3.962  0.0915  0.2181 -0.0591
19488SOL    HW261357   6.039   9.386   3.865  0.3360 -0.1820 -0.4124
19489SOL     OW61358   5.211   5.034   5.488 -0.3722 -0.7620  0.3169
19489SOL    HW161359   5.117   5.026   5.476 -0.7054  1.4308  0.9638
19489SOL    HW261360   5.221   5.105   5.552  1.7228 -0.1013 -0.6495
19490SOL     OW61361   5.196   5.211   1.719  0.1111  0.0491 -0.3424
19490SOL    HW161362   5.244   5.212   1.636  0.0910 -0.4108 -0.3670
19490SOL    HW261363   5.263   5.193   1.785  0.5112  2.5985  0.0401
19491SOL     OW61364   5.083   6.324   8.980 -0.0334 -1.2265 -0.5774
19491SOL    HW161365   5.121   6.411   8.969  0.0887 -1.3475 -1.1110
19491SOL    HW261366   5.131   6.287   9.055 -0.7963 -0.4527  0.3232
19492SOL     OW61367   1.053   1.240   7.971 -0.6636  0.2234 -0.0461
19492SOL    HW161368   1.107   1.316   7.990 -1.5152  0.9381 -0.3905
19492SOL    HW261369   0.970   1.258   8.015 -1.2908  0.0679 -1.1180
19493SOL     OW61370   5.492   6.418   2.815 -0.9265  0.2497  0.3775
19493SOL    HW161371   5.511   6.371   2.734  0.2626  2.3991 -0.6865
19493SOL    HW261372   5.557   6.385   2.877 -0.0604  0.4858 -0.3729
19494SOL     OW61373   5.094   7.302   1.969  0.3355 -0.3791 -0.6732
19494SOL    HW161374   5.135   7.373   2.017  1.7810 -1.2270 -0.5934
19494SOL    HW261375   5.147   7.291   1.890 -0.8678 -0.2768 -1.5330
19495SOL     OW61376   3.656   7.946   9.371  0.3234 -0.0624  0.1972
19495SOL    HW161377   3.640   8.021   9.313 -0.2634 -0.1893  0.1895
19495SOL    HW261378   3.645   7.981   9.459  0.8693  0.0500  0.2224
19496SOL     OW61379   1.370   8.790   2.694  0.0188  1.1559 -0.2441
19496SOL    HW161380   1.276   8.791   2.677 -0.0324 -0.0429 -0.0714
19496SOL    HW261381   1.408   8.843   2.623 -0.6881  0.7278 -0.9590
19497SOL     OW61382   5.931   0.809   6.831  0.5150 -0.1045 -0.6844
19497SOL    HW161383   6.001   0.848   6.779  0.1989  0.1336 -0.9312
19497SOL    HW261384   5.895   0.740   6.775  0.6473 -0.3269 -0.4990
19498SOL     OW61385   5.161   3.934   9.303  0.4986 -0.4479  0.1078
19498SOL    HW161386   5.204   3.849   9.299 -0.4156 -0.9268  0.2449
19498SOL    HW261387   5.134   3.943   9.394  0.0359 -0.2905 -0.0437
19499SOL     OW61388   5.354   7.791   6.125 -0.6879 -0.6291 -0.4533
19499SOL    HW161389   5.349   7.884   6.105 -1.4084 -0.7847 -1.0553
19499SOL    HW261390   5.369   7.787   6.219 -1.6815  0.0949 -0.2481
19500SOL     OW61391   6.761   8.820   1.927  0.2490 -0.5952  0.2286
19500SOL    HW161392   6.715   8.813   1.843  0.1981  2.2462 -0.0677
19500SOL    HW261393   6.695   8.799   1.992 -0.7072  0.6273 -0.3154
19501SOL     OW61394   8.630   7.569   3.819  0.4381 -0.6223 -0.1090
19501SOL    HW161395   8.694   7.552   3.888  0.5581 -0.7032 -0.2383
19501SOL    HW261396   8.551   7.521   3.846  0.7117 -1.2337 -0.3721
19502SOL     OW61397   0.223   0.195   3.907 -0.1651 -0.1301 -0.7978
19502SOL    HW161398   0.279   0.157   3.974  2.0723  0.1145 -2.4142
19502SOL    HW261399   0.188   0.274   3.948  0.4065 -0.4663  0.3832
19503SOL     OW61400   5.638   9.256   6.380 -0.4024 -0.3897 -0.0171
19503SOL    HW161401   5.663   9.343   6.351  2.2705 -1.5920 -1.6470
19503SOL    HW261402   5.610   9.211   6.299 -0.7701 -1.3603  0.6293
19504SOL     OW61403   9.394   9.101   3.551 -0.1113  0.2180  0.2760
19504SOL    HW161404   9.356   9.056   3.475  0.1582 -2.4839  1.6182
19504SOL    HW261405   9.482   9.126   3.522 -0.6022  0.7397 -0.8119
19505SOL     OW61406   9.010   1.322   2.660 -0.4604  0.0922  0.4332
19505SOL    HW161407   8.998   1.288   2.572 -0.4165 -0.1464  0.5189
19505SOL    HW261408   8.932   1.292   2.708 -0.8768  0.8901  0.2752
19506SOL     OW61409   0.243   1.333   5.974 -0.4871  0.4764 -0.2593
19506SOL    HW161410   0.162   1.329   6.025  0.0451 -2.9267  0.6330
19506SOL    HW261411   0.233   1.265   5.907  2.2509 -1.5607  1.1524
19507SOL     OW61412   3.306   6.722   3.819 -0.2608 -0.2576  0.2262
19507SOL    HW161413   3.232   6.755   3.870 -0.4923  0.5103 -0.5774
19507SOL    HW261414   3.352   6.663   3.878 -1.2032 -0.3156  0.9184
19508SOL     OW61415   9.053   5.552   2.797  0.3155  0.2790 -0.5534
19508SOL    HW161416   9.115   5.494   2.753 -1.0507  0.6682 -3.2097
19508SOL    HW261417   9.104   5.594   2.866  2.5285 -0.6726 -1.5173
19509SOL     OW61418   0.632   6.934   7.846 -0.3066 -0.6573 -0.4774
19509SOL    HW161419   0.556   6.976   7.805 -0.7250 -1.5206 -0.5974
19509SOL    HW261420   0.597   6.892   7.924  0.1166 -0.7793 -0.3508
19510SOL     OW61421   3.484   0.670   2.907  0.4092  0.3750  0.8292
19510SOL    HW161422   3.476   0.744   2.967  0.0437  1.0566 -0.0366
19510SOL    HW261423   3.560   0.622   2.939  0.1488  0.6546  1.9050
19511SOL     OW61424   6.172   6.389   4.154  0.5393  0.5833 -0.2665
19511SOL    HW161425   6.108   6.330   4.194 -0.0093  1.2247 -0.1726
19511SOL    HW261426   6.257   6.353   4.179  0.2144 -0.0533 -0.0509
19512SOL     OW61427   5.160   5.734   9.510  0.6608  0.3104  0.3069
19512SOL    HW161428   5.199   5.674   9.572  1.7613 -0.2171 -0.8534
19512SOL    HW261429   5.163   5.820   9.553  1.1622 -0.0841  1.0684
19513SOL     OW61430   1.854   1.764   6.046  0.2799 -0.6525  0.3327
19513SOL    HW161431   1.911   1.788   6.119  1.0572 -0.5440 -0.2987
19513SOL    HW261432   1.768   1.797   6.071  0.9942  1.4767  0.1568
19514SOL     OW61433   5.277   2.758   0.110 -0.2035  0.4944 -0.4915
19514SOL    HW161434   5.207   2.705   0.072  0.3702 -0.8698  0.3046
19514SOL    HW261435   5.286   2.832   0.050 -1.1909 -0.1748 -1.4953
19515SOL     OW61436   7.148   2.564   8.143  0.3782  0.6219  0.3231
19515SOL    HW161437   7.147   2.471   8.167  1.6335  0.1892 -1.1096
19515SOL    HW261438   7.063   2.597   8.171  0.3416 -0.6713  1.9076
19516SOL     OW61439   7.063   1.003   7.401 -0.3714 -0.6669  0.2059
19516SOL    HW161440   6.988   1.060   7.383 -0.8714 -0.8930  1.4254
19516SOL    HW261441   7.127   1.060   7.443 -0.6479 -0.8683  0.9176
19517SOL     OW61442   6.957   5.573   3.467  0.0971  0.2221 -0.2432
19517SOL    HW161443   6.924   5.529   3.545  0.7396 -0.8453 -0.5533
19517SOL    HW261444   7.051   5.580   3.481  0.2214  0.0064 -0.9255
19518SOL     OW61445   1.659   6.513   3.855 -0.0813 -0.2223 -0.3710
19518SOL    HW161446   1.600   6.527   3.781 -1.1664  0.0410  0.5141
19518SOL    HW261447   1.686   6.601   3.882 -0.9870 -0.2110  0.5456
19519SOL     OW61448   2.390   0.880   1.318  0.4839  0.4566  0.1343
19519SOL    HW161449   2.346   0.952   1.363  1.5348  0.8084  0.6328
19519SOL    HW261450   2.323   0.844   1.260 -1.4050 -0.9113  2.9153
19520SOL     OW61451   7.346   2.955   5.836  0.4731 -0.3844  0.1288
19520SOL    HW161452   7.395   3.014   5.779 -1.8219  0.5138 -1.0458
19520SOL    HW261453   7.281   3.011   5.879 -1.1542 -1.8626 -0.2967
19521SOL     OW61454   0.374   4.729   7.045  0.5730  0.2925  0.2526
19521SOL    HW161455   0.335   4.800   6.994  1.6673  0.0909 -0.9331
19521SOL    HW261456   0.454   4.766   7.081  0.1066  0.2512  1.3521
19522SOL     OW61457   3.300   5.993   2.575 -0.5863  0.3688 -0.0310
19522SOL    HW161458   3.339   6.070   2.617 -0.1676  0.0636  0.1412
19522SOL    HW261459   3.374   5.936   2.557 -0.9735 -0.2987  0.4616
19523SOL     OW61460   7.736   2.775   2.057 -0.0918 -0.6187  0.8386
19523SOL    HW161461   7.750   2.737   1.970 -0.7002 -1.4815  1.1088
19523SOL    HW261462   7.795   2.851   2.059  0.7324 -1.2099  0.0741
19524SOL     OW61463   1.384   3.008   8.107  0.1949  0.5864 -0.1672
19524SOL    HW161464   1.300   2.975   8.073  1.3792 -0.4546 -2.2704
19524SOL    HW261465   1.422   2.933   8.152  1.2959  0.0525 -1.8667
19525SOL     OW61466   9.570   2.049   7.933 -0.2853 -0.0332 -0.3385
19525SOL    HW161467   9.589   2.128   7.983 -0.3896 -1.1092  1.4623
19525SOL    HW261468   9.646   1.992   7.947 -0.2881 -0.3406 -1.4664
19526SOL     OW61469   9.386   2.120   3.823  0.0543 -0.0333 -0.9095
19526SOL    HW161470   9.343   2.185   3.767 -1.5419  1.1691  1.5563
19526SOL    HW261471   9.329   2.044   3.820 -0.9493  0.6290  0.2997
19527SOL     OW61472   2.617   8.209   0.611  0.5260 -0.4123  0.6261
19527SOL    HW161473   2.699   8.252   0.587  0.5403 -0.3245  0.8365
19527SOL    HW261474   2.641   8.150   0.683  0.8744 -2.0930 -0.8009
19528SOL     OW61475   5.786   1.026   1.654  0.1488  0.1620 -0.2916
19528SOL    HW161476   5.836   1.070   1.723  1.4234 -1.1443 -0.3231
19528SOL    HW261477   5.765   1.095   1.592 -1.6593  1.5274  1.7073
19529SOL     OW61478   8.296   6.415   6.471  0.0879  0.2021 -0.2834
19529SOL    HW161479   8.305   6.509   6.484  0.9077 -0.0395  1.1000
19529SOL    HW261480   8.230   6.406   6.402  0.1878  1.7830 -0.6070
19530SOL     OW61481   5.125   8.806   7.632 -0.2640  0.4760  0.4164
19530SOL    HW161482   5.186   8.753   7.683 -0.5663 -0.1310  0.1654
19530SOL    HW261483   5.045   8.806   7.684 -0.4714  0.1251  0.1056
19531SOL     OW61484   6.821   2.320   5.497  0.0660 -0.2262 -0.1935
19531SOL    HW161485   6.757   2.356   5.436  1.2652 -0.8355 -1.8875
19531SOL    HW261486   6.783   2.337   5.583 -2.2476 -0.3558 -1.0975
19532SOL     OW61487   3.831   9.053   6.371 -0.5087 -0.1234  0.4536
19532SOL    HW161488   3.809   9.016   6.286 -0.4530 -0.7952  0.7216
19532SOL    HW261489   3.751   9.042   6.423 -0.2298 -0.6498  0.7894
19533SOL     OW61490   5.041   0.418   2.379  0.7227 -0.1364 -0.0313
19533SOL    HW161491   4.994   0.500   2.397 -2.1775 -1.1932 -2.1120
19533SOL    HW261492   5.081   0.431   2.293  1.3512 -0.4740  0.2017
19534SOL     OW61493   6.323   6.791   7.253  0.0718  0.2062 -0.2568
19534SOL    HW161494   6.398   6.850   7.246 -0.1921  0.7818  1.3711
19534SOL    HW261495   6.324   6.761   7.344 -1.5177  0.0544 -0.2572
19535SOL     OW61496   0.884   7.549   5.659  0.6771  0.4276  0.0142
19535SOL    HW161497   0.799   7.553   5.615  1.8373  0.1510 -2.4371
19535SOL    HW261498   0.893   7.635   5.701  0.0196  1.2656 -1.4524
19536SOL     OW61499   4.226   8.010   3.180  0.0770 -0.1057  0.5470
19536SOL    HW161500   4.139   8.022   3.144 -0.7899 -1.2384  2.1481
19536SOL    HW261501   4.285   8.030   3.107 -1.4276  2.1360 -0.1742
19537SOL     OW61502   1.613   2.342   8.206  0.3424  0.3932  0.0771
19537SOL    HW161503   1.617   2.312   8.296 -0.8626  0.1879  0.0817
19537SOL    HW261504   1.592   2.435   8.212 -0.2909  0.2594  0.0116
19538SOL     OW61505   4.325   4.145   7.030  0.1658  0.1031  0.3810
19538SOL    HW161506   4.235   4.129   7.058  0.0426  1.3201  0.7545
19538SOL    HW261507   4.362   4.058   7.017 -0.8691 -0.4277  0.8407
19539SOL     OW61508   8.978   6.099   1.205  0.1455  0.2318  0.2171
19539SOL    HW161509   8.962   6.192   1.187  1.1495  0.3499 -0.1378
19539SOL    HW261510   9.027   6.098   1.287  0.9287  0.0804 -0.2461
19540SOL     OW61511   4.877   6.538   4.013  0.6019 -0.0175 -0.4750
19540SOL    HW161512   4.849   6.541   3.921 -1.5183 -1.7794  0.0125
19540SOL    HW261513   4.863   6.627   4.045 -1.4541 -0.0323 -1.1716
19541SOL     OW61514   0.955   9.566   1.211  0.2913 -0.6470 -0.2029
19541SOL    HW161515   0.927   9.529   1.294 -0.1712  1.9787  0.9315
19541SOL    HW261516   0.874   9.580   1.162  0.0597  1.4796  0.6445
19542SOL     OW61517   4.844   9.490   1.690 -0.4664 -0.0605 -0.3530
19542SOL    HW161518   4.938   9.473   1.682 -1.0111 -3.3131 -1.2264
19542SOL    HW261519   4.816   9.509   1.601 -0.7221  0.6863 -0.1249
19543SOL     OW61520   8.629   3.004   0.552  0.5900 -0.0958 -0.5079
19543SOL    HW161521   8.707   2.988   0.499  2.1530  3.5028  0.4238
19543SOL    HW261522   8.604   3.094   0.532 -2.2635 -0.5424  0.6194
19544SOL     OW61523   6.500   4.487   6.579 -0.1908 -0.2985 -0.0508
19544SOL    HW161524   6.433   4.503   6.512 -1.0009 -0.5389  0.6785
19544SOL    HW261525   6.576   4.537   6.550 -0.9443  0.6100 -0.5090
19545SOL     OW61526   6.189   7.381   4.472  0.4487  0.2236  0.2846
19545SOL    HW161527   6.268   7.340   4.508  0.8419  0.9453  0.2716
19545SOL    HW261528   6.219   7.421   4.391 -0.5977 -2.1009 -1.3693
19546SOL     OW61529   2.203   7.584   3.167  0.1231 -0.4332 -0.0484
19546SOL    HW161530   2.271   7.519   3.185  0.7392  0.0913 -0.4604
19546SOL    HW261531   2.246   7.650   3.112 -0.7249 -0.1138 -0.3479
19547SOL     OW61532   2.551   0.688   8.172 -0.0877  0.0932 -0.0601
19547SOL    HW161533   2.510   0.729   8.096  0.0194 -0.5001 -0.4398
19547SOL    HW261534   2.478   0.672   8.233 -0.0958  1.0720  0.2000
19548SOL     OW61535   3.815   7.831   2.956  0.0720  0.2644 -0.7501
19548SOL    HW161536   3.758   7.841   3.032  0.2040  1.3981 -0.7764
19548SOL    HW261537   3.757   7.804   2.885 -0.4554  1.4618 -0.7920
19549SOL     OW61538   0.261   1.418   1.658  0.0953  0.2874  0.0968
19549SOL    HW161539   0.300   1.490   1.610 -1.6505  0.3610 -1.3518
19549SOL    HW261540   0.312   1.411   1.739  0.1767  3.2734  0.4008
19550SOL     OW61541   2.721   9.188   9.460 -0.3113  0.0073 -0.3508
19550SOL    HW161542   2.663   9.224   9.393  0.7398 -0.3962 -1.5295
19550SOL    HW261543   2.747   9.103   9.425  3.8579  1.6156 -1.7586
19551SOL     OW61544   8.243   8.919   3.002 -0.0283 -0.4758 -0.5101
19551SOL    HW161545   8.327   8.916   3.047  0.7439  0.8663 -1.7850
19551SOL    HW261546   8.179   8.939   3.071  1.0808  1.2729  0.0553
19552SOL     OW61547   1.236   7.962   2.348  0.1647  0.4912  0.1562
19552SOL    HW161548   1.305   7.903   2.380  1.0897  0.0775 -2.4123
19552SOL    HW261549   1.280   8.046   2.338 -0.7538  1.2895  2.2360
19553SOL     OW61550   3.341   8.572   8.071 -0.6578 -0.2699  0.0314
19553SOL    HW161551   3.255   8.567   8.112 -0.3738 -2.9150  0.4839
19553SOL    HW261552   3.398   8.613   8.136 -1.1765 -0.2396  0.4622
19554SOL     OW61553   2.213   5.369   7.639 -0.0224  0.8081  0.0128
19554SOL    HW161554   2.309   5.370   7.632 -0.0676 -0.7745 -1.5923
19554SOL    HW261555   2.182   5.412   7.559 -0.6096 -0.9717 -0.7773
19555SOL     OW61556   5.506   3.375   8.630  0.2564 -0.1828  0.6102
19555SOL    HW161557   5.491   3.289   8.671 -1.5136 -0.4958 -0.5392
19555SOL    HW261558   5.555   3.355   8.551  1.0706  0.0622  1.0397
19556SOL     OW61559   6.088   3.891   2.614 -1.0132 -0.8184 -0.2831
19556SOL    HW161560   6.181   3.881   2.633 -1.3816 -2.7487  0.7444
19556SOL    HW261561   6.069   3.984   2.631  0.6479 -0.4560 -0.2877
19557SOL     OW61562   6.977   0.462   8.195 -0.0124 -0.2500 -0.4138
19557SOL    HW161563   7.051   0.451   8.135  0.3001  0.2443 -0.1270
19557SOL    HW261564   6.903   0.483   8.139  0.1529 -0.3767 -0.6774
19558SOL     OW61565   6.235   6.207   8.483 -0.2277 -0.1147  0.0767
19558SOL    HW161566   6.252   6.226   8.391  0.5498 -0.9499  0.0291
19558SOL    HW261567   6.317   6.230   8.527 -0.5975  0.2806  0.5600
19559SOL     OW61568   6.338   7.563   2.848  0.2362  0.0200  0.2140
19559SOL    HW161569   6.315   7.582   2.939  1.2360 -0.5073  0.5921
19559SOL    HW261570   6.432   7.547   2.850 -0.1151 -2.5555 -0.4475
19560SOL     OW61571   1.803   9.407   1.298  0.3401  0.3688  0.4500
19560SOL    HW161572   1.779   9.403   1.390  2.0552 -1.3230  0.8917
19560SOL    HW261573   1.823   9.316   1.275  1.5902  0.9933 -1.1095
19561SOL     OW61574   0.220   1.202   7.428 -0.1552  0.7599 -0.4552
19561SOL    HW161575   0.202   1.215   7.335  0.5388  1.6401 -0.4766
19561SOL    HW261576   0.142   1.157   7.461 -0.5482  0.7240 -1.3905
19562SOL     OW61577   2.794   7.683   5.538 -0.3948 -0.3809 -0.4144
19562SOL    HW161578   2.813   7.770   5.572 -0.7616  0.6675 -2.7051
19562SOL    HW261579   2.878   7.650   5.507 -0.2447 -0.9078  0.5069
19563SOL     OW61580   7.786   7.892   5.488  0.5527 -0.5461  0.5329
19563SOL    HW161581   7.772   7.880   5.394 -3.0608 -1.4368  1.0404
19563SOL    HW261582   7.820   7.807   5.517 -2.4720 -1.8671  0.5653
19564SOL     OW61583   0.869   6.369   1.180 -0.4424  0.0736 -0.3282
19564SOL    HW161584   0.932   6.434   1.212  0.2180 -1.1341  0.9280
19564SOL    HW261585   0.913   6.329   1.105 -0.4682  0.4391 -0.5417
19565SOL     OW61586   1.437   3.189   0.092 -0.1816 -0.1380  0.1616
19565SOL    HW161587   1.378   3.144   0.032 -2.8157  0.3843  2.1845
19565SOL    HW261588   1.514   3.132   0.098 -0.5275 -0.9727 -2.3663
19566SOL     OW61589   5.312   2.168   6.198 -0.0385  0.3348  0.1601
19566SOL    HW161590   5.390   2.114   6.213 -1.4153 -1.6731  0.6507
19566SOL    HW261591   5.244   2.104   6.174 -1.3516  2.0888 -1.0250
19567SOL     OW61592   8.696   5.478   8.915  0.1337  0.0034  0.1972
19567SOL    HW161593   8.622   5.526   8.877  1.1314  1.5890  0.1445
19567SOL    HW261594   8.668   5.455   9.003  0.0403  1.8034  0.6690
19568SOL     OW61595   6.915   9.227   6.454 -0.3915  0.2607  0.2159
19568SOL    HW161596   6.836   9.184   6.420  0.1771 -0.0489 -0.7756
19568SOL    HW261597   6.892   9.320   6.458 -2.0458 -0.1640  3.5126
19569SOL     OW61598   2.356   7.530   1.195  0.4153 -0.6095  0.9622
19569SOL    HW161599   2.360   7.452   1.250 -1.6782  0.0381  2.1562
19569SOL    HW261600   2.389   7.600   1.250 -2.2651  0.1583  1.7733
19570SOL     OW61601   0.393   2.053   7.453 -0.2328 -0.2432  0.1824
19570SOL    HW161602   0.302   2.060   7.423 -0.3533 -0.2922  0.5313
19570SOL    HW261603   0.435   2.133   7.421 -0.0602 -0.8241 -1.1175
19571SOL     OW61604   2.174   8.447   9.422  0.0179 -0.3261  0.1848
19571SOL    HW161605   2.163   8.410   9.335  0.1050  0.5283 -0.2002
19571SOL    HW261606   2.257   8.495   9.418 -0.4497  0.5360  0.4252
19572SOL     OW61607   8.117   6.601   6.052  0.1666 -0.2730  0.1394
19572SOL    HW161608   8.036   6.651   6.042  1.0204  0.9433 -1.0929
19572SOL    HW261609   8.106   6.554   6.134 -1.4331  0.5319  0.4310
19573SOL     OW61610   0.172   6.759   8.498  0.7267 -0.2336 -0.0565
19573SOL    HW161611   0.094   6.811   8.518  0.5412 -0.8788  0.9776
19573SOL    HW261612   0.141   6.690   8.439  0.5554 -0.3534  0.1723
19574SOL     OW61613   0.885   5.776   3.599 -0.1402  0.5730  0.4245
19574SOL    HW161614   0.973   5.745   3.624  0.1803  1.5325  0.5112
19574SOL    HW261615   0.901   5.845   3.535 -0.8430  0.6222  0.2958
19575SOL     OW61616   8.752   3.435   4.893 -0.0795 -0.7793  0.4234
19575SOL    HW161617   8.717   3.511   4.939  0.3169 -0.9710  1.0516
19575SOL    HW261618   8.758   3.367   4.960  0.7856 -0.9784  0.1537
19576SOL     OW61619   5.776   6.046   3.521  0.2231  0.2447  0.2137
19576SOL    HW161620   5.795   6.099   3.444 -0.0190  1.1741  0.7696
19576SOL    HW261621   5.752   6.110   3.588 -0.1903 -0.5885  0.8753
19577SOL     OW61622   6.454   6.180   7.880 -0.0509 -0.5362 -0.0195
19577SOL    HW161623   6.365   6.161   7.910 -0.0457 -1.3222 -0.4950
19577SOL    HW261624   6.446   6.264   7.835 -0.8747 -1.3464 -1.4550
19578SOL     OW61625   5.606   9.418   9.208 -0.1722  0.3223 -0.4722
19578SOL    HW161626   5.670   9.484   9.182 -0.1609  0.6067  0.2672
19578SOL    HW261627   5.609   9.353   9.138  1.9811 -0.4230  0.2268
19579SOL     OW61628   4.471   2.680   8.083  0.1884 -0.1258 -0.0745
19579SOL    HW161629   4.505   2.744   8.020 -0.0271  0.6366  0.5602
19579SOL    HW261630   4.423   2.733   8.147 -0.6881 -1.0041  0.0275
19580SOL     OW61631   5.087   1.164   8.205 -0.4301 -0.9453  0.0179
19580SOL    HW161632   5.113   1.135   8.292 -1.5462 -1.2643  0.2695
19580SOL    HW261633   5.164   1.150   8.150  0.7390  0.4895  1.2091
19581SOL     OW61634   2.035   8.033   4.370 -0.0467 -0.0351 -0.4524
19581SOL    HW161635   2.112   7.988   4.406  0.2252  0.6522 -0.1466
19581SOL    HW261636   2.042   8.122   4.404 -1.9932 -0.4309  1.1234
19582SOL     OW61637   1.446   1.443   4.118  0.3617 -0.1988 -0.3411
19582SOL    HW161638   1.530   1.435   4.073  0.0400 -2.3088 -0.6572
19582SOL    HW261639   1.387   1.484   4.054  0.8166  0.1043 -0.5687
19583SOL     OW61640   8.716   5.422   4.684  0.7410 -0.5894 -0.4379
19583SOL    HW161641   8.627   5.400   4.712  0.5035  0.5635 -0.2402
19583SOL    HW261642   8.741   5.496   4.740  1.4740 -0.3111 -1.1133
19584SOL     OW61643   6.995   2.066   3.863  0.2010 -0.3039 -0.1457
19584SOL    HW161644   7.006   1.972   3.877 -1.2220 -0.5508 -0.5251
19584SOL    HW261645   7.022   2.106   3.945 -2.3891 -1.2980  1.3092
19585SOL     OW61646   5.969   7.220   4.348  0.6407 -0.0258 -0.1527
19585SOL    HW161647   6.018   7.245   4.426 -0.3955 -0.1521  0.5641
19585SOL    HW261648   6.027   7.243   4.275  0.8636  1.9253  0.5652
19586SOL     OW61649   1.695   7.397   8.642  0.5476  0.3320 -0.5160
19586SOL    HW161650   1.778   7.430   8.677  1.6005 -0.3918 -2.1614
19586SOL    HW261651   1.637   7.473   8.641  1.1784  0.8534  0.6972
19587SOL     OW61652   6.828   5.091   8.614  0.4823 -0.6954 -0.8828
19587SOL    HW161653   6.788   5.146   8.546 -0.6866 -1.8657 -1.1755
19587SOL    HW261654   6.910   5.136   8.635  1.3592 -0.7522 -3.7305
19588SOL     OW61655   1.804   9.125   6.901 -0.0606 -0.0027 -0.3862
19588SOL    HW161656   1.825   9.216   6.920  0.6320 -0.2125 -0.1210
19588SOL    HW261657   1.835   9.112   6.811  0.5097 -0.1760 -0.1672
19589SOL     OW61658   4.278   0.106   6.205  0.1641  0.1567 -0.5510
19589SOL    HW161659   4.366   0.103   6.243  0.2497 -1.8448 -0.7715
19589SOL    HW261660   4.220   0.076   6.276 -0.0301 -0.7447 -1.0679
19590SOL     OW61661   1.198   8.332   3.613  0.0945 -0.2618  0.2187
19590SOL    HW161662   1.235   8.407   3.567 -0.7191 -0.6748 -1.1899
19590SOL    HW261663   1.273   8.276   3.631  0.4428 -0.0863 -0.6411
19591SOL     OW61664   2.125   3.497   2.758 -0.3645  0.6921 -0.4344
19591SOL    HW161665   2.047   3.454   2.724  0.3593 -0.4519 -0.7118
19591SOL    HW261666   2.184   3.503   2.683 -0.2956  1.8138 -0.2989
19592SOL     OW61667   1.424   4.157   7.240  0.4979 -0.0081 -0.0967
19592SOL    HW161668   1.403   4.086   7.179  0.1307 -0.7238  0.8247
19592SOL    HW261669   1.376   4.134   7.320  1.7061  0.4053  0.7693
19593SOL     OW61670   8.320   8.839   9.412  0.4927 -0.2914 -0.3985
19593SOL    HW161671   8.328   8.851   9.317  1.5459 -0.0948 -0.3047
19593SOL    HW261672   8.370   8.912   9.449 -3.0721  2.0072  0.4237
19594SOL     OW61673   9.345   1.185   7.151  0.1055  0.0527 -0.0432
19594SOL    HW161674   9.360   1.098   7.114  0.2678  0.2678 -0.4986
19594SOL    HW261675   9.255   1.183   7.183 -0.9109  0.6001 -2.6122
19595SOL     OW61676   7.307   6.973   4.041  0.5155  0.2639  0.0504
19595SOL    HW161677   7.240   6.905   4.034  1.5322 -0.8746  0.9074
19595SOL    HW261678   7.268   7.038   4.100  1.2074 -1.8279  3.0472
19596SOL     OW61679   2.950   0.543   0.578  0.1270 -0.2411 -0.3153
19596SOL    HW161680   2.896   0.509   0.649 -0.0708 -0.5322 -0.6034
19596SOL    HW261681   3.005   0.610   0.620  0.0329 -0.4297  0.1142
19597SOL     OW61682   1.117   4.283   7.145 -0.1446  0.5107 -0.9672
19597SOL    HW161683   1.042   4.337   7.171  0.7284  0.8285  1.0082
19597SOL    HW261684   1.145   4.241   7.225  1.7021  0.2624 -1.7071
19598SOL     OW61685   8.126   8.437   5.401  0.4348 -0.2945  0.1762
19598SOL    HW161686   8.210   8.408   5.366  0.3923 -1.3586  0.9242
19598SOL    HW261687   8.140   8.529   5.424  0.9608 -0.0528 -1.0167
19599SOL     OW61688   8.078   0.047   1.306  0.1488 -0.5547  0.2894
19599SOL    HW161689   8.060   0.050   1.400 -2.5160  1.2187 -0.1752
19599SOL    HW261690   8.021  -0.022   1.272 -0.8393  0.5107 -0.3081
19600SOL     OW61691   8.675   3.249   7.173  0.0345 -0.5784  0.1988
19600SOL    HW161692   8.590   3.291   7.188  0.0295  0.1192 -1.5309
19600SOL    HW261693   8.676   3.230   7.079  1.8288 -0.4978  0.1742
19601SOL     OW61694   2.105   7.580   6.218 -0.0748 -0.2412 -0.1747
19601SOL    HW161695   2.096   7.553   6.309 -0.2454 -0.4700 -0.2593
19601SOL    HW261696   2.036   7.533   6.172  0.3395 -0.5234 -0.5070
19602SOL     OW61697   7.033   7.006   1.215  0.3190  0.1174  0.2290
19602SOL    HW161698   7.107   6.973   1.265  1.0909  1.1491 -0.1954
19602SOL    HW261699   7.052   6.981   1.124 -0.7593 -1.1895  0.3407
19603SOL     OW61700   2.118   0.021   1.287  0.1373  0.0124  0.0105
19603SOL    HW161701   2.041   0.040   1.340 -0.4314 -0.7322 -0.5209
19603SOL    HW261702   2.084  -0.023   1.209  1.1760 -1.2972  0.2436
19604SOL     OW61703   1.431   3.067   0.367  0.7375 -0.2445  0.3835
19604SOL    HW161704   1.393   3.136   0.313 -0.2957 -0.4415  0.8240
19604SOL    HW261705   1.355   3.021   0.403  1.3947 -0.3467  1.6975
19605SOL     OW61706   9.132   8.173   2.987  0.5068  0.1599  0.1150
19605SOL    HW161707   9.093   8.133   2.909 -0.3036  0.7109  0.2264
19605SOL    HW261708   9.225   8.182   2.965  0.2562  0.4816 -0.8637
19606SOL     OW61709   9.081   0.862   6.113  0.2965  0.4920  0.2405
19606SOL    HW161710   8.987   0.847   6.105  0.2391  1.1001 -0.3307
19606SOL    HW261711   9.115   0.783   6.155 -0.3770 -0.0092 -0.1408
19607SOL     OW61712   6.289   0.123   2.134 -0.1997  1.1169  0.4094
19607SOL    HW161713   6.357   0.099   2.196 -0.0457 -1.0600 -0.5115
19607SOL    HW261714   6.327   0.194   2.083  1.1836  0.3281  0.2989
19608SOL     OW61715   3.525   7.166   3.043 -0.3830  0.3436  0.2029
19608SOL    HW161716   3.447   7.205   3.082  0.2274  1.4111  0.4110
19608SOL    HW261717   3.505   7.159   2.950 -1.7160 -1.8912  0.5956
19609SOL     OW61718   5.296   3.503   1.491 -0.1312 -0.7101 -0.2586
19609SOL    HW161719   5.218   3.468   1.533 -0.2792 -0.2598 -0.1452
19609SOL    HW261720   5.292   3.597   1.509  0.6582 -0.7415  0.1144
19610SOL     OW61721   3.400   4.288   3.644 -0.2480 -0.2303 -0.1884
19610SOL    HW161722   3.359   4.375   3.649 -0.7276 -0.4921  0.6355
19610SOL    HW261723   3.476   4.294   3.702 -0.4160 -0.4350  0.0513
19611SOL     OW61724   5.847   2.194   9.228  0.1233 -0.5281 -0.1323
19611SOL    HW161725   5.784   2.123   9.223  1.6455 -1.8651 -0.9791
19611SOL    HW261726   5.794   2.274   9.222 -1.5816 -1.5663  0.5728
19612SOL     OW61727   7.541   8.191   1.734 -0.1737  0.1520 -0.1922
19612SOL    HW161728   7.457   8.181   1.779  1.0029 -3.1240  1.6094
19612SOL    HW261729   7.589   8.255   1.787 -0.5385 -0.0650  0.4095
19613SOL     OW61730   4.847   7.203   8.912 -0.1580  0.8279  0.1998
19613SOL    HW161731   4.788   7.140   8.953  0.7788 -0.0855  0.1889
19613SOL    HW261732   4.908   7.227   8.982  0.1713  0.8577 -0.0928
19614SOL     OW61733   4.978   3.165   4.444  0.3785  0.0046  0.1250
19614SOL    HW161734   5.013   3.164   4.533  1.7138 -0.9014 -0.3815
19614SOL    HW261735   5.030   3.100   4.397 -0.3550  0.4078 -1.3021
19615SOL     OW61736   8.358   3.202   0.842  0.0867  0.1939 -0.5321
19615SOL    HW161737   8.271   3.170   0.817  0.1064 -0.4790  0.2243
19615SOL    HW261738   8.361   3.192   0.938 -0.6229  4.2045  0.1077
19616SOL     OW61739   4.465   6.361   0.424  0.0245  0.1148  0.4472
19616SOL    HW161740   4.552   6.363   0.464 -0.8544 -1.3399  2.5560
19616SOL    HW261741   4.446   6.453   0.403  2.0295  0.4619 -0.0827
19617SOL     OW61742   0.220   6.681   7.983  0.0312 -0.1187 -0.1093
19617SOL    HW161743   0.316   6.686   7.982  0.1162 -0.8539  1.4669
19617SOL    HW261744   0.193   6.730   7.905  1.6576  0.6435 -0.2428
19618SOL     OW61745   2.824   6.863   3.417 -0.1103  0.4663 -0.1237
19618SOL    HW161746   2.833   6.805   3.342 -0.1443  1.8364 -1.2336
19618SOL    HW261747   2.769   6.934   3.385  0.1164  1.2261  1.1205
19619SOL     OW61748   2.696   1.325   7.954 -0.2344 -0.2103  0.4655
19619SOL    HW161749   2.689   1.232   7.976 -1.9237 -0.0316  0.7968
19619SOL    HW261750   2.618   1.364   7.992 -0.4096  1.0579 -1.1271
19620SOL     OW61751   7.545   0.279   9.052  0.0329 -0.4236 -0.2388
19620SOL    HW161752   7.528   0.316   8.965  0.4714 -0.4791 -0.3494
19620SOL    HW261753   7.492   0.334   9.111  1.0276  0.6979 -0.3484
19621SOL     OW61754   5.088   5.516   5.030 -0.0217  0.2280 -0.5720
19621SOL    HW161755   5.011   5.571   5.014 -1.1481 -0.1246  2.9027
19621SOL    HW261756   5.055   5.426   5.020  0.7615  0.0534 -1.9801
19622SOL     OW61757   1.735   4.540   6.720 -0.5718 -0.0193  0.1409
19622SOL    HW161758   1.776   4.506   6.641  1.5859 -0.3033  1.2977
19622SOL    HW261759   1.808   4.556   6.780 -2.2070 -1.0768  2.5835
19623SOL     OW61760   2.766   8.361   9.444  0.6967 -0.2116  0.3198
19623SOL    HW161761   2.722   8.320   9.370 -1.9071  0.8791  1.1525
19623SOL    HW261762   2.839   8.303   9.465  0.0213 -1.7971 -1.5494
19624SOL     OW61763   2.908   5.800   7.963 -0.1466  0.6023 -0.5059
19624SOL    HW161764   2.816   5.775   7.960 -0.4010  1.4588 -0.2958
19624SOL    HW261765   2.931   5.797   8.055  1.1948 -3.4517 -0.7987
19625SOL     OW61766   6.672   4.906   7.816  0.5093  0.6669  0.0579
19625SOL    HW161767   6.642   4.992   7.847  0.0610  0.6015 -0.1823
19625SOL    HW261768   6.741   4.881   7.877  0.5261  1.1233  0.2305
19626SOL     OW61769   6.526   3.438   6.998 -0.0161 -0.5532 -0.0616
19626SOL    HW161770   6.487   3.497   7.062  0.4414 -2.1262  1.7484
19626SOL    HW261771   6.605   3.484   6.968  0.1922 -0.1058  1.1100
19627SOL     OW61772   9.360   9.639   6.514 -0.3850  0.6639  0.0743
19627SOL    HW161773   9.342   9.712   6.455  2.5264  1.8491  0.4966
19627SOL    HW261774   9.449   9.611   6.493  0.3002  0.2930  2.9934
19628SOL     OW61775   5.155   3.182   7.841 -0.2921  0.3552  0.0227
19628SOL    HW161776   5.160   3.277   7.831  1.7837  0.2676 -0.1453
19628SOL    HW261777   5.239   3.157   7.878 -0.5904 -1.4819 -0.4344
19629SOL     OW61778   0.110   8.968   5.508 -0.2898 -0.0944  0.6340
19629SOL    HW161779   0.172   8.960   5.436 -0.3103 -0.9546  0.7026
19629SOL    HW261780   0.031   9.005   5.468 -0.3554 -0.7132  0.1770
19630SOL     OW61781   2.409   3.354   9.119 -0.8390  0.3191  0.0922
19630SOL    HW161782   2.485   3.412   9.124 -0.8154  0.2268  1.0178
19630SOL    HW261783   2.429   3.292   9.049 -0.2379  0.5416  0.0694
19631SOL     OW61784   1.193   0.912   0.738 -0.0341  0.2891 -0.5725
19631SOL    HW161785   1.249   0.970   0.788 -1.5708  0.0167  1.5985
19631SOL    HW261786   1.135   0.970   0.689 -0.3658  0.5855  0.1642
19632SOL     OW61787   5.197   2.949   5.811 -0.4218 -0.3341  0.0167
19632SOL    HW161788   5.148   2.872   5.838 -0.6927  0.0628  0.6901
19632SOL    HW261789   5.156   3.021   5.859  0.7954  0.0132  0.5634
19633SOL     OW61790   0.497   3.669   5.201 -0.2835 -0.6718 -0.0488
19633SOL    HW161791   0.580   3.625   5.223 -0.8402 -0.5246  2.5383
19633SOL    HW261792   0.524   3.748   5.153  1.1624 -0.1863  1.4826
19634SOL     OW61793   7.336   1.641   5.404  0.0813  0.3985 -0.4108
19634SOL    HW161794   7.356   1.714   5.346 -1.8135  0.9506 -0.4235
19634SOL    HW261795   7.243   1.649   5.423  0.0119 -1.5005  0.3273
19635SOL     OW61796   6.535   4.004   6.236 -0.4841 -0.3212  0.3287
19635SOL    HW161797   6.618   3.957   6.242 -1.1488 -1.6050 -0.2144
19635SOL    HW261798   6.560   4.096   6.225  0.8479 -0.4292  2.0386
19636SOL     OW61799   7.691   3.667   9.231  0.5482 -0.3326  0.1795
19636SOL    HW161800   7.713   3.756   9.204 -1.2228 -0.0017 -0.3279
19636SOL    HW261801   7.755   3.645   9.299  1.1066  1.2544  0.1938
19637SOL     OW61802   9.626   2.052   8.752 -0.3713 -0.0048 -0.3404
19637SOL    HW161803   9.689   2.124   8.759 -1.3094  1.0416 -1.9159
19637SOL    HW261804   9.614   2.022   8.842  1.2206  0.7669  0.1746
19638SOL     OW61805   7.265   8.528   6.664  0.2800  0.2959  0.9035
19638SOL    HW161806   7.354   8.562   6.660 -0.1622  1.6471  2.0656
19638SOL    HW261807   7.250   8.492   6.576  2.1504 -0.5197  0.8521
19639SOL     OW61808   6.229   2.359   6.556  0.1701 -0.2090 -0.1030
19639SOL    HW161809   6.207   2.437   6.507  2.6792  0.0833 -0.9258
19639SOL    HW261810   6.231   2.289   6.491 -1.0685 -0.7728  0.4457
19640SOL     OW61811   0.326   8.401   6.146  0.0451  0.0909  0.3167
19640SOL    HW161812   0.398   8.454   6.112  0.4453 -0.1459  0.7936
19640SOL    HW261813   0.368   8.332   6.196 -0.5047 -0.2107  0.3723
19641SOL     OW61814   6.546   0.914   4.030  0.0921 -0.8373  0.3208
19641SOL    HW161815   6.640   0.907   4.013  0.1002 -0.6166  0.2677
19641SOL    HW261816   6.508   0.835   3.992  0.2753 -1.0077  0.4880
19642SOL     OW61817   4.619   8.496   8.578  0.0404 -0.1338  0.1898
19642SOL    HW161818   4.588   8.407   8.560 -2.2008  0.1977  2.0120
19642SOL    HW261819   4.543   8.551   8.564  0.7369  1.2047  1.4439
19643SOL     OW61820   1.616   1.677   6.342 -0.0838 -0.3980  0.2833
19643SOL    HW161821   1.584   1.612   6.280 -0.8090 -0.4914  0.7418
19643SOL    HW261822   1.632   1.629   6.422 -0.7965 -0.0015  0.6811
19644SOL     OW61823   8.059   4.588   3.386 -0.4665 -0.1552 -0.6342
19644SOL    HW161824   7.998   4.639   3.440  0.6206  0.4877  0.0187
19644SOL    HW261825   8.053   4.629   3.299 -0.4387  0.3589 -0.3977
19645SOL     OW61826   2.472   4.867   3.408  0.1467 -0.0153  0.2359
19645SOL    HW161827   2.425   4.898   3.486 -1.8475 -0.8373 -0.5980
19645SOL    HW261828   2.414   4.886   3.335  2.6619  2.3155 -1.4039
19646SOL     OW61829   1.586   4.613   0.520  0.0067  0.1149 -0.2640
19646SOL    HW161830   1.571   4.706   0.538  1.0988  0.0414  1.1752
19646SOL    HW261831   1.607   4.609   0.426  0.0297  1.3227 -0.3214
19647SOL     OW61832   0.768   8.099   1.809  0.1869 -0.3540  0.9763
19647SOL    HW161833   0.757   8.079   1.717 -0.1196 -0.2311  0.9862
19647SOL    HW261834   0.797   8.017   1.849 -1.0755 -0.7969  1.0242
19648SOL     OW61835   8.145   6.515   0.728 -0.4476  0.2923  0.1472
19648SOL    HW161836   8.225   6.561   0.705  0.3610 -0.7923  0.6849
19648SOL    HW261837   8.167   6.467   0.808 -1.9495  0.7755  0.9003
19649SOL     OW61838   6.768   9.386   7.363 -0.2023  0.1485  0.0831
19649SOL    HW161839   6.855   9.422   7.384  0.2975 -0.3820 -0.9797
19649SOL    HW261840   6.722   9.385   7.447  0.5952  1.0342  0.5595
19650SOL     OW61841   1.982   1.131   0.036  0.3855  0.1878 -0.1091
19650SOL    HW161842   1.976   1.220   0.072  0.3630 -0.8118  2.6255
19650SOL    HW261843   1.892   1.098   0.037  0.6702 -0.6444  1.2512
19651SOL     OW61844   1.780   5.803   1.695  0.1966 -0.4304  0.6877
19651SOL    HW161845   1.832   5.850   1.630  1.0860 -1.8535  0.3133
19651SOL    HW261846   1.810   5.712   1.688 -2.5301 -1.4009  0.2536
19652SOL     OW61847   8.503   1.686   2.974  0.4900  0.3099 -0.0721
19652SOL    HW161848   8.416   1.684   3.013  0.5467  0.3397  0.0559
19652SOL    HW261849   8.526   1.779   2.969  0.2269  0.3501 -0.7482
19653SOL     OW61850   4.809   9.237   9.095  0.0731  0.3622  0.4975
19653SOL    HW161851   4.769   9.317   9.127  1.8460  1.1403  0.8749
19653SOL    HW261852   4.892   9.265   9.055  1.2739 -1.3511  1.6024
19654SOL     OW61853   4.988   3.425   5.014  0.1477 -0.1470 -0.3444
19654SOL    HW161854   4.958   3.509   4.980 -0.0778 -0.5583 -1.1957
19654SOL    HW261855   4.909   3.370   5.013 -0.2497  0.2261  2.2608
19655SOL     OW61856   6.344   4.406   3.373 -0.0644  0.0180  0.3286
19655SOL    HW161857   6.284   4.378   3.442  0.3400 -0.5090  0.4812
19655SOL    HW261858   6.404   4.466   3.416 -1.0415  1.3045 -0.0402
19656SOL     OW61859   7.494   8.668   6.661 -0.1321 -0.1212 -0.0459
19656SOL    HW161860   7.585   8.642   6.679 -0.4821 -0.8516  0.7555
19656SOL    HW261861   7.498   8.713   6.577  0.8128 -1.0564 -0.5211
19657SOL     OW61862   7.601   3.251   3.425 -0.3510 -0.1092 -0.1107
19657SOL    HW161863   7.649   3.319   3.378 -0.9422  2.7000  2.9630
19657SOL    HW261864   7.525   3.233   3.370  0.1373  1.3108 -1.3216
19658SOL     OW61865   3.377   2.962   4.332 -0.3411  0.1887  0.6584
19658SOL    HW161866   3.283   2.944   4.329 -0.0814 -1.2859  0.7259
19658SOL    HW261867   3.408   2.911   4.406  0.4999  0.7456  0.6902
19659SOL     OW61868   0.833   6.233   5.088 -0.1595  0.0431  0.0496
19659SOL    HW161869   0.837   6.327   5.070 -3.2633  0.2193 -0.1820
19659SOL    HW261870   0.752   6.204   5.047  0.8107 -2.8097 -0.0360
19660SOL     OW61871   8.831   2.515   1.778 -0.9677  0.3506 -0.4074
19660SOL    HW161872   8.856   2.430   1.813 -0.9071  0.1683 -0.8868
19660SOL    HW261873   8.769   2.495   1.708 -2.7323  0.8063  0.9703
19661SOL     OW61874   0.473   5.598   1.563  0.6464 -0.0208 -0.2852
19661SOL    HW161875   0.500   5.519   1.610  2.6712  0.2402 -0.8868
19661SOL    HW261876   0.406   5.567   1.501 -1.2211 -0.5599  1.8747
19662SOL     OW61877   5.447   6.355   8.348  0.0365  0.4159  0.2883
19662SOL    HW161878   5.357   6.378   8.368 -0.0630 -1.4226  2.2914
19662SOL    HW261879   5.500   6.408   8.408  0.2003  0.3188  0.2321
19663SOL     OW61880   7.809   7.824   3.253  0.1462 -1.0326  0.1368
19663SOL    HW161881   7.872   7.800   3.185 -0.5872 -1.5218 -0.3948
19663SOL    HW261882   7.789   7.742   3.297 -1.1791 -1.1716 -0.6434
19664SOL     OW61883   2.560   8.683   7.925  0.3157 -0.0318  0.1641
19664SOL    HW161884   2.565   8.591   7.899  2.9757  0.6348 -2.1249
19664SOL    HW261885   2.526   8.728   7.848  0.9997  1.1503  0.5257
19665SOL     OW61886   6.744   2.978   0.671 -0.0189 -0.2785 -0.0764
19665SOL    HW161887   6.791   3.012   0.748  0.4813 -0.0436 -0.4750
19665SOL    HW261888   6.672   2.927   0.707 -0.6302  0.9762  0.5571
19666SOL     OW61889   6.267   0.495   4.628  0.7203  0.1462 -0.3618
19666SOL    HW161890   6.224   0.445   4.697  0.6375  2.0919  1.0839
19666SOL    HW261891   6.354   0.455   4.619 -0.0182 -1.4506 -0.6619
19667SOL     OW61892   3.240   2.625   4.707  0.3656 -0.5348  0.5505
19667SOL    HW161893   3.230   2.567   4.783 -0.6361 -0.8248  0.2091
19667SOL    HW261894   3.228   2.713   4.743 -3.2089 -0.7860  0.3137
19668SOL     OW61895   2.058   1.382   0.150 -0.0023  0.5669 -0.0294
19668SOL    HW161896   2.143   1.416   0.176  0.5623 -1.2490  0.6410
19668SOL    HW261897   2.017   1.454   0.101  2.1630  1.2391 -0.9533
19669SOL     OW61898   7.940   2.841   3.135 -0.0927  0.0372  0.0448
19669SOL    HW161899   8.020   2.822   3.086 -0.6365 -1.0574 -0.4471
19669SOL    HW261900   7.961   2.919   3.185  1.5498 -0.6543  0.5083
19670SOL     OW61901   2.818   1.825   2.539  0.3942 -0.5158  0.2093
19670SOL    HW161902   2.831   1.856   2.449 -1.1759  0.4257  0.2734
19670SOL    HW261903   2.801   1.904   2.589 -1.3088 -1.2367  0.8444
19671SOL     OW61904   6.392   1.444   4.723 -0.3246 -0.3153 -0.1966
19671SOL    HW161905   6.385   1.363   4.773 -2.0681 -0.2828 -0.3427
19671SOL    HW261906   6.336   1.506   4.770 -0.1620  0.3780 -0.8993
19672SOL     OW61907   1.488   0.173   5.836  0.5033 -0.4115  0.5306
19672SOL    HW161908   1.512   0.186   5.927  0.5155  2.0568  0.2329
19672SOL    HW261909   1.560   0.211   5.785  0.0948 -0.9631 -0.5080
19673SOL     OW61910   6.413   0.477   9.439  0.1637 -0.5003  0.2354
19673SOL    HW161911   6.404   0.383   9.451 -1.8284 -0.5506 -1.0951
19673SOL    HW261912   6.388   0.492   9.347 -0.4003  1.3877  0.6486
19674SOL     OW61913   4.749   3.443   6.496  0.2738 -0.3837 -0.2196
19674SOL    HW161914   4.687   3.516   6.505 -0.4245 -0.9852 -0.0820
19674SOL    HW261915   4.820   3.479   6.443  0.0715  0.4806  0.0675
19675SOL     OW61916   2.190   6.082   4.091 -0.0041 -0.2491  0.1231
19675SOL    HW161917   2.171   6.058   4.182 -0.4477  1.6145  0.5654
19675SOL    HW261918   2.282   6.111   4.093  0.3000 -1.1522 -0.2499
19676SOL     OW61919   7.267   1.401   1.064 -0.3482 -0.3640 -0.2412
19676SOL    HW161920   7.190   1.380   1.011 -1.0293 -0.4964  0.7676
19676SOL    HW261921   7.253   1.354   1.147  0.9154 -0.5424 -0.1099
19677SOL     OW61922   1.048   9.601   4.608  0.0791 -0.0815 -0.1651
19677SOL    HW161923   0.978   9.555   4.654 -0.7056  1.1486 -0.0618
19677SOL    HW261924   1.092   9.533   4.557 -1.0752 -0.9285 -0.0837
19678SOL     OW61925   3.056   2.857   6.690 -0.3333 -0.2795 -0.0930
19678SOL    HW161926   3.025   2.862   6.781  1.9199  0.9622  0.6663
19678SOL    HW261927   3.135   2.804   6.695  0.0372  0.1528 -1.2775
19679SOL     OW61928   9.547   1.254   2.798  0.0291 -0.5004  0.6413
19679SOL    HW161929   9.564   1.256   2.892 -2.5100 -2.2996  1.2356
19679SOL    HW261930   9.452   1.258   2.790  0.2108  1.1431 -1.9628
19680SOL     OW61931   4.691   4.827   0.587  0.4491 -0.2727 -0.5257
19680SOL    HW161932   4.694   4.824   0.682 -0.2643 -0.4766 -0.5015
19680SOL    HW261933   4.713   4.918   0.565  0.4211 -0.1762 -0.1577
19681SOL     OW61934   8.859   8.780   9.061  0.4644  0.2101 -0.2387
19681SOL    HW161935   8.898   8.706   9.108 -1.1295 -1.5478 -1.5430
19681SOL    HW261936   8.894   8.857   9.106  1.0139 -1.3149  2.1744
19682SOL     OW61937   0.415   2.679   0.508 -0.2843  0.0445 -0.3327
19682SOL    HW161938   0.397   2.711   0.420  0.0254  0.8889 -0.1017
19682SOL    HW261939   0.440   2.758   0.557  1.0612 -0.6293  0.1041
19683SOL     OW61940   5.111   2.850   0.619  0.9003 -0.0795 -0.0168
19683SOL    HW161941   5.036   2.812   0.574  1.0723 -0.0564 -0.3239
19683SOL    HW261942   5.136   2.925   0.566  1.4539 -0.3795 -0.1896
19684SOL     OW61943   0.227   8.168   4.763 -0.5022 -0.0587 -0.0782
19684SOL    HW161944   0.227   8.103   4.833 -3.2856  0.4327  0.4933
19684SOL    HW261945   0.265   8.122   4.688  1.9611 -0.7862  1.4845
19685SOL     OW61946   0.419   7.361   1.053  0.1792 -0.0495  0.1606
19685SOL    HW161947   0.455   7.358   1.142  0.8690 -0.4132 -0.1254
19685SOL    HW261948   0.460   7.437   1.013  0.9854 -0.7147 -0.3062
19686SOL     OW61949   1.042   0.129   3.284  0.1349 -0.3937  0.0913
19686SOL    HW161950   1.122   0.082   3.260  0.2688  0.1637 -0.5779
19686SOL    HW261951   1.013   0.086   3.365  1.4246 -0.2321  0.6619
19687SOL     OW61952   9.530   0.782   9.109  0.3842 -0.0443 -0.0756
19687SOL    HW161953   9.585   0.835   9.166  1.0216  0.7824 -1.4064
19687SOL    HW261954   9.522   0.698   9.154  0.8249  0.5900  1.2241
19688SOL     OW61955   2.655   7.915   1.721 -1.1115 -0.6993 -0.1294
19688SOL    HW161956   2.589   7.901   1.653 -0.9355  0.5804 -0.5941
19688SOL    HW261957   2.721   7.970   1.678 -1.4616  0.9297  1.3633
19689SOL     OW61958   6.807   8.160   7.029 -0.2724  0.0267  0.0634
19689SOL    HW161959   6.863   8.101   7.080 -2.9376 -1.6417  1.2680
19689SOL    HW261960   6.799   8.238   7.084  1.1264  0.4759 -0.3169
19690SOL     OW61961   0.973   0.422   2.190 -0.2497  0.1129 -0.0420
19690SOL    HW161962   0.966   0.489   2.122  0.1094  0.0499 -0.1451
19690SOL    HW261963   0.920   0.456   2.262 -0.0493  0.5266 -0.0826
19691SOL     OW61964   2.299   7.430   5.262  0.7471 -0.3081  0.2746
19691SOL    HW161965   2.389   7.408   5.285  0.5707 -1.0091  0.3081
19691SOL    HW261966   2.255   7.346   5.251  0.0091  0.0231  0.5825
19692SOL     OW61967   8.838   6.069   5.314 -0.1907  0.5037 -0.2803
19692SOL    HW161968   8.831   6.131   5.241 -0.9938 -0.6407 -1.2102
19692SOL    HW261969   8.891   5.997   5.280 -2.6439 -1.2508 -0.6810
19693SOL     OW61970   5.033   4.514   5.104 -0.4744  0.0512  0.2712
19693SOL    HW161971   5.114   4.464   5.114  0.0444  0.7104 -0.4746
19693SOL    HW261972   5.021   4.560   5.187  0.2306  0.3829  0.1936
19694SOL     OW61973   5.067   4.922   8.773  0.2324  0.0193  0.4929
19694SOL    HW161974   5.039   5.011   8.750  0.7107  0.1048  0.2230
19694SOL    HW261975   5.052   4.916   8.867  1.0537  0.7064  0.6758
19695SOL     OW61976   9.165   8.419   1.881  0.5096  0.2511 -0.4081
19695SOL    HW161977   9.099   8.488   1.894  0.7760  0.7127 -1.3817
19695SOL    HW261978   9.217   8.420   1.961 -1.3857 -0.9608  0.9140
19696SOL     OW61979   0.425   8.574   2.906 -0.3799 -0.0224  0.0227
19696SOL    HW161980   0.360   8.542   2.844  0.2225  0.4813 -0.8943
19696SOL    HW261981   0.379   8.579   2.990 -1.7823  1.2198 -0.7884
19697SOL     OW61982   3.568   2.053   6.009  0.2344  0.0472 -0.1546
19697SOL    HW161983   3.652   2.086   6.039  0.0181  0.7041 -0.2505
19697SOL    HW261984   3.515   2.132   5.994  0.0245 -0.3009 -1.3366
19698SOL     OW61985   8.328   0.511   7.974  0.7347  0.7460  0.3651
19698SOL    HW161986   8.405   0.533   7.922  1.7768  0.8027  1.8693
19698SOL    HW261987   8.344   0.421   8.004  0.0841  0.6638  0.4828
19699SOL     OW61988   4.509   6.339   7.269  0.0141  0.0697  0.1157
19699SOL    HW161989   4.528   6.344   7.175  0.8031  0.6372  0.3042
19699SOL    HW261990   4.549   6.417   7.307 -0.3977 -0.0928  0.9163
19700SOL     OW61991   5.592   4.295   0.338 -0.2582 -0.1867  0.7844
19700SOL    HW161992   5.631   4.323   0.256 -1.4044 -1.3350 -0.1980
19700SOL    HW261993   5.500   4.321   0.331 -0.3966 -0.4171  1.6458
19701SOL     OW61994   8.285   8.072   1.942  0.9143  1.2727 -0.0835
19701SOL    HW161995   8.336   8.145   1.907  0.8773  2.2107  1.7158
19701SOL    HW261996   8.199   8.109   1.960  1.0031  0.9172  1.2157
19702SOL     OW61997   4.592   3.200   1.104 -0.5880 -0.6839 -0.3546
19702SOL    HW161998   4.520   3.137   1.107 -2.0293  0.8246 -1.1994
19702SOL    HW261999   4.613   3.207   1.011 -0.4566  0.0687 -0.2752
19703SOL     OW62000   7.120   5.225   6.508 -0.0214  0.4045 -0.3128
19703SOL    HW162001   7.128   5.310   6.550  1.2724  1.6550 -2.8188
19703SOL    HW262002   7.026   5.211   6.499 -0.3139  0.4925  2.0160
19704SOL     OW62003   6.571   9.239   2.262  0.1897  0.6986 -0.2375
19704SOL    HW162004   6.609   9.277   2.341 -0.4461  1.7099 -0.4076
19704SOL    HW262005   6.611   9.152   2.256  0.4538  0.7132  1.0388
19705SOL     OW62006   1.049   5.963   3.872  0.3435  0.2020 -0.5511
19705SOL    HW162007   1.061   5.973   3.966 -0.3770  2.0460 -0.6291
19705SOL    HW262008   1.118   5.902   3.846 -0.5222 -1.7783  1.4066
19706SOL     OW62009   2.454   5.782   1.037  0.2116 -0.6964  0.0105
19706SOL    HW162010   2.374   5.734   1.014 -0.6574  0.4064  0.6266
19706SOL    HW262011   2.438   5.813   1.126  0.7026  0.8006 -0.4027
19707SOL     OW62012   1.313   5.927   1.874 -0.1859 -0.1261  0.2542
19707SOL    HW162013   1.307   5.835   1.900  0.2490 -0.2004  0.0886
19707SOL    HW262014   1.384   5.930   1.810 -0.0511  0.3580  0.4175
19708SOL     OW62015   0.718   1.131   0.486  0.4683 -0.1341  0.4433
19708SOL    HW162016   0.646   1.190   0.464 -0.1007  0.1451  2.8346
19708SOL    HW262017   0.687   1.044   0.459 -0.0272  0.2146 -0.1324
19709SOL     OW62018   9.152   3.520   8.550  0.7927  0.1574 -0.3720
19709SOL    HW162019   9.085   3.588   8.560  0.1101 -0.6475  0.8674
19709SOL    HW262020   9.179   3.501   8.640  0.9253 -1.2357 -0.6950
19710SOL     OW62021   1.605   2.781   4.080  0.3228 -0.3357 -0.5790
19710SOL    HW162022   1.556   2.805   4.002 -0.6127  0.2866  0.1715
19710SOL    HW262023   1.614   2.686   4.074  0.5661 -0.2598 -1.6032
19711SOL     OW62024   3.434   3.539   0.961 -0.3370  0.0080  0.5918
19711SOL    HW162025   3.512   3.532   1.016 -0.9721 -1.7477  1.3415
19711SOL    HW262026   3.464   3.510   0.874 -0.0585 -0.2566  0.7741
19712SOL     OW62027   1.253   8.273   5.057 -0.4720  0.0194  0.2548
19712SOL    HW162028   1.266   8.222   4.977  0.2061 -0.3454  0.5902
19712SOL    HW262029   1.179   8.231   5.101  0.4885 -1.0886  0.8455
19713SOL     OW62030   8.763   0.357   3.928  0.1092  0.2223 -0.2102
19713SOL    HW162031   8.776   0.269   3.964 -0.1037  0.2497 -0.0609
19713SOL    HW262032   8.769   0.345   3.834 -2.1730 -0.3826 -0.3505
19714SOL     OW62033   3.004   7.027   6.362  0.0718 -0.0231  0.3247
19714SOL    HW162034   3.010   7.080   6.441  1.2406 -0.4414  0.5319
19714SOL    HW262035   2.916   7.044   6.329  0.3053  1.8201  0.5337
19715SOL     OW62036   1.152   1.152   3.241  0.1558 -0.2672  0.1515
19715SOL    HW162037   1.094   1.076   3.248  0.4495 -0.7591 -2.0430
19715SOL    HW262038   1.217   1.127   3.176  0.7097  1.5866 -0.0760
19716SOL     OW62039   6.130   8.530   6.508  0.3671 -0.5170  0.1732
19716SOL    HW162040   6.207   8.585   6.496 -1.1649  1.5326 -1.0211
19716SOL    HW262041   6.096   8.517   6.419 -1.1675 -0.5669  0.7390
19717SOL     OW62042   5.146   0.087   5.044  0.4013 -0.2145 -0.1782
19717SOL    HW162043   5.117   0.013   5.097  1.0002 -0.2993  0.0335
19717SOL    HW262044   5.212   0.051   4.985 -1.3532 -0.4666 -2.1078
19718SOL     OW62045   3.527   3.987   8.492  0.3457  0.3653  0.1844
19718SOL    HW162046   3.572   3.986   8.407  0.1340  0.0601  0.0728
19718SOL    HW262047   3.592   3.955   8.554  0.2622 -0.1717  0.0064
19719SOL     OW62048   4.610   2.110   7.222 -0.4591  0.4179  0.8507
19719SOL    HW162049   4.577   2.185   7.272 -1.2366  0.6738 -0.0182
19719SOL    HW262050   4.688   2.142   7.178 -1.0752  0.8770  0.0787
19720SOL     OW62051   4.020   7.572   4.589 -0.0564 -0.9113 -0.3358
19720SOL    HW162052   4.106   7.545   4.556 -0.7820 -2.0899 -1.3346
19720SOL    HW262053   4.029   7.569   4.684  0.7926 -1.7257 -0.4282
19721SOL     OW62054   6.252   5.714   3.028 -0.0356  0.7551  0.1108
19721SOL    HW162055   6.316   5.759   2.972  1.4553 -0.4851  0.7290
19721SOL    HW262056   6.299   5.700   3.110 -1.7188  1.3258  1.2137
19722SOL     OW62057   2.178   0.575   3.071 -0.4661  0.2662 -1.4371
19722SOL    HW162058   2.264   0.608   3.044  0.3912 -0.5631  0.1511
19722SOL    HW262059   2.191   0.481   3.083 -1.8957 -0.0572 -2.2196
19723SOL     OW62060   0.977   3.939   1.074 -0.4138  0.2781 -0.0560
19723SOL    HW162061   1.033   3.981   1.009  0.4396  0.3338  0.6946
19723SOL    HW262062   0.933   4.012   1.118  1.0896  0.4434  1.2666
19724SOL     OW62063   4.629   6.498   9.453  0.7163 -0.2363 -0.2438
19724SOL    HW162064   4.698   6.564   9.458  0.1853  0.3390 -0.2132
19724SOL    HW262065   4.630   6.468   9.362  0.8472 -0.0517 -0.3029
19725SOL     OW62066   3.795   2.993   5.606  0.3992 -0.1756 -0.0996
19725SOL    HW162067   3.807   2.920   5.546 -0.2841 -0.5374  0.1879
19725SOL    HW262068   3.729   3.049   5.564  0.5344  0.0032 -0.0759
19726SOL     OW62069   2.302   6.266   0.359 -0.4826  0.3223  0.4426
19726SOL    HW162070   2.307   6.188   0.414 -0.2228  0.8275  1.1509
19726SOL    HW262071   2.311   6.233   0.269  1.8177 -0.2849  0.8211
19727SOL     OW62072   2.073   6.750   4.907 -1.0430 -0.0787  0.3679
19727SOL    HW162073   2.052   6.701   4.987 -0.5601 -0.6788  0.1284
19727SOL    HW262074   2.165   6.774   4.917 -0.5985 -1.2878 -0.5859
19728SOL     OW62075   1.392   5.952   2.256 -0.4912  0.1906 -0.6808
19728SOL    HW162076   1.438   6.011   2.196 -1.6371  2.4401  0.5304
19728SOL    HW262077   1.302   5.985   2.258 -0.7054 -0.3574  1.5443
19729SOL     OW62078   8.079   0.667   2.634  0.4857 -0.1687 -0.6067
19729SOL    HW162079   8.081   0.715   2.717  1.8816 -0.6905 -0.3011
19729SOL    HW262080   8.013   0.712   2.581 -0.6086  0.0272  0.8664
19730SOL     OW62081   6.858   1.330   4.935  0.4162 -0.2203  0.0978
19730SOL    HW162082   6.891   1.250   4.894  3.1798  0.9655 -0.1797
19730SOL    HW262083   6.811   1.300   5.013  1.1489 -2.1122 -0.1466
19731SOL     OW62084   2.198   4.244   3.539  0.0462 -0.7037  0.4328
19731SOL    HW162085   2.261   4.228   3.610 -0.5089 -0.2743  1.0434
19731SOL    HW262086   2.221   4.181   3.471  0.2366 -1.5191  1.2340
19732SOL     OW62087   3.669   0.437   3.550 -0.1505 -0.2273 -0.2159
19732SOL    HW162088   3.727   0.370   3.585 -0.1862  0.4347  1.1700
19732SOL    HW262089   3.725   0.515   3.543 -0.9779  0.5992  1.7591
19733SOL     OW62090   4.553   8.061   0.652 -0.7105 -0.4330  0.5292
19733SOL    HW162091   4.569   8.142   0.604 -1.1206 -0.2499  0.6973
19733SOL    HW262092   4.615   7.998   0.614  0.3586  0.2257  1.1150
19734SOL     OW62093   6.696   9.536   6.727  0.1043  0.1840  0.1540
19734SOL    HW162094   6.606   9.504   6.735  0.0027  0.7238  1.3539
19734SOL    HW262095   6.706   9.598   6.799  1.6713 -0.3925  0.4739
19735SOL     OW62096   2.712   0.536   5.674 -0.2513 -0.0478  0.5477
19735SOL    HW162097   2.767   0.463   5.646  0.1400  0.6896 -0.6931
19735SOL    HW262098   2.731   0.606   5.611 -1.3302  0.8042  1.1304
19736SOL     OW62099   6.575   9.413   5.296 -0.1252  0.1025 -0.7362
19736SOL    HW162100   6.606   9.458   5.217  0.1256 -0.7168 -1.1126
19736SOL    HW262101   6.567   9.321   5.270  1.8509 -0.5535  0.7139
19737SOL     OW62102   3.959   9.622   5.706 -0.5498 -0.1660  0.3729
19737SOL    HW162103   3.982   9.536   5.671 -0.2515  0.1044 -0.0945
19737SOL    HW262104   4.029   9.680   5.677 -2.2306  0.8724 -1.8690
19738SOL     OW62105   5.332   5.301   0.198 -0.1064 -0.2372  0.1031
19738SOL    HW162106   5.400   5.311   0.131 -1.8126 -1.1555 -1.9186
19738SOL    HW262107   5.373   5.249   0.267  1.7965  0.9325 -0.0941
19739SOL     OW62108   3.993   2.880   9.064 -0.0401 -0.0133 -0.4177
19739SOL    HW162109   3.914   2.927   9.038  0.5446  0.7129 -0.9416
19739SOL    HW262110   3.985   2.869   9.158 -0.7387  0.1014 -0.4612
19740SOL     OW62111   6.338   8.119   4.021  0.1829  0.0446 -0.1171
19740SOL    HW162112   6.288   8.145   3.944 -2.8517 -1.0850  1.3133
19740SOL    HW262113   6.343   8.024   4.017  4.8654  0.0895 -1.5779
19741SOL     OW62114   5.529   9.550   1.949 -0.1436  0.4989  0.1281
19741SOL    HW162115   5.514   9.456   1.934 -1.8548  0.8213 -0.3791
19741SOL    HW262116   5.617   9.554   1.985  0.4543 -1.2023 -0.9896
19742SOL     OW62117   9.387   2.482   0.680  0.2318  0.9709  0.2828
19742SOL    HW162118   9.350   2.565   0.648  0.0642  1.0599  0.7022
19742SOL    HW262119   9.318   2.418   0.666  0.1968  0.9901  0.3667
19743SOL     OW62120   2.158   5.095   3.616 -0.5022 -0.2245  0.0525
19743SOL    HW162121   2.136   5.091   3.523 -0.7168 -0.9061  0.1230
19743SOL    HW262122   2.227   5.030   3.628 -0.0880  0.2506  0.2709
19744SOL     OW62123   0.339   0.565   5.457 -0.4729 -0.1613 -0.0378
19744SOL    HW162124   0.339   0.629   5.386 -0.3853  0.7837  0.7773
19744SOL    HW262125   0.257   0.516   5.446 -1.6468  1.5569  0.5522
19745SOL     OW62126   8.854   5.468   0.463 -0.6211  0.6425 -0.1670
19745SOL    HW162127   8.868   5.429   0.549  0.4080  0.1221 -0.5485
19745SOL    HW262128   8.855   5.562   0.479 -2.1963  0.5494  0.6312
19746SOL     OW62129   8.878   8.711   4.768 -0.8131  0.0065 -0.0317
19746SOL    HW162130   8.806   8.770   4.746 -0.2291  0.6537 -0.2643
19746SOL    HW262131   8.940   8.721   4.696  0.1576  0.5438  0.8529
19747SOL     OW62132   7.662   5.637   1.005  0.6624  0.2677  0.2245
19747SOL    HW162133   7.722   5.682   1.064  0.6516 -0.0490  0.4781
19747SOL    HW262134   7.674   5.544   1.025 -1.7426  0.2716  2.0821
19748SOL     OW62135   6.283   1.793   9.303  0.2157 -0.1080 -0.0115
19748SOL    HW162136   6.256   1.817   9.214 -1.2263 -0.0114  0.4288
19748SOL    HW262137   6.234   1.713   9.322 -0.8676  0.8161  1.3135
19749SOL     OW62138   5.480   0.009   6.133  0.2385 -0.8246  0.0630
19749SOL    HW162139   5.477   0.076   6.065 -0.3214 -0.2646  0.6318
19749SOL    HW262140   5.561  -0.039   6.115  0.7807  0.1600 -0.2010
19750SOL     OW62141   4.922   1.422   5.361 -0.5124 -0.1062  0.0673
19750SOL    HW162142   4.930   1.481   5.436  2.0754 -0.4370  0.1394
19750SOL    HW262143   4.974   1.464   5.292 -1.1646 -0.8186 -0.8757
19751SOL     OW62144   4.450   8.769   6.786 -0.0702 -0.8155  0.0339
19751SOL    HW162145   4.437   8.737   6.876  2.1099 -1.4675  0.1681
19751SOL    HW262146   4.514   8.710   6.748 -1.0815 -0.6507 -2.0625
19752SOL     OW62147   4.623   9.441   5.923 -0.0081 -0.3276 -0.1672
19752SOL    HW162148   4.592   9.404   5.840 -1.5078 -1.6678  0.9356
19752SOL    HW262149   4.546   9.483   5.961  1.2262  2.4823 -0.5330
19753SOL     OW62150   0.044   8.701   2.720  0.1667  0.8287  0.0191
19753SOL    HW162151   0.040   8.784   2.769 -1.3369  0.2512  0.9700
19753SOL    HW262152  -0.006   8.718   2.640 -2.4328  0.2081  1.3726
19754SOL     OW62153   2.550   8.721   6.548  0.0018  0.0629  0.7223
19754SOL    HW162154   2.633   8.766   6.561 -0.2537  0.5042  0.8460
19754SOL    HW262155   2.551   8.650   6.612  0.4248 -0.1398  0.4935
19755SOL     OW62156   5.684   8.430   0.302 -0.2087 -0.3924 -0.1464
19755SOL    HW162157   5.622   8.390   0.364 -1.5180  0.2522 -0.9992
19755SOL    HW262158   5.752   8.468   0.357 -0.0796 -1.8764  0.7821
19756SOL     OW62159   5.206   2.524   7.528 -0.2366  0.2917 -0.1928
19756SOL    HW162160   5.247   2.497   7.446 -1.0890  0.1202 -0.5821
19756SOL    HW262161   5.136   2.459   7.541 -1.8376  1.8242 -0.7434
19757SOL     OW62162   4.142   1.323   2.169  0.3209  0.5716  0.3438
19757SOL    HW162163   4.160   1.232   2.148  1.8291  0.5201  1.6844
19757SOL    HW262164   4.194   1.374   2.107 -1.5375  0.6184 -1.2965
19758SOL     OW62165   2.895   3.572   9.183  0.2699 -0.0576  0.3700
19758SOL    HW162166   2.941   3.516   9.245  1.1139  0.8789  0.6102
19758SOL    HW262167   2.961   3.598   9.119 -0.2626  0.1359 -0.1160
19759SOL     OW62168   7.294   1.403   8.798  0.6051 -0.0761  0.9080
19759SOL    HW162169   7.264   1.461   8.868  2.0025  0.9814  0.6651
19759SOL    HW262170   7.346   1.459   8.741  2.5200 -1.6664  0.9819
19760SOL     OW62171   8.979   0.552   8.047 -0.3054 -0.1404 -0.3210
19760SOL    HW162172   8.950   0.535   8.136  0.2058 -1.0449 -0.3130
19760SOL    HW262173   8.916   0.507   7.991  0.5429 -1.3641 -0.3310
19761SOL     OW62174   9.316   8.155   1.626  0.1668 -0.3489 -0.4059
19761SOL    HW162175   9.287   8.084   1.684 -0.9577  1.1876  1.0125
19761SOL    HW262176   9.241   8.215   1.623  2.0412  2.2339  0.8450
19762SOL     OW62177   9.619   6.366   1.914 -0.1513 -0.5404  0.3125
19762SOL    HW162178   9.569   6.405   1.842  0.4623  1.2040  0.7878
19762SOL    HW262179   9.601   6.272   1.907  0.8603 -0.6067 -2.8688
19763SOL     OW62180   6.562   2.570   4.440 -0.8506 -0.7931 -0.2663
19763SOL    HW162181   6.595   2.631   4.374  1.2166 -0.8004  0.6944
19763SOL    HW262182   6.497   2.621   4.490  0.7623  0.6436  0.4557
19764SOL     OW62183   2.436   0.244   6.231 -0.5749 -0.0352  0.0286
19764SOL    HW162184   2.424   0.216   6.322 -0.5590  2.7933  0.9967
19764SOL    HW262185   2.529   0.268   6.225 -0.2267 -1.5271 -1.1962
19765SOL     OW62186   5.695   0.184   7.854 -0.2149 -0.0931 -0.1995
19765SOL    HW162187   5.613   0.169   7.808 -0.2300  1.4670 -0.7388
19765SOL    HW262188   5.763   0.163   7.790 -0.1962 -0.5403 -0.0367
19766SOL     OW62189   2.930   7.907   2.782 -0.2823  0.0828 -0.4941
19766SOL    HW162190   2.861   7.864   2.732  0.0316 -0.9988 -0.0323
19766SOL    HW262191   2.907   8.000   2.781 -1.3439 -0.1778 -0.9552
19767SOL     OW62192   9.125   5.912   3.921 -0.1227 -0.6750  0.4288
19767SOL    HW162193   9.191   5.975   3.953 -0.0812  0.2977 -1.4382
19767SOL    HW262194   9.084   5.879   4.001  2.5325 -1.2640  1.6827
19768SOL     OW62195   3.359   9.383   1.744 -0.1334  0.7251  0.2201
19768SOL    HW162196   3.320   9.301   1.713  0.0972 -0.1475  2.0640
19768SOL    HW262197   3.294   9.450   1.723 -0.1255  0.1633 -1.7448
19769SOL     OW62198   9.168   1.910   1.898  0.3264 -0.0824  0.3615
19769SOL    HW162199   9.193   1.998   1.925 -0.0444  0.9922 -2.4411
19769SOL    HW262200   9.195   1.904   1.806 -1.1646 -2.2819 -0.0223
19770SOL     OW62201   3.440   6.581   1.525  0.1975  0.2731 -0.0744
19770SOL    HW162202   3.490   6.611   1.449 -0.2702  0.9457 -0.1313
19770SOL    HW262203   3.349   6.586   1.497  0.1137 -3.0268 -0.7260
19771SOL     OW62204   5.542   3.910   3.917 -0.2302 -0.0824 -0.6695
19771SOL    HW162205   5.607   3.840   3.914  0.3810  0.4731 -0.5978
19771SOL    HW262206   5.592   3.990   3.906 -0.8366  0.3974 -0.0200
19772SOL     OW62207   3.840   7.537   2.700  0.2204 -0.0746 -0.0575
19772SOL    HW162208   3.780   7.596   2.654 -0.1110  0.3156  0.8286
19772SOL    HW262209   3.921   7.539   2.650 -0.7006 -1.1340 -1.6679
19773SOL     OW62210   0.096   5.094   3.520  0.3807  0.6225  0.3821
19773SOL    HW162211   0.166   5.089   3.585  0.9310 -0.3172 -0.2533
19773SOL    HW262212   0.098   5.009   3.477 -2.1500  0.0002  1.3444
19774SOL     OW62213   8.047   1.821   5.992  0.0430 -0.6324 -0.1240
19774SOL    HW162214   8.136   1.844   6.018  0.4101 -2.0819 -0.0239
19774SOL    HW262215   7.991   1.873   6.049  0.8321 -0.9557  0.9901
19775SOL     OW62216   3.861   4.713   8.312 -0.7072  0.2819 -0.2782
19775SOL    HW162217   3.833   4.798   8.345 -0.2749  1.2451 -2.2343
19775SOL    HW262218   3.947   4.730   8.273  0.3582 -1.5194  1.1103
19776SOL     OW62219   3.782   8.576   7.193 -0.1804 -0.4725  0.4511
19776SOL    HW162220   3.737   8.622   7.123 -3.6806 -3.6354  0.3254
19776SOL    HW262221   3.833   8.508   7.149  1.1336  0.2157  0.8468
19777SOL     OW62222   4.077   8.558   3.158  0.5963  0.0569 -0.2229
19777SOL    HW162223   4.151   8.533   3.214  0.2609 -0.0540  0.1784
19777SOL    HW262224   4.021   8.481   3.157  0.4377  0.1738 -0.4478
19778SOL     OW62225   3.283   0.292   4.622  0.6140  0.2511 -0.8541
19778SOL    HW162226   3.255   0.247   4.542  0.4642 -1.2915  0.0326
19778SOL    HW262227   3.209   0.347   4.646  0.3144  0.0371 -1.2842
19779SOL     OW62228   5.291   1.693   8.981  0.1019 -0.1982 -0.2854
19779SOL    HW162229   5.295   1.636   8.904 -1.0022 -0.1415 -0.3977
19779SOL    HW262230   5.375   1.740   8.980  1.6518 -2.7382  0.5545
19780SOL     OW62231   3.732   2.480   2.460  0.4736  0.4667  0.6986
19780SOL    HW162232   3.637   2.484   2.474  0.5368 -1.5198  2.0797
19780SOL    HW262233   3.769   2.496   2.547  1.2791 -1.3670  0.7351
19781SOL     OW62234   4.092   7.049   9.460 -0.2509  0.1012 -0.3851
19781SOL    HW162235   4.071   7.143   9.457  0.4477  0.2949  0.4006
19781SOL    HW262236   4.014   7.009   9.499 -1.1679  0.1388 -2.1022
19782SOL     OW62237   7.699   1.863   3.355  0.0700  0.6100  0.1477
19782SOL    HW162238   7.723   1.947   3.316  0.1421  0.0048 -1.1722
19782SOL    HW262239   7.768   1.845   3.418  0.3294  1.2960  0.0661
19783SOL     OW62240   4.175   1.795   6.138  0.1991 -0.3333 -0.6406
19783SOL    HW162241   4.156   1.742   6.215  4.6419  0.3043  1.2309
19783SOL    HW262242   4.103   1.857   6.132  0.9508  1.6475  5.0530
19784SOL     OW62243   2.805   0.261   2.140 -0.0898 -0.2416 -0.4727
19784SOL    HW162244   2.719   0.290   2.111 -0.2557 -1.0657 -0.8329
19784SOL    HW262245   2.798   0.258   2.236 -0.5248 -0.4875 -0.5104
19785SOL     OW62246   4.493   0.004   5.128  0.6126  0.6165  0.0167
19785SOL    HW162247   4.509   0.098   5.137  1.5103  0.3909  0.9164
19785SOL    HW262248   4.562  -0.026   5.069 -0.4224  0.7149 -1.2785
19786SOL     OW62249   6.206   8.045   9.116  0.1084 -0.1319 -0.2682
19786SOL    HW162250   6.125   8.025   9.068  1.2672 -1.3547 -1.8364
19786SOL    HW262251   6.266   8.077   9.048  1.5629 -1.1843  0.4734
19787SOL     OW62252   3.312   9.110   1.273 -0.3859 -0.5673 -0.1658
19787SOL    HW162253   3.266   9.140   1.195  0.0922 -1.5655 -0.8581
19787SOL    HW262254   3.368   9.183   1.298 -0.4134 -0.2988 -0.8639
19788SOL     OW62255   2.089   8.241   6.075 -0.0740  0.7138 -0.2533
19788SOL    HW162256   2.016   8.294   6.108  0.0780  0.6208  0.2310
19788SOL    HW262257   2.124   8.197   6.152  1.8369  2.3661 -0.0929
19789SOL     OW62258   4.910   0.845   1.939 -0.0788 -0.0567  0.0459
19789SOL    HW162259   5.000   0.819   1.922 -0.1480 -0.0632 -0.3068
19789SOL    HW262260   4.885   0.900   1.865 -0.7079 -0.9127 -0.3949
19790SOL     OW62261   9.519   7.127   8.735  0.4242 -0.5623  0.2279
19790SOL    HW162262   9.576   7.195   8.772 -0.0522  0.2618 -0.5326
19790SOL    HW262263   9.432   7.149   8.766  0.2099 -0.6027 -0.3442
19791SOL     OW62264   3.548   4.161   0.616 -0.1484  0.0193 -0.1000
19791SOL    HW162265   3.594   4.242   0.595  0.1214 -0.1088 -0.0124
19791SOL    HW262266   3.557   4.151   0.711 -1.3829  0.6080  0.1018
19792SOL     OW62267   1.096   1.713   4.426  0.1780  0.0170  0.3938
19792SOL    HW162268   1.130   1.802   4.437 -1.4158  0.9348 -1.4592
19792SOL    HW262269   1.158   1.671   4.367  1.0263 -0.1905  1.4059
19793SOL     OW62270   0.605   2.784   2.903 -0.4043 -0.6652  0.2114
19793SOL    HW162271   0.618   2.701   2.949  1.4752  0.0480  1.0795
19793SOL    HW262272   0.661   2.777   2.825 -0.7452 -0.4554 -0.0560
19794SOL     OW62273   0.156   4.835   1.138  0.3880 -0.0442  0.1375
19794SOL    HW162274   0.185   4.852   1.048 -0.4591  2.1529  0.2170
19794SOL    HW262275   0.099   4.908   1.159  0.0923 -0.8167  2.2948
19795SOL     OW62276   7.346   2.424   0.840 -0.5322 -0.8147 -0.6935
19795SOL    HW162277   7.312   2.353   0.785 -0.4399 -0.6662 -0.9439
19795SOL    HW262278   7.379   2.379   0.918 -2.0503 -0.8860 -0.0727
19796SOL     OW62279   6.119   2.001   7.687  0.1983 -0.2753  0.6750
19796SOL    HW162280   6.206   1.971   7.662 -0.7084 -0.0125 -3.5175
19796SOL    HW262281   6.066   1.921   7.688 -0.0523 -0.1131  0.4267
19797SOL     OW62282   3.133   5.286   8.193 -0.3462  0.0506 -0.5148
19797SOL    HW162283   3.158   5.341   8.267  0.0245  0.4386 -0.9161
19797SOL    HW262284   3.086   5.212   8.232 -1.7993  1.1849 -0.0511
19798SOL     OW62285   4.472   2.498   6.485 -0.3892 -0.1397  0.2919
19798SOL    HW162286   4.467   2.459   6.572 -0.1407  0.3672  0.5387
19798SOL    HW262287   4.383   2.493   6.451 -0.7982  0.9171  1.1401
19799SOL     OW62288   2.995   8.434   3.394  0.3952  0.2072 -0.5180
19799SOL    HW162289   3.009   8.505   3.457  0.9470 -0.2291 -0.1391
19799SOL    HW262290   2.902   8.438   3.373  0.8116  2.5366 -2.3117
19800SOL     OW62291   5.702   0.577   9.505  0.0319 -0.3053 -0.1532
19800SOL    HW162292   5.779   0.552   9.556 -0.0462  0.5000  0.3691
19800SOL    HW262293   5.727   0.559   9.414  1.9951  2.6795 -0.3364
19801SOL     OW62294   9.473   4.163   4.223  0.1198  0.2104 -0.3033
19801SOL    HW162295   9.404   4.204   4.276 -0.1542  0.1997 -0.6489
19801SOL    HW262296   9.472   4.211   4.141  0.1684 -0.1288 -0.5057
19802SOL     OW62297   7.592   2.230   0.943  0.3932 -0.1635 -0.1086
19802SOL    HW162298   7.571   2.138   0.932  1.0217 -0.4507  0.9270
19802SOL    HW262299   7.669   2.244   0.888 -0.3709  0.0409 -1.1602
19803SOL     OW62300   8.448   5.068   7.072  0.4311 -0.0105 -0.6833
19803SOL    HW162301   8.519   5.085   7.010 -0.5173  1.3270 -1.4597
19803SOL    HW262302   8.484   5.004   7.133  1.2840 -1.6305 -2.7829
19804SOL     OW62303   7.128   1.414   3.741  0.1421  0.6161 -0.0329
19804SOL    HW162304   7.058   1.426   3.806  0.6567  2.0027  0.2825
19804SOL    HW262305   7.096   1.342   3.686 -1.6131  1.3265 -0.0094
19805SOL     OW62306   2.062   9.355   3.359  0.3040 -0.1961 -0.3129
19805SOL    HW162307   2.027   9.410   3.430 -0.2096  0.7125 -1.2273
19805SOL    HW262308   2.156   9.351   3.375  0.1500 -0.3209  0.6204
19806SOL     OW62309   6.444   7.952   1.033  0.0274  0.1255  0.1042
19806SOL    HW162310   6.502   7.940   0.957  1.1453 -0.1166  0.9753
19806SOL    HW262311   6.356   7.941   0.997  0.5686 -0.8485 -0.9993
19807SOL     OW62312   0.731   2.302   5.205 -0.4269 -0.1269  0.2457
19807SOL    HW162313   0.763   2.238   5.142  2.3440  0.3758  0.9977
19807SOL    HW262314   0.709   2.250   5.283  0.8208 -0.3104  0.4974
19808SOL     OW62315   7.713   6.247   0.258 -0.3285  0.0704 -0.1578
19808SOL    HW162316   7.738   6.340   0.254 -0.5939  0.1314 -0.4377
19808SOL    HW262317   7.661   6.233   0.179 -3.2549  0.5362  1.5648
19809SOL     OW62318   5.706   4.938   4.745 -0.3504  0.2406 -0.2480
19809SOL    HW162319   5.634   4.978   4.795  0.6610 -0.2774  1.7498
19809SOL    HW262320   5.784   4.982   4.777  0.4910 -1.2364 -0.1899
19810SOL     OW62321   9.097   7.709   8.891  0.3836  0.7097 -0.2151
19810SOL    HW162322   9.006   7.680   8.888  0.5696 -0.1366  1.3391
19810SOL    HW262323   9.114   7.726   8.984  1.5086  1.8937 -0.6044
19811SOL     OW62324   6.894   0.496   1.468 -0.2974  0.3804 -0.5317
19811SOL    HW162325   6.931   0.446   1.395  1.6449  1.5590 -0.4183
19811SOL    HW262326   6.874   0.582   1.431  0.6713  0.9772  0.2596
19812SOL     OW62327   7.863   2.156   0.326 -0.0605 -0.4702  0.4944
19812SOL    HW162328   7.895   2.078   0.281  1.5593 -0.2704  1.2127
19812SOL    HW262329   7.814   2.205   0.259 -0.0381 -1.4905 -0.2878
19813SOL     OW62330   0.425   9.207   5.445 -0.1147 -0.0996 -0.1158
19813SOL    HW162331   0.482   9.153   5.499  0.4025  0.4544 -0.1031
19813SOL    HW262332   0.377   9.262   5.507 -0.3749 -0.2789 -0.1537
19814SOL     OW62333   2.852   7.090   1.640  0.4177 -0.1597  0.6006
19814SOL    HW162334   2.907   7.139   1.702 -1.5918  0.8095  1.6950
19814SOL    HW262335   2.793   7.155   1.603  0.7661 -0.9594 -1.4944
19815SOL     OW62336   2.857   4.723   3.244  0.5774 -0.3799  0.7282
19815SOL    HW162337   2.896   4.676   3.318 -1.5977  0.0127  2.2257
19815SOL    HW262338   2.820   4.803   3.284 -0.3174  0.0282 -0.8471
19816SOL     OW62339   1.726   1.594   2.496 -0.5798  0.2032  0.3088
19816SOL    HW162340   1.733   1.575   2.590  0.4697 -1.1227 -0.0034
19816SOL    HW262341   1.741   1.509   2.453 -1.6810  0.6624 -1.0487
19817SOL     OW62342   1.876   7.223   6.209 -0.6237 -0.6485  0.4919
19817SOL    HW162343   1.789   7.185   6.211 -0.1804 -1.7205 -0.0047
19817SOL    HW262344   1.923   7.173   6.142  0.7037 -0.8305  1.5226
19818SOL     OW62345   8.429   3.834   7.925  0.1337 -0.0713 -0.6185
19818SOL    HW162346   8.522   3.855   7.928 -0.1253  1.0277  0.1693
19818SOL    HW262347   8.385   3.918   7.917 -0.7585 -0.6673 -2.6210
19819SOL     OW62348   2.856   6.873   4.321 -0.1892 -0.4939  0.3113
19819SOL    HW162349   2.791   6.931   4.361 -0.9097 -0.7959 -0.4113
19819SOL    HW262350   2.814   6.839   4.243  0.9951 -0.3566 -0.4124
19820SOL     OW62351   8.386   6.667   0.588  0.1208  0.4457  0.4779
19820SOL    HW162352   8.447   6.725   0.633  0.4214  0.8686 -0.4587
19820SOL    HW262353   8.337   6.724   0.529  0.5206 -0.2496 -0.5638
19821SOL     OW62354   6.839   0.267   2.241 -0.3331 -0.3728 -0.1779
19821SOL    HW162355   6.825   0.195   2.302 -0.0998 -0.6898 -0.4962
19821SOL    HW262356   6.772   0.254   2.174  0.0978 -0.6501 -0.5596
19822SOL     OW62357   0.008   1.316   6.084  0.3978 -0.2927 -0.1362
19822SOL    HW162358  -0.055   1.328   6.155 -0.9711 -0.0665 -1.3162
19822SOL    HW262359   0.013   1.222   6.071  4.5415 -0.8832  3.4637
19823SOL     OW62360   4.296   8.231   8.466  0.0356  0.0584  0.3185
19823SOL    HW162361   4.380   8.214   8.424 -0.5101 -0.4647 -0.6244
19823SOL    HW262362   4.248   8.285   8.403 -0.9734 -1.1187  0.0136
19824SOL     OW62363   2.450   8.976   9.209  0.1369  0.3818  0.2888
19824SOL    HW162364   2.435   9.067   9.183  0.3380 -0.1381 -1.8359
19824SOL    HW262365   2.432   8.975   9.303  0.9687  2.7824  0.5525
19825SOL     OW62366   3.184   1.904   7.950  0.1865  0.0272  0.2220
19825SOL    HW162367   3.105   1.917   8.002 -0.4489 -1.6282 -0.2565
19825SOL    HW262368   3.256   1.908   8.013 -0.2449  1.5102  0.6694
19826SOL     OW62369   5.645   9.020   9.240  0.5510  0.1832  0.4555
19826SOL    HW162370   5.718   9.074   9.210  2.2026 -1.8369  0.5979
19826SOL    HW262371   5.629   8.959   9.169 -0.8280  0.3660  0.5706
19827SOL     OW62372   3.064   7.802   0.911 -0.3984 -0.1391 -0.5963
19827SOL    HW162373   3.155   7.777   0.921  0.1452  1.0371 -2.2051
19827SOL    HW262374   3.053   7.877   0.969 -0.0685  0.3243 -1.1295
19828SOL     OW62375   7.840   6.605   4.647  0.5772 -0.1295  0.7867
19828SOL    HW162376   7.746   6.596   4.662  0.2598 -0.1789 -0.9902
19828SOL    HW262377   7.856   6.699   4.653  0.3706 -0.0971  0.8424
19829SOL     OW62378   9.333   6.251   1.213 -0.3407  0.3006  0.3328
19829SOL    HW162379   9.304   6.341   1.231 -0.5522  0.3011 -0.0111
19829SOL    HW262380   9.313   6.204   1.294  2.3509  1.1436  1.6174
19830SOL     OW62381   6.903   1.650   2.605  0.9998  0.2617  0.0314
19830SOL    HW162382   6.935   1.560   2.604 -0.9591 -0.5059 -0.8563
19830SOL    HW262383   6.897   1.674   2.513  1.5985  1.3455  0.2650
19831SOL     OW62384   7.622   5.519   7.664 -0.0430  0.1542 -0.0581
19831SOL    HW162385   7.693   5.481   7.612 -1.8121 -1.5655 -1.3660
19831SOL    HW262386   7.627   5.613   7.647  0.2616 -0.2215 -2.3054
19832SOL     OW62387   1.694   9.416   6.604 -0.3894  0.0694  0.1782
19832SOL    HW162388   1.669   9.488   6.546 -0.0914  0.8141  0.9520
19832SOL    HW262389   1.618   9.406   6.663 -1.1352 -1.3867 -0.9796
19833SOL     OW62390   1.684   1.555   3.718 -0.1496  0.2698 -0.3015
19833SOL    HW162391   1.667   1.491   3.649  2.2830 -0.8245  0.0096
19833SOL    HW262392   1.693   1.502   3.798 -2.4036  1.4622  0.8353
19834SOL     OW62393   2.686   5.215   8.394  0.1999  0.7601 -0.4737
19834SOL    HW162394   2.736   5.294   8.372 -0.8587  1.3598 -0.8084
19834SOL    HW262395   2.713   5.194   8.483  2.2681  0.0862 -1.2087
19835SOL     OW62396   5.906   2.866   3.720  0.4409 -0.4841  0.1398
19835SOL    HW162397   5.955   2.808   3.779  2.3051 -0.1609 -0.9999
19835SOL    HW262398   5.856   2.806   3.664  0.9598 -0.9250  0.1390
19836SOL     OW62399   1.652   8.002   2.562  0.3884 -0.4470 -0.1824
19836SOL    HW162400   1.586   8.029   2.625  1.0895  1.4027 -0.1960
19836SOL    HW262401   1.654   7.906   2.569 -1.1969 -0.4371  0.8854
19837SOL     OW62402   1.569   9.303   2.558  0.5524  0.4188 -0.4667
19837SOL    HW162403   1.646   9.262   2.518  1.0791  1.1509 -0.2314
19837SOL    HW262404   1.575   9.395   2.533  1.1744  1.0109  1.6672
19838SOL     OW62405   2.000   0.280   2.768  0.0396  0.0289  0.1114
19838SOL    HW162406   1.973   0.193   2.796 -2.0547 -0.2246 -2.3478
19838SOL    HW262407   2.066   0.264   2.700  1.9669  0.5354  1.7322
19839SOL     OW62408   8.377   3.936   9.366  0.4477 -0.5048 -0.4620
19839SOL    HW162409   8.427   3.990   9.427  0.6825  0.5318 -1.5378
19839SOL    HW262410   8.287   3.967   9.375  0.7171  0.7243 -1.7149
19840SOL     OW62411   5.950   2.892   0.921 -0.1700  0.4350  0.6681
19840SOL    HW162412   5.963   2.894   1.015 -1.5853  0.2755  0.8846
19840SOL    HW262413   5.855   2.895   0.909 -0.3099 -3.3116 -0.6193
19841SOL     OW62414   7.202   2.054   8.569  0.1783  0.0767  0.5865
19841SOL    HW162415   7.256   2.059   8.491 -0.9273 -1.9650 -0.3835
19841SOL    HW262416   7.264   2.032   8.639  0.8149 -0.9224 -0.2549
19842SOL     OW62417   2.571   1.425   7.508  0.2745  0.1044  0.0677
19842SOL    HW162418   2.550   1.511   7.471  1.1057 -0.0905 -0.9138
19842SOL    HW262419   2.666   1.424   7.514  0.2720 -0.7289  0.1001
19843SOL     OW62420   6.778   5.698   6.221 -0.1318 -0.1205  0.3025
19843SOL    HW162421   6.851   5.757   6.238 -1.0850  0.7729  1.4521
19843SOL    HW262422   6.752   5.665   6.307 -0.0256 -1.7535 -0.2541
19844SOL     OW62423   9.320   7.807   1.524  0.2313 -0.5624  0.0154
19844SOL    HW162424   9.387   7.741   1.545 -2.3951 -3.8451 -1.0756
19844SOL    HW262425   9.315   7.862   1.602  0.7919 -3.2736  2.1013
19845SOL     OW62426   7.211   3.006   9.121 -0.1373 -0.3689 -0.5712
19845SOL    HW162427   7.150   2.963   9.180 -0.7620  0.9353 -0.2175
19845SOL    HW262428   7.245   3.080   9.171 -0.4660  0.5988 -1.7132
19846SOL     OW62429   3.739   9.115   3.321  0.2756 -0.0494  0.1215
19846SOL    HW162430   3.715   9.032   3.364  0.6603  0.4831  1.4278
19846SOL    HW262431   3.834   9.111   3.313  0.3945  0.6141  0.9973
19847SOL     OW62432   4.054   7.056   8.124 -0.4078 -0.0893 -0.2486
19847SOL    HW162433   4.134   7.107   8.115 -0.3232 -0.3124 -0.7899
19847SOL    HW262434   4.069   7.001   8.201  0.3804 -0.8758 -0.9414
19848SOL     OW62435   7.230   4.185   3.860  0.2903 -0.0941  0.4634
19848SOL    HW162436   7.156   4.125   3.862 -0.4200  0.6388 -1.5761
19848SOL    HW262437   7.190   4.272   3.859  1.2876  0.5518  3.7506
19849SOL     OW62438   6.480   6.026   3.871  0.0412  0.6384  0.3737
19849SOL    HW162439   6.471   5.960   3.940 -0.8641  1.1646  0.7797
19849SOL    HW262440   6.559   6.075   3.895  0.4803 -0.0164  0.2966
19850SOL     OW62441   3.459   7.578   5.354  0.3262  0.3639 -0.2659
19850SOL    HW162442   3.487   7.596   5.444 -2.9902  2.4996  0.5277
19850SOL    HW262443   3.427   7.488   5.357 -1.5538  1.0187  1.3004
19851SOL     OW62444   1.078   9.205   7.170 -0.2910  0.9870  0.4682
19851SOL    HW162445   1.108   9.119   7.142 -1.2240  1.7359 -3.3415
19851SOL    HW262446   1.008   9.187   7.233 -0.1205 -1.0086  0.1312
19852SOL     OW62447   9.194   0.353   8.936  0.5772  0.1092  0.5894
19852SOL    HW162448   9.196   0.263   8.904 -0.3033  0.5331 -0.7411
19852SOL    HW262449   9.102   0.371   8.955  1.0128  0.0348  3.0291
19853SOL     OW62450   5.457   9.611   0.206  0.1814  0.2996  0.1962
19853SOL    HW162451   5.493   9.573   0.286 -1.3670 -0.9565  0.3482
19853SOL    HW262452   5.384   9.553   0.183 -0.7026  1.8128 -0.9795
19854SOL     OW62453   7.997   1.239   7.976  0.5975 -0.1479 -0.6597
19854SOL    HW162454   7.907   1.272   7.974  0.5895 -0.0431  0.5725
19854SOL    HW262455   8.034   1.275   8.057  1.4961 -0.8489 -0.7412
19855SOL     OW62456   1.305   1.925   0.905  0.0082 -0.0268  0.1282
19855SOL    HW162457   1.227   1.888   0.947 -0.0788 -0.6250 -0.5388
19855SOL    HW262458   1.368   1.937   0.976  0.2126 -1.9103  0.3116
19856SOL     OW62459   8.617   7.037   6.771  0.3454  0.4577  0.3339
19856SOL    HW162460   8.699   7.039   6.722 -0.6639 -0.8326 -1.5420
19856SOL    HW262461   8.629   6.966   6.834  0.4655 -0.1659 -0.3739
19857SOL     OW62462   6.627   1.327   7.239  0.0079 -0.2968  0.1079
19857SOL    HW162463   6.600   1.332   7.147  1.7435 -1.5812 -0.5308
19857SOL    HW262464   6.545   1.326   7.288 -0.9556  0.8080 -1.3851
19858SOL     OW62465   7.663   7.776   2.097 -0.5096 -0.9701 -0.1084
19858SOL    HW162466   7.581   7.785   2.146 -0.9921 -0.0323 -1.0344
19858SOL    HW262467   7.636   7.767   2.006  0.3285 -3.7604 -0.1723
19859SOL     OW62468   4.363   2.769   3.090  0.7141  0.2027  0.6969
19859SOL    HW162469   4.384   2.840   3.029  0.4162  0.6022  1.0543
19859SOL    HW262470   4.295   2.805   3.146  1.1844 -0.0702  1.4532
19860SOL     OW62471   8.100   6.928   6.086  0.1175  0.1000 -0.3530
19860SOL    HW162472   8.041   6.871   6.037 -0.3850 -1.2744  1.7154
19860SOL    HW262473   8.047   6.961   6.159  1.2120  0.8691  0.1244
19861SOL     OW62474   7.441   1.707   0.037 -0.3368 -0.2916 -0.4585
19861SOL    HW162475   7.531   1.720   0.006  0.4444  0.0411  1.7855
19861SOL    HW262476   7.419   1.787   0.085 -1.4496 -0.7788 -0.1105
19862SOL     OW62477   1.432   1.419   4.790 -0.0259 -0.4181  0.0803
19862SOL    HW162478   1.446   1.513   4.774 -2.7409  0.1444  0.4553
19862SOL    HW262479   1.490   1.375   4.727  2.4011  1.4172  0.8576
19863SOL     OW62480   3.893   9.074   5.403 -0.5693  0.1297  0.1150
19863SOL    HW162481   3.861   8.997   5.449  0.3303 -0.6449 -0.5202
19863SOL    HW262482   3.937   9.126   5.470  0.8456 -1.0480  0.1529
19864SOL     OW62483   4.258   4.965   2.506 -0.1425 -0.0777  0.1123
19864SOL    HW162484   4.234   4.981   2.597  0.3564  0.6362  0.1291
19864SOL    HW262485   4.339   5.015   2.493  0.4031 -1.0570 -0.4107
19865SOL     OW62486   3.848   8.392   2.502  0.0776 -0.3990  0.4775
19865SOL    HW162487   3.758   8.372   2.476 -0.4807  0.9056  1.2843
19865SOL    HW262488   3.847   8.386   2.597  0.7130  0.1041  0.5204
19866SOL     OW62489   8.426   4.328   1.981  0.2500  0.5053 -0.3631
19866SOL    HW162490   8.442   4.239   1.951 -1.5521  0.4150 -1.1946
19866SOL    HW262491   8.487   4.341   2.053 -0.8188 -2.1270  1.1481
19867SOL     OW62492   5.728   3.149   6.551  0.0423 -0.0268  0.5956
19867SOL    HW162493   5.682   3.156   6.635 -1.1066 -1.5554  0.1352
19867SOL    HW262494   5.763   3.237   6.536 -0.9477  0.6447  1.9776
19868SOL     OW62495   3.799   5.935   4.700  0.0845 -0.1110  0.2021
19868SOL    HW162496   3.733   5.996   4.669  0.4832  0.2424  0.0290
19868SOL    HW262497   3.827   5.888   4.622  1.0488  0.7410  0.0041
19869SOL     OW62498   7.860   4.896   7.052 -0.3204  0.1873  0.0201
19869SOL    HW162499   7.831   4.933   6.969 -2.2879  1.5040  1.2308
19869SOL    HW262500   7.821   4.809   7.055 -0.0192  0.0294 -0.5331
19870SOL     OW62501   4.969   2.931   6.597 -0.0562  0.0664 -0.0669
19870SOL    HW162502   5.020   2.876   6.539 -1.0851 -0.4970 -0.4546
19870SOL    HW262503   4.988   3.021   6.569 -0.1984 -0.1874 -0.9762
19871SOL     OW62504   6.910   6.163   6.112  0.1716  0.0847  0.1314
19871SOL    HW162505   6.888   6.223   6.183  0.4332  1.0359 -0.5767
19871SOL    HW262506   6.989   6.200   6.073  0.6786 -1.0483  0.0421
19872SOL     OW62507   1.122   8.381   4.520  0.1368  0.3635 -0.1558
19872SOL    HW162508   1.109   8.455   4.460  1.1512  1.2554  0.6822
19872SOL    HW262509   1.216   8.363   4.515  0.4430  1.1424  1.8962
19873SOL     OW62510   7.669   4.914   3.520  0.0469 -0.1854 -0.2399
19873SOL    HW162511   7.674   4.837   3.577  0.2598  0.2256  0.3038
19873SOL    HW262512   7.594   4.896   3.463 -0.4491 -0.4093  0.4633
19874SOL     OW62513   2.710   7.821   3.171  0.0769  0.1329  0.3643
19874SOL    HW162514   2.713   7.911   3.205 -1.1596 -0.0776  1.0829
19874SOL    HW262515   2.681   7.831   3.080  0.4557  0.4894  0.2795
19875SOL     OW62516   4.638   7.975   9.457  0.1599 -0.2754  0.0970
19875SOL    HW162517   4.649   8.047   9.395 -1.8341 -0.1970 -0.2309
19875SOL    HW262518   4.726   7.938   9.466  0.8265  0.8144 -1.4013
19876SOL     OW62519   4.415   2.580   2.400  0.2414  0.6867  0.4328
19876SOL    HW162520   4.351   2.651   2.392 -1.2127 -0.5352  0.6274
19876SOL    HW262521   4.390   2.534   2.480  0.2169 -0.8745 -0.4218
19877SOL     OW62522   0.132   1.741   3.415 -0.6306 -0.4721  0.1273
19877SOL    HW162523   0.090   1.752   3.330 -3.9766 -1.9440  1.4220
19877SOL    HW262524   0.096   1.812   3.468  1.2137  0.2677  0.4506
19878SOL     OW62525   6.625   6.761   6.260 -0.0273 -0.2642 -0.6029
19878SOL    HW162526   6.673   6.738   6.339  0.8127 -2.2397 -1.5914
19878SOL    HW262527   6.691   6.801   6.203 -1.0097  2.7968  0.2719
19879SOL     OW62528   1.218   2.297   5.794 -0.4116  0.2255  0.0289
19879SOL    HW162529   1.218   2.386   5.759 -0.0844  0.2579  0.1096
19879SOL    HW262530   1.189   2.242   5.722 -0.4783  0.3811 -0.0630
19880SOL     OW62531   6.314   6.483   9.487 -0.1591  0.2091 -0.2415
19880SOL    HW162532   6.377   6.525   9.545 -1.3425  1.0501  0.4908
19880SOL    HW262533   6.290   6.552   9.424 -0.4842 -0.0417 -0.3937
19881SOL     OW62534   3.677   0.272   2.327  0.1209 -0.0576 -0.1245
19881SOL    HW162535   3.771   0.278   2.310 -0.1937 -0.0027 -2.0086
19881SOL    HW262536   3.641   0.353   2.291 -0.8024 -0.6712 -0.6042
19882SOL     OW62537   9.380   0.165   5.505 -0.0201  0.3912  0.1620
19882SOL    HW162538   9.341   0.135   5.423  2.1598  1.7216 -1.4906
19882SOL    HW262539   9.329   0.242   5.529 -0.3382  0.3291 -0.2982
19883SOL     OW62540   0.881   0.672   6.496 -0.6089  0.7696 -0.9863
19883SOL    HW162541   0.950   0.701   6.556 -0.1058  1.8022 -2.0249
19883SOL    HW262542   0.927   0.654   6.414 -0.8562 -3.1817 -0.4450
19884SOL     OW62543   6.258   1.166   1.871 -0.2107  0.2248 -0.2175
19884SOL    HW162544   6.288   1.165   1.780 -1.2241 -0.4611 -0.5664
19884SOL    HW262545   6.197   1.092   1.877 -2.0412  1.6911  0.3713
19885SOL     OW62546   6.625   0.950   8.819  0.1573 -0.1940  0.1730
19885SOL    HW162547   6.693   0.999   8.865  0.2513 -0.8167  0.7036
19885SOL    HW262548   6.593   1.010   8.752 -0.4653  0.9968  1.4812
19886SOL     OW62549   2.260   1.107   0.609  0.3446  0.1610  0.3951
19886SOL    HW162550   2.201   1.031   0.603 -0.3837  0.8142 -1.6480
19886SOL    HW262551   2.283   1.112   0.702  1.5316 -3.3505  0.4465
19887SOL     OW62552   5.797   2.136   9.563 -0.1375  0.3199 -0.0393
19887SOL    HW162553   5.806   2.044   9.540 -0.8997  0.7373 -2.2838
19887SOL    HW262554   5.871   2.179   9.519 -0.2369  0.8894  0.3378
19888SOL     OW62555   5.791   9.240   0.459 -0.3293 -0.1294 -0.2655
19888SOL    HW162556   5.814   9.331   0.476 -0.2830 -0.2013  0.0648
19888SOL    HW262557   5.818   9.193   0.538  0.6981 -0.6136 -0.8761
19889SOL     OW62558   8.002   8.569   5.845  0.2632  0.3514  0.3294
19889SOL    HW162559   8.080   8.589   5.792  1.4405  1.1074  2.2502
19889SOL    HW262560   7.976   8.482   5.816  0.8017  0.7455 -1.5158
19890SOL     OW62561   8.214   9.247   2.753 -0.6378  0.0590  0.3984
19890SOL    HW162562   8.124   9.219   2.766 -0.8930  0.0715 -1.1308
19890SOL    HW262563   8.234   9.224   2.662  0.3846  1.4513  0.2280
19891SOL     OW62564   4.752   4.010   0.409 -0.5756 -0.3579 -0.1469
19891SOL    HW162565   4.742   4.087   0.352 -1.4056 -0.3430  0.0042
19891SOL    HW262566   4.729   3.936   0.354  0.4472 -0.5254 -0.3557
19892SOL     OW62567   8.652   5.069   5.912 -0.1802 -0.2156 -0.1709
19892SOL    HW162568   8.739   5.094   5.880 -0.2131 -1.7225 -1.5269
19892SOL    HW262569   8.628   5.140   5.972  2.2913 -0.1179  0.8407
19893SOL     OW62570   6.517   3.003   6.125  0.0378  0.0942 -0.7581
19893SOL    HW162571   6.562   2.952   6.057  1.6442 -0.4101  0.6079
19893SOL    HW262572   6.424   2.993   6.104  0.4088 -1.4816 -1.8758
19894SOL     OW62573   7.551   6.584   6.854 -0.0967 -0.3575 -0.2600
19894SOL    HW162574   7.517   6.539   6.931  0.9508  0.1537  0.5349
19894SOL    HW262575   7.605   6.655   6.889 -1.4779  1.3973 -1.4526
19895SOL     OW62576   0.364   0.617   3.330 -0.5038  0.1153 -0.3207
19895SOL    HW162577   0.434   0.584   3.273  0.1545  2.2325 -0.8327
19895SOL    HW262578   0.381   0.576   3.415  1.2294  0.3965 -0.4925
19896SOL     OW62579   7.642   6.237   7.289  0.0000  0.1912 -0.2060
19896SOL    HW162580   7.735   6.252   7.278 -0.0781  0.3455 -0.6532
19896SOL    HW262581   7.616   6.187   7.212  0.0092 -1.1660  0.6335
19897SOL     OW62582   4.696   6.195   5.756 -0.8874 -0.4268  0.4067
19897SOL    HW162583   4.787   6.221   5.765 -0.9958 -0.2857  1.1977
19897SOL    HW262584   4.699   6.101   5.739 -0.5821 -0.3275 -0.1183
19898SOL     OW62585   1.366   2.495   1.002 -0.1952  0.6600 -0.1541
19898SOL    HW162586   1.396   2.508   0.912  0.4617  1.7057  0.1981
19898SOL    HW262587   1.306   2.568   1.017  0.7494  1.2854  0.6869
19899SOL     OW62588   2.428   7.076   1.561  0.3400  0.7557  0.1261
19899SOL    HW162589   2.422   7.143   1.494 -0.3076  0.8746  0.2887
19899SOL    HW262590   2.337   7.060   1.587  0.4364 -0.4893 -0.2132
19900SOL     OW62591   6.345   5.429   2.467 -0.4959 -0.1890  0.0603
19900SOL    HW162592   6.379   5.470   2.546 -1.5057  0.5920  0.1135
19900SOL    HW262593   6.259   5.394   2.493 -1.1735  0.7343 -0.8618
19901SOL     OW62594   4.462   7.132   2.539 -0.0199  0.4232 -0.1981
19901SOL    HW162595   4.485   7.090   2.456 -1.5529 -0.4807 -0.2072
19901SOL    HW262596   4.543   7.133   2.589  0.1220 -2.6808 -0.1739
19902SOL     OW62597   6.017   6.023   5.204 -0.1465 -0.2227  0.0421
19902SOL    HW162598   6.002   6.115   5.181  2.9754  0.2246 -0.7698
19902SOL    HW262599   6.054   6.026   5.292  0.7107 -0.5944 -0.2945
19903SOL     OW62600   8.103   1.225   6.266  0.0391 -0.4014 -0.6527
19903SOL    HW162601   8.195   1.200   6.258  0.7489  2.2163 -2.1959
19903SOL    HW262602   8.058   1.174   6.199 -0.2469 -3.6227  1.7564
19904SOL     OW62603   8.566   1.182   8.233  0.1441  0.8067  0.3016
19904SOL    HW162604   8.653   1.208   8.262  0.1662  1.3594 -0.2370
19904SOL    HW262605   8.535   1.256   8.181 -0.1851  0.1497 -0.4687
19905SOL     OW62606   7.920   5.180   7.028  0.2913  0.0977 -0.3195
19905SOL    HW162607   8.013   5.155   7.039  0.1600 -0.3792 -0.2383
19905SOL    HW262608   7.893   5.137   6.947 -0.4785 -1.7188  0.8280
19906SOL     OW62609   4.799   2.852   3.782  0.1971 -0.3008  0.2435
19906SOL    HW162610   4.785   2.925   3.843 -0.5261 -0.7242  0.6074
19906SOL    HW262611   4.846   2.787   3.834  0.8792 -0.0758 -0.0937
19907SOL     OW62612   1.714   4.741   7.689  0.3704 -0.1176  0.4535
19907SOL    HW162613   1.620   4.748   7.701  0.3352  0.2660  0.0041
19907SOL    HW262614   1.729   4.647   7.672 -0.0953 -0.0061 -0.7035
19908SOL     OW62615   0.967   1.479   5.625 -0.9831  0.2573 -0.8431
19908SOL    HW162616   0.876   1.501   5.647 -0.5664  0.1746  1.1251
19908SOL    HW262617   0.977   1.388   5.653 -0.1696  0.4068 -0.6132
19909SOL     OW62618   7.560   6.140   7.768  0.3896  0.2506 -0.3340
19909SOL    HW162619   7.527   6.110   7.684 -0.4216  1.9591 -0.6672
19909SOL    HW262620   7.484   6.139   7.826  0.8011 -0.2952  0.2196
19910SOL     OW62621   3.963   5.960   8.911 -0.4545  0.3831 -0.8649
19910SOL    HW162622   3.997   5.890   8.967 -2.2025 -1.9998 -2.5459
19910SOL    HW262623   4.039   5.989   8.860 -0.1566 -2.6148 -2.3466
19911SOL     OW62624   1.173   1.374   7.427 -0.0279 -0.0924 -0.4870
19911SOL    HW162625   1.219   1.302   7.385  1.0316  0.1994  0.1362
19911SOL    HW262626   1.106   1.401   7.364  0.0058 -1.1760 -0.9908
19912SOL     OW62627   3.901   5.615   5.096  0.1110 -0.3430 -0.0264
19912SOL    HW162628   3.858   5.649   5.174 -0.9097 -4.1089  1.2619
19912SOL    HW262629   3.833   5.612   5.030  1.1303  3.5175 -1.5686
19913SOL     OW62630   6.167   6.548   7.960 -1.2311  0.1848 -0.0592
19913SOL    HW162631   6.155   6.458   7.930  0.0651  0.4909 -1.6451
19913SOL    HW262632   6.081   6.573   7.995 -1.7228 -1.5182  0.0373
19914SOL     OW62633   3.602   6.369   2.518 -0.1613  0.5783 -0.0394
19914SOL    HW162634   3.650   6.293   2.487 -2.6473 -0.3516 -2.0174
19914SOL    HW262635   3.637   6.442   2.466  1.8832  0.7959  1.5154
19915SOL     OW62636   0.439   7.883   5.781  0.1243  0.1778 -0.6812
19915SOL    HW162637   0.477   7.798   5.758  0.9144 -0.5816  2.8462
19915SOL    HW262638   0.507   7.947   5.759  0.3338 -0.3058 -1.4640
19916SOL     OW62639   6.138   0.825   7.554  0.3708 -0.2920  0.4538
19916SOL    HW162640   6.199   0.790   7.618 -0.0492 -1.9914 -0.0358
19916SOL    HW262641   6.051   0.815   7.594  0.3084  1.1975  0.7410
19917SOL     OW62642   6.447   4.192   5.312 -0.4769 -0.4117 -0.5068
19917SOL    HW162643   6.508   4.263   5.329 -0.9688 -0.6023  2.5586
19917SOL    HW262644   6.502   4.114   5.303 -0.1445 -0.3323  0.7068
19918SOL     OW62645   2.781   2.622   2.371 -0.1804 -0.0761  0.3349
19918SOL    HW162646   2.771   2.703   2.420 -0.6233  0.2670 -0.3119
19918SOL    HW262647   2.869   2.627   2.334 -0.7431  0.8324 -0.9569
19919SOL     OW62648   0.516   5.032   7.337 -0.2162 -0.0486 -0.3489
19919SOL    HW162649   0.443   4.986   7.296 -0.8894  0.0421  0.6959
19919SOL    HW262650   0.531   5.109   7.282 -1.6371  0.5060  0.0085
19920SOL     OW62651   4.191   8.807   7.149  0.2441  0.5363 -0.2225
19920SOL    HW162652   4.185   8.898   7.119  0.3618  1.6090  2.6689
19920SOL    HW262653   4.104   8.787   7.182  0.2833 -0.3377 -0.6395
19921SOL     OW62654   6.134   8.442   9.059 -0.5772  0.5194 -0.3445
19921SOL    HW162655   6.070   8.513   9.053 -1.9629 -0.7768 -1.5438
19921SOL    HW262656   6.106   8.378   8.994  1.1491 -0.7486  0.0794
19922SOL     OW62657   3.684   4.659   2.196 -0.6533  0.3871  0.6872
19922SOL    HW162658   3.750   4.728   2.192  0.2517 -0.3706  1.9577
19922SOL    HW262659   3.652   4.652   2.106  2.1616 -0.3242 -0.3821
19923SOL     OW62660   3.493   0.209   7.426 -0.5957 -0.0595 -0.0935
19923SOL    HW162661   3.451   0.260   7.496  0.1105  1.3420 -0.6506
19923SOL    HW262662   3.569   0.170   7.469  1.2502  2.7435 -0.4987
19924SOL     OW62663   6.468   6.331   4.066 -0.0373  0.0656 -1.0815
19924SOL    HW162664   6.441   6.414   4.025  0.7632  0.7594 -0.2525
19924SOL    HW262665   6.564   6.332   4.061  0.0869  0.0797  0.5606
19925SOL     OW62666   6.447   6.444   7.717  0.5690  0.6046  0.1059
19925SOL    HW162667   6.428   6.537   7.717  1.6316  0.8454  0.9837
19925SOL    HW262668   6.446   6.419   7.624  3.7394  2.2741 -0.5390
19926SOL     OW62669   9.224   7.148   2.821 -0.0491  0.4374 -0.1580
19926SOL    HW162670   9.272   7.167   2.741  0.6670  0.3134  0.2359
19926SOL    HW262671   9.150   7.210   2.820 -0.1072  0.3669 -0.9529
19927SOL     OW62672   8.430   1.321   6.562 -0.1997  0.2159  0.5209
19927SOL    HW162673   8.417   1.372   6.482 -2.4120  0.1116  0.7378
19927SOL    HW262674   8.504   1.264   6.543 -0.8164  0.0149 -1.5641
19928SOL     OW62675   8.982   2.919   9.275  0.4744  0.5302  0.3596
19928SOL    HW162676   9.022   2.917   9.362  0.3567 -1.6270  0.3959
19928SOL    HW262677   8.955   3.011   9.264 -0.5408  0.6530  3.0687
19929SOL     OW62678   3.396   0.070   4.733 -0.7461  0.4774 -0.0096
19929SOL    HW162679   3.368   0.160   4.716  0.3802  0.7667 -0.4299
19929SOL    HW262680   3.369   0.053   4.823  0.3784  1.7899  0.6182
19930SOL     OW62681   6.830   4.492   4.200 -0.0675 -0.2353  0.4405
19930SOL    HW162682   6.830   4.415   4.256  0.6648 -1.7420 -1.5026
19930SOL    HW262683   6.768   4.552   4.241 -1.8853 -2.4952  1.1815
19931SOL     OW62684   7.828   7.839   2.337  0.2711  0.5089  0.7149
19931SOL    HW162685   7.798   7.834   2.246 -2.2180 -1.9914  1.5194
19931SOL    HW262686   7.759   7.887   2.382  0.0309 -0.7350  1.7227
19932SOL     OW62687   1.183   5.968   3.247 -0.0299  0.0942 -0.5110
19932SOL    HW162688   1.233   5.888   3.229 -0.2043 -0.6616  1.9858
19932SOL    HW262689   1.102   5.956   3.197 -0.9682 -2.3718  1.3497
19933SOL     OW62690   8.227   6.351   5.285 -0.0824  0.3958  0.0289
19933SOL    HW162691   8.256   6.442   5.295 -0.9539  0.8859 -1.5805
19933SOL    HW262692   8.283   6.315   5.216 -0.0915 -0.1264  0.2887
19934SOL     OW62693   3.011   7.234   6.580 -0.2707 -0.3040 -0.1582
19934SOL    HW162694   3.020   7.305   6.516  0.8368 -1.0371 -0.8525
19934SOL    HW262695   3.074   7.256   6.649 -2.1950  1.0464  1.3050
19935SOL     OW62696   6.820   6.310   8.139 -0.3784  0.0238 -0.2805
19935SOL    HW162697   6.863   6.390   8.109 -1.4945  0.2804 -1.2669
19935SOL    HW262698   6.865   6.240   8.093  0.1704  0.1394  0.0790
19936SOL     OW62699   2.582   8.879   7.345 -0.0493 -0.2850  0.5338
19936SOL    HW162700   2.627   8.865   7.428  2.0278  1.3680 -0.2362
19936SOL    HW262701   2.633   8.946   7.300 -1.8649 -0.1535 -1.5377
19937SOL     OW62702   8.352   7.935   2.433 -0.5354  0.3775  0.3369
19937SOL    HW162703   8.257   7.923   2.426 -0.4704 -0.1796  0.3962
19937SOL    HW262704   8.374   7.992   2.359 -0.9158  0.5320  0.3378
19938SOL     OW62705   4.426   6.990   2.958 -0.1713  0.2621 -0.3837
19938SOL    HW162706   4.416   7.069   3.012 -0.4231 -0.2336  0.3103
19938SOL    HW262707   4.364   7.002   2.887 -1.0080  0.2103  0.3141
19939SOL     OW62708   1.500   8.075   9.587  0.5818 -0.3420  0.3730
19939SOL    HW162709   1.458   8.082   9.502  0.8940  4.1067  0.3582
19939SOL    HW262710   1.439   8.023   9.640 -2.5079  1.6157 -1.0144
19940SOL     OW62711   3.252   0.390   8.731 -0.3261 -0.5706 -0.1214
19940SOL    HW162712   3.265   0.295   8.723 -0.1504 -0.5692  0.1295
19940SOL    HW262713   3.263   0.424   8.643  0.0368 -0.7350 -0.1413
19941SOL     OW62714   1.809   7.185   5.654 -0.0774 -0.5694  0.5449
19941SOL    HW162715   1.780   7.260   5.706  0.0428  0.4804 -0.8262
19941SOL    HW262716   1.897   7.209   5.626 -1.0739  0.1654 -2.3068
19942SOL     OW62717   1.361   5.575   3.783 -0.0178  0.3129  0.1408
19942SOL    HW162718   1.367   5.480   3.792 -0.6566  0.1464 -1.1024
19942SOL    HW262719   1.423   5.609   3.848  0.3512 -0.9506  0.4690
19943SOL     OW62720   6.329   5.581   7.987 -0.3212 -0.2854  0.2479
19943SOL    HW162721   6.293   5.608   8.071  1.1034  0.2647  0.7175
19943SOL    HW262722   6.369   5.660   7.951  0.0120 -0.7555 -0.4451
19944SOL     OW62723   1.447   1.030   4.990  0.1624 -0.4244 -0.2974
19944SOL    HW162724   1.388   1.092   4.947  0.3999 -2.3981 -3.8528
19944SOL    HW262725   1.393   0.991   5.059 -1.5914  0.2143 -1.2365
19945SOL     OW62726   7.231   3.724   0.354 -0.8192 -0.0057  0.6182
19945SOL    HW162727   7.241   3.744   0.447 -0.7825  1.0811  0.3848
19945SOL    HW262728   7.236   3.628   0.350 -1.3392 -0.1035  1.7953
19946SOL     OW62729   5.081   9.164   6.563 -0.4341  0.4714  0.0246
19946SOL    HW162730   5.123   9.244   6.531 -0.4714  0.0160 -1.2261
19946SOL    HW262731   5.064   9.181   6.656  2.0073  0.8808  0.4690
19947SOL     OW62732   2.893   8.362   0.180  0.6922  0.0562  0.7349
19947SOL    HW162733   2.968   8.306   0.201  0.2749 -0.5989  0.5070
19947SOL    HW262734   2.818   8.315   0.216  0.5189  1.3927  2.2459
19948SOL     OW62735   1.669   6.747   1.865  0.2750 -0.7003  0.0920
19948SOL    HW162736   1.636   6.661   1.893 -0.8326  0.0254  1.0750
19948SOL    HW262737   1.652   6.805   1.939  1.2709  0.3203 -0.4512
19949SOL     OW62738   7.735   0.718   9.499 -0.2324 -0.0629 -0.1143
19949SOL    HW162739   7.770   0.629   9.495 -0.6962 -0.2039 -1.4644
19949SOL    HW262740   7.807   0.771   9.534  0.0289 -0.9628  0.7472
19950SOL     OW62741   4.427   9.612   8.380 -0.4595  0.4568 -0.0396
19950SOL    HW162742   4.455   9.659   8.302  1.1672  1.0637  0.8619
19950SOL    HW262743   4.505   9.565   8.410 -1.9106 -2.6606 -0.7237
19951SOL     OW62744   9.011   0.846   2.413 -0.2842  0.2835  0.3046
19951SOL    HW162745   9.060   0.816   2.336 -0.9001  1.0416 -0.4044
19951SOL    HW262746   9.031   0.782   2.481  0.4862 -0.2535 -0.4107
19952SOL     OW62747   3.236   6.725   6.936  0.1510  0.0718  0.0405
19952SOL    HW162748   3.162   6.785   6.934  0.4819  0.5657  1.3614
19952SOL    HW262749   3.248   6.697   6.845  0.0008  2.0248 -0.6173
19953SOL     OW62750   6.663   9.603   0.926  0.2196  0.3379  0.0221
19953SOL    HW162751   6.646   9.659   0.849  1.9797  2.0429  0.7872
19953SOL    HW262752   6.750   9.567   0.911 -0.0927 -0.6444  0.4879
19954SOL     OW62753   7.209   0.564   3.814  0.6208  0.3120 -0.2218
19954SOL    HW162754   7.176   0.515   3.889  1.3548 -0.2217 -0.2372
19954SOL    HW262755   7.296   0.528   3.798  0.8139  1.0051 -0.7999
19955SOL     OW62756   0.065   5.997   1.094  0.1536  0.0042  0.2541
19955SOL    HW162757  -0.017   6.007   1.046 -0.6211 -2.2104  0.9917
19955SOL    HW262758   0.121   5.945   1.036  1.3824  2.1078 -0.5557
19956SOL     OW62759   9.169   3.581   5.669 -0.1229  0.3911 -0.4453
19956SOL    HW162760   9.243   3.523   5.685  0.9065  2.0136  1.1285
19956SOL    HW262761   9.094   3.535   5.706  0.8239  0.3988  1.6492
19957SOL     OW62762   9.605   8.062   4.283  0.2810 -0.0216  0.7057
19957SOL    HW162763   9.679   8.105   4.241 -0.9800  1.6787  0.1005
19957SOL    HW262764   9.594   7.980   4.235 -0.2022  1.2001 -1.3760
19958SOL     OW62765   1.245   0.579   6.605  0.2123 -0.0199  0.0863
19958SOL    HW162766   1.258   0.507   6.667  1.1473  1.2964  1.4883
19958SOL    HW262767   1.174   0.631   6.643  1.1490  1.0959  0.3578
19959SOL     OW62768   0.206   8.519   6.928  0.2174 -0.0241  0.7356
19959SOL    HW162769   0.226   8.591   6.988  0.1281 -1.3229  2.4002
19959SOL    HW262770   0.111   8.513   6.929  0.0307  1.4135 -1.4181
19960SOL     OW62771   2.732   7.134   6.024 -0.7284  0.4558  0.0832
19960SOL    HW162772   2.640   7.133   5.996 -0.9026  0.4082  0.6390
19960SOL    HW262773   2.728   7.126   6.119 -0.1345  0.1736  0.0895
19961SOL     OW62774   2.502   6.009   0.103 -0.1033 -0.6176 -0.3834
19961SOL    HW162775   2.526   5.932   0.052 -0.8395 -0.9285 -0.2750
19961SOL    HW262776   2.584   6.038   0.143 -0.1480 -2.6395  1.3279
19962SOL     OW62777   3.072   4.354   6.933  0.0837 -0.5890 -0.1258
19962SOL    HW162778   3.055   4.275   6.984 -0.1241  0.6096  1.8037
19962SOL    HW262779   2.988   4.374   6.891 -0.0012 -1.1088 -0.2060
19963SOL     OW62780   2.650   2.552   7.220 -0.3592  0.0595  0.4346
19963SOL    HW162781   2.700   2.508   7.152  0.1268  0.7643  0.3262
19963SOL    HW262782   2.679   2.643   7.216 -0.8474  0.2519  1.1092
19964SOL     OW62783   8.457   3.730   2.743  0.2410  0.2551  0.2694
19964SOL    HW162784   8.504   3.810   2.719 -1.9329  1.6461  0.4417
19964SOL    HW262785   8.390   3.720   2.676 -1.0984 -0.0086  1.6060
19965SOL     OW62786   2.980   1.532   9.358 -0.3526 -0.1226 -0.3134
19965SOL    HW162787   2.929   1.580   9.423  1.5101  1.9558 -0.2948
19965SOL    HW262788   2.952   1.568   9.274  0.6901  0.6886 -0.3318
19966SOL     OW62789   8.979   5.350   8.026 -0.1559  0.1788  0.3238
19966SOL    HW162790   9.057   5.334   7.974  0.4085 -0.5126  1.3377
19966SOL    HW262791   8.996   5.432   8.071 -1.1205  1.3844 -1.3790
19967SOL     OW62792   5.971   1.700   4.646 -0.0226  0.2056 -0.4042
19967SOL    HW162793   6.018   1.782   4.659  0.2049  0.2579 -1.4715
19967SOL    HW262794   6.025   1.634   4.690 -0.7298  0.7397  1.3609
19968SOL     OW62795   5.207   1.652   1.976 -0.7215 -0.2193 -0.0952
19968SOL    HW162796   5.143   1.692   1.916 -2.0751 -1.4166  0.5164
19968SOL    HW262797   5.160   1.580   2.018  1.1863 -1.4800  0.0020
19969SOL     OW62798   0.415   2.621   3.461 -0.0611 -0.2782 -0.0189
19969SOL    HW162799   0.346   2.650   3.520  0.7409 -0.7388  1.2115
19969SOL    HW262800   0.482   2.690   3.467 -0.9981  0.9136 -2.3573
19970SOL     OW62801   4.684   2.897   6.599 -0.8130  0.5057 -0.0007
19970SOL    HW162802   4.776   2.907   6.576 -0.0764 -1.0216  2.0541
19970SOL    HW262803   4.644   2.859   6.521  0.3677  0.7443 -0.7533
19971SOL     OW62804   5.209   8.144   6.299 -0.4537  0.0518 -0.3981
19971SOL    HW162805   5.302   8.143   6.323 -0.3507 -0.9047 -0.8159
19971SOL    HW262806   5.173   8.064   6.338 -1.6760  1.5792  1.8695
19972SOL     OW62807   9.464   0.519   4.045  0.1292  0.0170  0.5761
19972SOL    HW162808   9.441   0.589   3.983 -1.1213  1.3491  2.4501
19972SOL    HW262809   9.408   0.445   4.020  0.9458 -0.1296 -0.9699
19973SOL     OW62810   5.996   0.368   5.440  0.1596  0.4275  0.3028
19973SOL    HW162811   6.013   0.359   5.534  1.7973  0.6693  0.0432
19973SOL    HW262812   6.074   0.333   5.398 -0.3212  0.8549 -0.9776
19974SOL     OW62813   4.898   0.021   7.980 -0.1582  0.3170 -0.3059
19974SOL    HW162814   4.939  -0.019   8.057 -0.3467  1.2518  0.2965
19974SOL    HW262815   4.839  -0.047   7.946  1.5010 -0.8909 -0.9212
19975SOL     OW62816   8.822   2.992   3.422 -0.0747 -0.2659 -0.3663
19975SOL    HW162817   8.784   3.041   3.349  1.2235 -1.4939 -1.9706
19975SOL    HW262818   8.751   2.938   3.455 -0.7537  0.5136 -0.5373
19976SOL     OW62819   3.657   1.058   4.344 -0.1300  0.2512  0.7915
19976SOL    HW162820   3.701   1.103   4.417 -1.4091  0.7028  1.3190
19976SOL    HW262821   3.639   1.127   4.281 -0.2377  0.0956  0.6533
19977SOL     OW62822   0.317   1.244   8.671 -0.2236 -0.2440  0.1299
19977SOL    HW162823   0.231   1.239   8.629 -0.2319 -1.0532  0.2379
19977SOL    HW262824   0.354   1.157   8.661  1.9350  0.8715 -2.6996
19978SOL     OW62825   1.550   6.940   5.333 -0.5816 -0.2855 -0.7415
19978SOL    HW162826   1.568   6.878   5.403 -1.1370 -1.3175 -1.4808
19978SOL    HW262827   1.509   6.887   5.264  0.7046  0.5049 -2.1986
19979SOL     OW62828   3.478   2.978   4.874  0.0307  0.6777  0.0292
19979SOL    HW162829   3.527   2.937   4.945  0.4210 -0.7874 -1.0513
19979SOL    HW262830   3.545   3.005   4.812 -0.4156  0.1161 -0.7066
19980SOL     OW62831   1.565   1.493   3.092  0.1683  0.2737 -0.3778
19980SOL    HW162832   1.617   1.552   3.038 -0.3629  0.9751 -0.1378
19980SOL    HW262833   1.545   1.544   3.171 -0.1786 -0.2781 -0.0988
19981SOL     OW62834   4.871   3.861   1.886  0.1271  0.5207 -0.0047
19981SOL    HW162835   4.952   3.834   1.929  0.6329  2.5078  0.3929
19981SOL    HW262836   4.801   3.825   1.941  0.7207 -0.9450 -0.1748
19982SOL     OW62837   7.195   2.367   7.715 -0.0803  0.4441  0.6414
19982SOL    HW162838   7.284   2.373   7.749  0.1191  1.0154  0.0329
19982SOL    HW262839   7.146   2.434   7.762  0.0717  0.8780  0.1827
19983SOL     OW62840   2.271   9.401   2.957  0.2923  0.1476  0.0697
19983SOL    HW162841   2.336   9.436   2.896  0.6957 -1.8264 -0.7055
19983SOL    HW262842   2.271   9.463   3.030  0.4915  2.0608 -1.4631
19984SOL     OW62843   5.394   1.583   8.738  0.2099  0.5103 -0.3584
19984SOL    HW162844   5.461   1.523   8.707  0.2861 -0.4933  1.6138
19984SOL    HW262845   5.311   1.541   8.715  0.2679 -0.0266  0.3717
19985SOL     OW62846   4.563   3.328   2.005 -0.0722 -0.2568 -0.3058
19985SOL    HW162847   4.583   3.419   1.984  0.2729 -0.4284 -0.7295
19985SOL    HW262848   4.616   3.276   1.944 -1.8207 -0.7192 -1.5110
19986SOL     OW62849   6.402   3.356   1.594 -0.0214  0.6254 -0.4383
19986SOL    HW162850   6.360   3.299   1.531  1.1102 -0.5324 -0.1871
19986SOL    HW262851   6.332   3.413   1.626 -1.1801 -0.6281 -0.6798
19987SOL     OW62852   7.228   0.589   9.581  0.4614 -0.1241  0.8381
19987SOL    HW162853   7.167   0.652   9.542  0.3057 -0.4107  0.6116
19987SOL    HW262854   7.301   0.642   9.613  0.4257  0.1519  0.4691
19988SOL     OW62855   5.586   3.861   0.775  0.6783  0.2339  0.2416
19988SOL    HW162856   5.622   3.915   0.705 -0.0455 -0.1759 -0.4736
19988SOL    HW262857   5.498   3.839   0.745  1.2968 -2.2016 -0.0227
19989SOL     OW62858   1.979   7.098   0.908  0.3728  0.4067  0.1676
19989SOL    HW162859   1.993   7.182   0.863 -0.4110 -0.0177 -0.9237
19989SOL    HW262860   1.893   7.106   0.947  0.5586  0.3319  0.5910
19990SOL     OW62861   2.324   2.536   8.705 -0.2414 -0.4076  0.2173
19990SOL    HW162862   2.310   2.447   8.736  2.7763 -1.2674 -0.5843
19990SOL    HW262863   2.251   2.553   8.646 -1.4436 -1.9004  1.2158
19991SOL     OW62864   5.175   1.392   2.104  0.0384 -0.0735 -0.7617
19991SOL    HW162865   5.089   1.372   2.068 -0.0597  0.0447 -0.5940
19991SOL    HW262866   5.237   1.353   2.042 -0.1115  0.6548 -1.3905
19992SOL     OW62867   5.447   4.752   8.306 -0.2510 -0.4063  0.6778
19992SOL    HW162868   5.534   4.746   8.267 -0.1933 -0.8076  0.8661
19992SOL    HW262869   5.391   4.699   8.249 -0.5440  0.5090  0.0893
19993SOL     OW62870   5.761   5.043   5.774  0.0111  0.2694  0.7273
19993SOL    HW162871   5.856   5.032   5.770 -0.0170 -0.9407  2.4183
19993SOL    HW262872   5.739   5.027   5.866 -1.8383  0.5060  0.3613
19994SOL     OW62873   6.136   2.669   7.415  0.3205 -0.0451  0.1913
19994SOL    HW162874   6.228   2.687   7.397  0.2887  1.0943  1.0393
19994SOL    HW262875   6.089   2.746   7.381 -0.5671 -1.4349 -1.9816
19995SOL     OW62876   9.163   2.126   3.208 -0.0588 -0.2924 -0.1781
19995SOL    HW162877   9.087   2.127   3.265  0.4240  1.3986  0.5085
19995SOL    HW262878   9.236   2.102   3.264  0.2547  0.3452 -0.2981
19996SOL     OW62879   1.719   2.759   1.256  0.4694 -0.6993  0.4399
19996SOL    HW162880   1.733   2.666   1.274 -1.2609 -0.9825  0.4757
19996SOL    HW262881   1.691   2.762   1.165 -1.0837 -0.4304  0.8914
19997SOL     OW62882   5.646   0.177   0.126 -0.8550  0.0416 -0.3892
19997SOL    HW162883   5.612   0.111   0.185  0.1031  0.1180  0.2842
19997SOL    HW262884   5.647   0.258   0.178  0.6041 -0.0254 -0.2450
19998SOL     OW62885   1.138   5.768   5.056 -0.4830  0.3510 -0.1361
19998SOL    HW162886   1.103   5.689   5.016 -2.1510  1.6776 -1.4041
19998SOL    HW262887   1.233   5.761   5.044 -0.7814 -0.1806 -2.7548
19999SOL     OW62888   5.339   4.053   7.071  0.2819 -0.0119 -0.3527
19999SOL    HW162889   5.350   4.111   6.996  0.0773 -0.5773 -0.8300
19999SOL    HW262890   5.309   4.110   7.142  0.7822  0.5818 -0.6041
20000SOL     OW62891   2.971   2.641   4.619 -0.5359 -0.2859  0.3682
20000SOL    HW162892   3.065   2.651   4.631 -0.7799  1.3942  1.0465
20000SOL    HW262893   2.947   2.567   4.675  0.2129 -0.0356  1.0287
20001SOL     OW62894   9.271   6.595   3.696  0.1162 -0.3854 -0.4138
20001SOL    HW162895   9.266   6.588   3.792 -1.7579  1.3997 -0.2954
20001SOL    HW262896   9.343   6.656   3.680  0.7495 -1.0606 -0.1838
20002SOL     OW62897   4.282   1.972   0.063  0.3688 -0.0154 -0.9145
20002SOL    HW162898   4.321   1.988  -0.024 -1.8481 -0.7970 -2.1109
20002SOL    HW262899   4.264   1.879   0.065  1.2539 -0.1891  0.8235
20003SOL     OW62900   8.993   0.795   9.244 -0.7158  0.3710 -0.2765
20003SOL    HW162901   9.022   0.713   9.205  1.1178  0.8831 -0.0703
20003SOL    HW262902   9.071   0.850   9.247 -1.7368  1.8758  0.2487
20004SOL     OW62903   9.554   6.487   5.305  0.0476 -0.1502 -0.0398
20004SOL    HW162904   9.619   6.435   5.258  0.1616 -0.8692  0.8832
20004SOL    HW262905   9.474   6.434   5.303 -0.2958  0.3620 -0.4555
20005SOL     OW62906   6.664   0.907   2.055  0.0676  0.1625 -0.2981
20005SOL    HW162907   6.714   0.825   2.050 -0.4983 -0.1526 -0.9859
20005SOL    HW262908   6.577   0.880   2.085 -0.1178  0.5143 -0.5159
20006SOL     OW62909   3.940   4.241   0.090 -0.0949  0.3124  0.6170
20006SOL    HW162910   4.033   4.220   0.082 -0.8236 -2.7575 -1.4203
20006SOL    HW262911   3.901   4.166   0.136 -2.1128 -0.6122 -2.3008
20007SOL     OW62912   3.200   9.411   6.351  0.6984 -0.0095  0.0152
20007SOL    HW162913   3.252   9.441   6.276 -0.1411 -0.7951 -0.8992
20007SOL    HW262914   3.177   9.492   6.397  1.3798  0.4689 -0.4586
20008SOL     OW62915   0.759   3.631   9.426  0.0929  0.5753  0.1686
20008SOL    HW162916   0.816   3.571   9.473 -0.2359  0.7175  0.7670
20008SOL    HW262917   0.781   3.618   9.334  0.5439  0.0782  0.3395
20009SOL     OW62918   9.302   0.268   6.237 -0.3066  0.2412  0.1707
20009SOL    HW162919   9.291   0.333   6.168  0.6288 -0.0170 -0.2335
20009SOL    HW262920   9.252   0.192   6.207 -1.0649  0.6133  0.4530
20010SOL     OW62921   1.849   9.145   5.117  0.0285 -0.2339 -0.6694
20010SOL    HW162922   1.934   9.128   5.158  0.7526  0.7849 -1.6814
20010SOL    HW262923   1.849   9.091   5.038 -0.0805  0.0914 -0.8944
20011SOL     OW62924   1.279   3.083   9.154  0.0460 -0.3088  0.0124
20011SOL    HW162925   1.373   3.104   9.146 -0.3754  2.3605  0.9866
20011SOL    HW262926   1.240   3.123   9.076 -0.7165  2.1994  1.5803
20012SOL     OW62927   1.591   2.021   1.140  0.0807 -0.7283  0.3574
20012SOL    HW162928   1.681   2.039   1.166  0.0671 -0.2714  0.1025
20012SOL    HW262929   1.571   2.088   1.074 -0.6592 -0.3977  0.8928
20013SOL     OW62930   8.608   9.410   9.058  0.6280  0.0388 -0.3308
20013SOL    HW162931   8.698   9.426   9.030  1.0428  0.4111  1.1105
20013SOL    HW262932   8.595   9.470   9.132 -0.3096 -1.0164  0.4020
20014SOL     OW62933   4.892   3.428   1.487 -0.6884 -0.0265  0.0761
20014SOL    HW162934   4.815   3.432   1.545  0.6754  1.2749  1.9344
20014SOL    HW262935   4.966   3.442   1.546  0.9119 -0.1702 -1.8174
20015SOL     OW62936   7.911   4.507   0.260 -0.4078  0.1901  0.4864
20015SOL    HW162937   7.957   4.482   0.340 -0.0271  2.2156  0.9561
20015SOL    HW262938   7.833   4.451   0.258 -1.6590  1.6210  3.5294
20016SOL     OW62939   3.100   3.905   5.132  0.3190 -0.5219  0.1579
20016SOL    HW162940   3.113   3.954   5.213 -1.8235 -0.7426  0.7014
20016SOL    HW262941   3.013   3.867   5.141  0.6664 -1.8495 -1.6022
20017SOL     OW62942   8.709   7.300   6.426 -0.0758 -1.2982 -0.3201
20017SOL    HW162943   8.796   7.267   6.406 -0.1440 -0.9563 -1.2033
20017SOL    HW262944   8.703   7.295   6.522  0.4016 -2.5858 -0.3443
20018SOL     OW62945   1.895   1.734   3.176  0.1001  0.4316  0.8207
20018SOL    HW162946   1.987   1.714   3.191  0.3684  0.0603 -1.0775
20018SOL    HW262947   1.847   1.669   3.227  0.9182 -0.4921  0.4320
20019SOL     OW62948   7.858   9.348   9.166 -0.3038  0.0961 -0.7556
20019SOL    HW162949   7.906   9.428   9.189  0.2819 -0.6942  0.9335
20019SOL    HW262950   7.923   9.291   9.126 -0.5611  0.1862 -1.3126
20020SOL     OW62951   8.586   3.440   8.516  0.1019 -0.2688 -0.1598
20020SOL    HW162952   8.586   3.529   8.551  0.6308 -0.8342  1.3529
20020SOL    HW262953   8.568   3.451   8.423 -1.1014  1.3262  0.2200
20021SOL     OW62954   6.930   1.184   9.414  0.1913 -0.0140 -0.1510
20021SOL    HW162955   6.927   1.186   9.319  1.1336 -2.1567 -0.2947
20021SOL    HW262956   6.856   1.128   9.440 -0.9985  1.7810  0.5176
20022SOL     OW62957   2.561   2.589   9.114 -0.2131  0.0995 -0.4895
20022SOL    HW162958   2.625   2.656   9.090  1.0567 -0.7699  0.2983
20022SOL    HW262959   2.607   2.535   9.179 -2.0391 -0.0923  0.7196
20023SOL     OW62960   6.471   5.651   1.317  0.2677  0.6782 -0.2767
20023SOL    HW162961   6.441   5.666   1.227 -1.3371  3.2351  0.5697
20023SOL    HW262962   6.457   5.557   1.332 -0.9749  0.5132 -2.1609
20024SOL     OW62963   0.845   2.633   6.808  0.0688 -0.2547 -0.0230
20024SOL    HW162964   0.886   2.548   6.816 -0.6226 -0.5397  0.6638
20024SOL    HW262965   0.918   2.695   6.800  0.5726 -0.8957 -0.4606
20025SOL     OW62966   1.372   7.896   6.361  0.3980 -0.0007  0.4909
20025SOL    HW162967   1.343   7.821   6.309 -3.7289  0.7784  1.3255
20025SOL    HW262968   1.420   7.951   6.299  1.6107 -2.2286 -0.6702
20026SOL     OW62969   5.162   1.917   7.991  0.0208  0.0824 -0.1395
20026SOL    HW162970   5.236   1.930   7.931 -0.0326 -0.8836 -0.4296
20026SOL    HW262971   5.092   1.882   7.936 -0.4771  0.4531  0.2430
20027SOL     OW62972   1.687   5.578   4.323  0.0895 -0.6179  0.7338
20027SOL    HW162973   1.603   5.609   4.354  0.7490  0.8497  1.1334
20027SOL    HW262974   1.725   5.530   4.397 -1.4065 -3.5698 -0.2326
20028SOL     OW62975   8.065   5.261   4.570 -0.5431  0.1701  0.4768
20028SOL    HW162976   8.079   5.256   4.665 -1.3318  0.0883  0.6017
20028SOL    HW262977   7.969   5.265   4.561 -0.5102 -0.6757 -0.3514
20029SOL     OW62978   5.326   7.804   5.121 -0.2139 -0.3436 -0.1057
20029SOL    HW162979   5.408   7.797   5.072  0.8999  1.3305  1.3937
20029SOL    HW262980   5.316   7.718   5.162  0.8930 -0.5451 -0.2090
20030SOL     OW62981   8.910   5.430   7.778  0.3854  0.1827 -0.2487
20030SOL    HW162982   8.945   5.513   7.809 -0.3622  0.4789 -0.1898
20030SOL    HW262983   8.922   5.370   7.852  1.0727  0.1838 -0.3482
20031SOL     OW62984   1.540   2.658   3.508  0.0431  0.1520 -0.0438
20031SOL    HW162985   1.552   2.617   3.594 -0.2959 -0.5793 -0.3425
20031SOL    HW262986   1.480   2.731   3.524 -1.2457 -0.9028  0.0862
20032SOL     OW62987   1.699   3.967   5.171  0.2592  0.1666 -0.3832
20032SOL    HW162988   1.779   4.013   5.147  0.2869  0.2051 -0.2156
20032SOL    HW262989   1.672   4.006   5.254  0.7307 -0.6733  0.1905
20033SOL     OW62990   4.972   3.743   9.077 -0.2900 -0.2317  0.7232
20033SOL    HW162991   4.922   3.801   9.135 -1.6503 -0.6061 -0.0437
20033SOL    HW262992   5.023   3.688   9.136  0.4385  1.1998  1.4927
20034SOL     OW62993   7.864   2.678   8.259 -0.2916 -0.4849 -0.0884
20034SOL    HW162994   7.792   2.742   8.260  0.4378  0.3758  1.9879
20034SOL    HW262995   7.841   2.616   8.328 -0.0501 -1.4051 -0.8249
20035SOL     OW62996   2.142   7.048   1.641  0.6132  0.3128 -0.3841
20035SOL    HW162997   2.120   7.030   1.732 -0.1394  2.8023 -0.0164
20035SOL    HW262998   2.087   6.988   1.590  2.4427 -2.5426  0.7072
20036SOL     OW62999   9.608   3.054   1.272  0.7441  0.4085  0.6726
20036SOL    HW163000   9.613   2.969   1.228  0.1949  1.0844 -0.7716
20036SOL    HW263001   9.535   3.045   1.333  0.3530 -0.0093  0.1559
20037SOL     OW63002   4.419   4.413   2.171  0.3792  0.0919  0.1882
20037SOL    HW163003   4.458   4.499   2.190 -0.0720  0.9483 -2.3885
20037SOL    HW263004   4.483   4.350   2.203  0.7376  1.3308  2.1279
20038SOL     OW63005   4.955   9.180   2.874 -0.0206  0.7032 -0.4100
20038SOL    HW163006   5.043   9.194   2.910 -0.2923  1.0456  0.1330
20038SOL    HW263007   4.905   9.256   2.903 -1.2441 -0.7926  1.6904
20039SOL     OW63008   9.034   4.664   2.440 -0.0187 -0.4618  0.5612
20039SOL    HW163009   9.055   4.694   2.352 -0.6327 -1.8741 -0.1057
20039SOL    HW263010   8.950   4.704   2.461 -0.7437 -1.5224 -0.2426
20040SOL     OW63011   2.648   3.916   3.223  0.0929 -0.0097 -0.4737
20040SOL    HW163012   2.630   4.000   3.267  1.7757  0.6153 -0.8951
20040SOL    HW263013   2.656   3.939   3.131  1.4052 -0.4834 -0.4929
20041SOL     OW63014   1.487   4.090   7.603 -0.5788 -0.1846  0.4591
20041SOL    HW163015   1.439   4.169   7.577 -1.3511  0.1966  2.7732
20041SOL    HW263016   1.553   4.123   7.664  1.1906 -1.0001 -0.9249
20042SOL     OW63017   0.616   6.604   8.730 -0.3723 -0.0364  0.1236
20042SOL    HW163018   0.612   6.532   8.667  1.0328 -0.5878  0.6220
20042SOL    HW263019   0.534   6.652   8.717 -1.3045 -1.6721 -0.2831
20043SOL     OW63020   4.179   0.182   8.804  0.6251 -0.5198  0.0487
20043SOL    HW163021   4.147   0.140   8.884  0.3424  0.9505  0.7577
20043SOL    HW263022   4.134   0.136   8.733  0.7727 -1.7615  0.7347
20044SOL     OW63023   6.638   8.866   3.406 -0.0465  0.0735  0.6270
20044SOL    HW163024   6.629   8.822   3.322 -2.7984 -1.7174  1.7569
20044SOL    HW263025   6.549   8.885   3.434  0.7660  0.4566  3.2569
20045SOL     OW63026   1.682   3.724   3.256 -0.1015 -0.0404  0.5380
20045SOL    HW163027   1.671   3.807   3.210  0.3058  0.0911  0.6718
20045SOL    HW263028   1.744   3.675   3.203 -0.6903 -0.4485  0.2180
20046SOL     OW63029   7.907   8.289   5.467 -0.1402 -0.3426  0.0484
20046SOL    HW163030   7.906   8.214   5.407  0.3216 -0.4555  0.1789
20046SOL    HW263031   7.970   8.350   5.428  0.0209 -0.3341  0.3262
20047SOL     OW63032   9.017   6.878   8.247  0.7109 -0.2311  0.1558
20047SOL    HW163033   9.083   6.880   8.177 -0.5259 -1.2657 -1.0938
20047SOL    HW263034   9.067   6.893   8.327  2.5109 -1.2723 -0.7090
20048SOL     OW63035   7.474   6.159   3.331  0.7932 -0.4733 -0.2926
20048SOL    HW163036   7.492   6.149   3.424 -0.8864  0.3873  0.1546
20048SOL    HW263037   7.464   6.070   3.298  2.0816 -0.8097  0.1822
20049SOL     OW63038   3.541   6.965   7.120 -0.1746  0.1310  0.2578
20049SOL    HW163039   3.558   7.050   7.079 -1.3532  1.0204  1.5128
20049SOL    HW263040   3.451   6.944   7.093 -0.8346  0.5517  1.9976
20050SOL     OW63041   0.758   9.190   5.208 -0.8722 -0.0350  0.3172
20050SOL    HW163042   0.833   9.214   5.153 -0.9479 -0.6939 -0.0751
20050SOL    HW263043   0.789   9.203   5.297 -0.9091  1.5401  0.1287
20051SOL     OW63044   2.739   0.473   3.710  0.3903  0.0169 -0.2553
20051SOL    HW163045   2.694   0.499   3.630  2.5524  1.8685 -0.9996
20051SOL    HW263046   2.691   0.517   3.780  0.5166  1.2828 -0.9349
20052SOL     OW63047   8.505   0.518   8.361 -0.2420  0.7556  0.6954
20052SOL    HW163048   8.450   0.440   8.349 -0.1487  0.7613  0.2061
20052SOL    HW263049   8.465   0.584   8.305  0.6248  0.5733 -0.1608
20053SOL     OW63050   6.397   8.884   0.635  0.1320 -0.5259  0.2339
20053SOL    HW163051   6.404   8.799   0.592 -2.1225  0.2130 -1.8439
20053SOL    HW263052   6.470   8.935   0.599 -0.0974 -0.7711 -0.5940
20054SOL     OW63053   3.744   3.623   8.918  0.2296 -0.1122  0.0420
20054SOL    HW163054   3.707   3.538   8.897 -0.0096  0.2674 -1.1698
20054SOL    HW263055   3.823   3.629   8.863  0.2199  0.4577  0.0821
20055SOL     OW63056   9.282   0.687   8.708  0.3854  0.0822 -0.3508
20055SOL    HW163057   9.326   0.767   8.680  0.8653 -0.3761 -0.9394
20055SOL    HW263058   9.273   0.696   8.803  0.2969  0.8955 -0.4321
20056SOL     OW63059   8.711   7.853   1.438 -0.1162 -0.1912 -0.5124
20056SOL    HW163060   8.632   7.873   1.388 -0.1420  1.9727  0.2955
20056SOL    HW263061   8.779   7.905   1.397  0.2994  0.0385  0.4453
20057SOL     OW63062   9.022   5.551   8.200  0.4597 -0.8103 -0.0860
20057SOL    HW163063   8.996   5.644   8.202  0.8218 -0.6849 -0.9264
20057SOL    HW263064   9.000   5.519   8.288 -0.6592 -0.2043 -0.1181
20058SOL     OW63065   7.057   0.576   9.204  0.1396 -0.0113 -0.0226
20058SOL    HW163066   7.002   0.551   9.131  0.3860  0.1384 -0.2649
20058SOL    HW263067   7.067   0.671   9.195 -0.1302  0.0609  0.4175
20059SOL     OW63068   5.997   0.164   6.012 -0.5912 -0.4859  0.5877
20059SOL    HW163069   6.084   0.192   5.987 -0.4892 -2.0030 -0.9770
20059SOL    HW263070   5.940   0.198   5.944 -0.8010 -1.8473  0.0511
20060SOL     OW63071   3.515   6.047   1.600  0.4372  0.1969 -0.5214
20060SOL    HW163072   3.525   6.059   1.506  0.6254  2.9382 -0.2388
20060SOL    HW263073   3.559   6.123   1.639  0.2274 -0.7685  1.7857
20061SOL     OW63074   4.640   5.239   3.330  0.2013  0.9388  0.8122
20061SOL    HW163075   4.561   5.291   3.316 -0.3260 -0.0682 -0.0775
20061SOL    HW263076   4.680   5.232   3.243  0.7728  0.6500  1.0872
20062SOL     OW63077   1.711   8.061   1.966  0.5205 -0.1774  0.6618
20062SOL    HW163078   1.630   8.046   1.918 -0.0386  1.3811  1.0542
20062SOL    HW263079   1.710   7.995   2.036 -0.5567 -0.0160  0.8164
20063SOL     OW63080   8.755   3.677   4.092  0.2703  0.1715 -0.0384
20063SOL    HW163081   8.693   3.749   4.106 -0.7048 -0.8313  1.0337
20063SOL    HW263082   8.798   3.698   4.009 -1.8475  0.6825 -1.0872
20064SOL     OW63083   5.439   5.644   2.134 -0.2106  0.3734  0.3538
20064SOL    HW163084   5.388   5.603   2.203 -1.0655 -2.4971 -1.7745
20064SOL    HW263085   5.501   5.576   2.107  0.0427  1.3527 -1.7059
20065SOL     OW63086   1.443   9.454   7.718  0.0393 -0.7579  0.3516
20065SOL    HW163087   1.349   9.440   7.701 -0.0027 -0.3612  0.2500
20065SOL    HW263088   1.487   9.394   7.658 -0.1171  0.3054 -0.8520
20066SOL     OW63089   3.671   2.859   7.210 -0.6369  0.7444 -0.1396
20066SOL    HW163090   3.658   2.786   7.150  2.6722 -1.3292  1.3333
20066SOL    HW263091   3.607   2.845   7.279 -0.0487 -0.8865  0.1239
20067SOL     OW63092   2.684   8.448   4.714 -0.3976 -0.1040 -0.4934
20067SOL    HW163093   2.772   8.474   4.686 -0.7015  1.1285 -0.3616
20067SOL    HW263094   2.672   8.491   4.799 -1.5765  0.7788 -1.0720
20068SOL     OW63095   8.375   9.078   8.210 -0.2264  0.1616 -0.2293
20068SOL    HW163096   8.353   9.154   8.157 -0.0514  0.1461 -0.3214
20068SOL    HW263097   8.387   9.007   8.148 -0.2372  0.0938 -0.1548
20069SOL     OW63098   9.106   0.799   4.998  0.1225  0.5089 -0.0908
20069SOL    HW163099   9.131   0.784   4.907  0.7672  1.4223 -0.0817
20069SOL    HW263100   9.067   0.887   4.998  0.0410  0.4778  0.4990
20070SOL     OW63101   3.937   0.661   2.853 -0.5026  0.2192 -0.0022
20070SOL    HW163102   3.918   0.568   2.841  0.5541  0.0045 -0.1607
20070SOL    HW263103   3.928   0.699   2.766 -1.3852  0.3594  0.1459
20071SOL     OW63104   3.425   4.624   3.703 -0.0688  0.2189  0.3311
20071SOL    HW163105   3.358   4.624   3.771 -0.1434  0.9062  0.2600
20071SOL    HW263106   3.505   4.653   3.747 -0.0251  0.2809  0.2109
20072SOL     OW63107   2.584   0.311   4.202 -0.4872 -0.3149  0.3644
20072SOL    HW163108   2.608   0.264   4.122  0.4609 -1.9635  1.5566
20072SOL    HW263109   2.489   0.302   4.207 -0.6464  0.3617 -0.8737
20073SOL     OW63110   4.214   2.293   3.683  0.5876  0.0365 -0.2056
20073SOL    HW163111   4.269   2.226   3.642  0.3642 -0.0396 -0.3843
20073SOL    HW263112   4.272   2.368   3.696  0.7404 -0.0544 -0.3626
20074SOL     OW63113   7.881   0.685   7.711 -0.1672 -0.1371  0.2211
20074SOL    HW163114   7.875   0.599   7.669 -1.4297 -0.4669  1.0126
20074SOL    HW263115   7.933   0.669   7.789  0.2801 -0.0019 -0.0458
20075SOL     OW63116   4.419   1.193   5.246 -0.6822  0.4762 -0.1775
20075SOL    HW163117   4.346   1.144   5.283 -1.2904  1.3472 -0.1949
20075SOL    HW263118   4.388   1.222   5.160 -0.5450  1.3616  0.0594
20076SOL     OW63119   5.643   7.515   0.737 -0.0645  0.0353  0.0632
20076SOL    HW163120   5.657   7.449   0.670  0.4134 -1.8664  1.9455
20076SOL    HW263121   5.547   7.518   0.748 -0.1184  0.0679 -0.3836
20077SOL     OW63122   0.650   7.817   1.658 -0.0610 -0.8311 -0.6237
20077SOL    HW163123   0.615   7.866   1.583 -1.3596 -1.3353 -0.3740
20077SOL    HW263124   0.743   7.805   1.637 -0.0166  0.4938 -1.3452
20078SOL     OW63125   8.458   4.152   6.388 -0.1349 -0.0484 -0.0512
20078SOL    HW163126   8.513   4.228   6.408  0.4039 -0.9112  2.0020
20078SOL    HW263127   8.459   4.147   6.293 -0.5698  2.7699 -0.3037
20079SOL     OW63128   6.468   2.234   3.425  0.1607 -0.0805  0.1489
20079SOL    HW163129   6.466   2.248   3.519 -1.1106 -0.0714  0.1351
20079SOL    HW263130   6.494   2.142   3.415  1.3236  0.2068  0.4643
20080SOL     OW63131   1.532   6.108   1.308 -0.2860  0.2191  0.4970
20080SOL    HW163132   1.444   6.128   1.278  0.7295 -0.1499 -3.1427
20080SOL    HW263133   1.585   6.183   1.280  0.8044 -0.1693  1.4118
20081SOL     OW63134   8.950   2.217   8.335  0.5835  0.3514  0.3004
20081SOL    HW163135   8.948   2.208   8.430  0.8961  1.0877  0.3873
20081SOL    HW263136   8.889   2.151   8.303 -1.4193  1.7002  1.1470
20082SOL     OW63137   2.318   7.046   4.114 -0.3278  0.6198 -0.3875
20082SOL    HW163138   2.349   7.132   4.142 -0.4418  0.7435 -0.6363
20082SOL    HW263139   2.222   7.051   4.123 -0.2433 -0.0327  1.1535
20083SOL     OW63140   0.537   7.891   4.786 -0.3897  0.0761  0.0510
20083SOL    HW163141   0.574   7.972   4.750 -2.1433  0.9035 -0.0176
20083SOL    HW263142   0.578   7.882   4.872  0.8412  0.2721 -0.4850
20084SOL     OW63143   2.598   1.330   8.281 -0.2192 -0.1857  0.2733
20084SOL    HW163144   2.676   1.293   8.322 -0.0887  1.1753  1.3366
20084SOL    HW263145   2.556   1.380   8.351 -0.3463  1.7159 -1.0709
20085SOL     OW63146   6.569   3.258   6.140 -0.1226 -0.2000  0.4659
20085SOL    HW163147   6.623   3.269   6.062 -1.1349 -1.0831 -0.3917
20085SOL    HW263148   6.555   3.163   6.146 -0.2358 -0.1296  1.6128
20086SOL     OW63149   0.645   3.953   0.953 -0.1797 -0.0168  0.3594
20086SOL    HW163150   0.584   3.913   1.015 -1.2731  0.1466 -0.5726
20086SOL    HW263151   0.595   4.024   0.913  1.0260  0.9108  0.4219
20087SOL     OW63152   8.401   4.112   2.230  0.4076 -0.1662 -0.3068
20087SOL    HW163153   8.330   4.115   2.166 -0.6129 -1.6319  0.7056
20087SOL    HW263154   8.446   4.030   2.212  1.1613  0.2141 -0.1976
20088SOL     OW63155   6.713   9.535   5.037  0.0161  0.5609  0.0980
20088SOL    HW163156   6.800   9.574   5.025 -0.3898  1.4397 -0.0955
20088SOL    HW263157   6.660   9.607   5.071 -0.8982  0.3307 -0.8036
20089SOL     OW63158   1.078   2.927   8.011  0.1055 -0.2882 -0.1432
20089SOL    HW163159   1.086   3.020   7.991  1.5218  0.0714  1.7842
20089SOL    HW263160   1.026   2.924   8.092 -0.0236 -1.1929 -0.2446
20090SOL     OW63161   4.442   9.099   7.952  0.3111 -0.3164 -0.0072
20090SOL    HW163162   4.443   9.150   7.871 -0.0586 -0.0188  0.1667
20090SOL    HW263163   4.395   9.155   8.014  2.1466  0.2571  0.9438
20091SOL     OW63164   1.736   6.236   4.809  0.5875 -0.3794  0.5921
20091SOL    HW163165   1.804   6.187   4.761  0.3439  0.6542 -0.8680
20091SOL    HW263166   1.662   6.175   4.815  0.6009 -0.5023 -0.4186
20092SOL     OW63167   0.051   4.294   7.779  0.0792  0.4956  0.0554
20092SOL    HW163168   0.146   4.280   7.789 -0.1664 -1.2790  0.1607
20092SOL    HW263169   0.024   4.331   7.864  0.6279  0.7732  0.1164
20093SOL     OW63170   3.101   0.801   4.392 -0.0314  0.3744 -0.5340
20093SOL    HW163171   3.168   0.757   4.444  0.0943  0.6235 -0.4844
20093SOL    HW263172   3.035   0.733   4.375 -0.2590  0.3808  0.2752
20094SOL     OW63173   6.822   5.492   2.433 -0.0679 -0.0435  0.1960
20094SOL    HW163174   6.882   5.528   2.499  0.8741 -0.5872 -0.3444
20094SOL    HW263175   6.825   5.555   2.361 -0.2883  0.0223  0.2448
20095SOL     OW63176   0.578   2.021   7.650  0.2354  0.2369 -0.3492
20095SOL    HW163177   0.512   2.051   7.588  1.1300  3.5769  0.1199
20095SOL    HW263178   0.654   2.077   7.633  1.0418  0.2420  2.6629
20096SOL     OW63179   7.713   0.641   6.501  0.3139 -0.6747  0.1094
20096SOL    HW163180   7.742   0.549   6.501 -1.3328 -1.3613  4.1015
20096SOL    HW263181   7.725   0.670   6.591 -2.0535  2.1102 -0.3550
20097SOL     OW63182   0.122   3.157   1.096  0.5123  0.4724 -0.1871
20097SOL    HW163183   0.051   3.111   1.141  0.9685 -0.1557 -0.0945
20097SOL    HW263184   0.202   3.116   1.129  0.9831  1.8541  0.4881
20098SOL     OW63185   3.630   8.691   8.474  0.0841 -0.2394 -0.7618
20098SOL    HW163186   3.713   8.738   8.484 -0.5055  0.6620  0.1012
20098SOL    HW263187   3.649   8.602   8.503 -0.1942  0.9339  3.8325
20099SOL     OW63188   7.039   6.625   7.275  0.0768 -0.0888  0.4495
20099SOL    HW163189   7.128   6.609   7.306 -0.2117 -1.1025  0.7646
20099SOL    HW263190   7.051   6.680   7.197  1.1132 -1.8721 -0.7203
20100SOL     OW63191   2.268   5.835   9.513  0.0601 -0.1583 -0.5032
20100SOL    HW163192   2.212   5.823   9.436  0.1584  0.1045 -0.6164
20100SOL    HW263193   2.245   5.922   9.545 -0.3207 -0.4600  0.0451
20101SOL     OW63194   8.458   6.055   4.935  0.3185 -0.1177  0.0176
20101SOL    HW163195   8.551   6.070   4.916  0.0482  0.1110 -1.2557
20101SOL    HW263196   8.417   6.045   4.849 -1.3195  2.6596  0.3513
20102SOL     OW63197   6.178   6.634   8.480  0.7133 -0.5382  1.2978
20102SOL    HW163198   6.133   6.707   8.523 -0.0102 -0.4526  0.4368
20102SOL    HW263199   6.267   6.666   8.464  0.7123 -0.2375  1.8911
20103SOL     OW63200   6.410   1.634   2.461 -0.9934  0.6683  0.2870
20103SOL    HW163201   6.409   1.629   2.556 -0.2680 -1.0567  0.2314
20103SOL    HW263202   6.453   1.718   2.442  2.4157 -0.6143  1.5330
20104SOL     OW63203   4.777   6.904   5.764 -0.2021 -0.3135  0.4502
20104SOL    HW163204   4.730   6.869   5.839 -2.7107  1.7491 -0.0050
20104SOL    HW263205   4.789   6.997   5.783 -1.1267  0.3308 -1.6971
20105SOL     OW63206   9.522   2.533   6.243  0.1874 -0.2264 -0.7277
20105SOL    HW163207   9.570   2.616   6.236 -0.3968  0.1958  0.0487
20105SOL    HW263208   9.440   2.549   6.197 -1.6344  0.9999  2.6095
20106SOL     OW63209   4.227   6.747   8.081 -0.0819 -0.3496  0.3280
20106SOL    HW163210   4.298   6.804   8.112  0.6720 -0.8959 -0.3590
20106SOL    HW263211   4.161   6.808   8.048 -0.3631  0.2017  1.8060
20107SOL     OW63212   2.394   6.169   5.195 -0.5988  0.1307 -0.0516
20107SOL    HW163213   2.309   6.211   5.188 -0.6951  0.0373  0.4875
20107SOL    HW263214   2.379   6.094   5.253 -0.2145 -0.0583 -0.1894
20108SOL     OW63215   0.791   2.366   3.736 -0.4281  0.1075  0.3326
20108SOL    HW163216   0.787   2.386   3.830  0.3275  0.4686  0.2946
20108SOL    HW263217   0.730   2.294   3.725  0.6281 -1.0036  1.3968
20109SOL     OW63218   8.747   1.872   9.414 -0.2844  0.2773 -0.0792
20109SOL    HW163219   8.752   1.778   9.399 -1.3554  0.2948 -0.6305
20109SOL    HW263220   8.708   1.907   9.334 -0.5886  1.0989  0.4149
20110SOL     OW63221   7.749   1.097   7.840 -0.1069 -0.1506 -0.3705
20110SOL    HW163222   7.771   1.175   7.891 -0.0223 -0.6555  0.3809
20110SOL    HW263223   7.823   1.086   7.780  0.8115 -0.7249  0.8185
20111SOL     OW63224   5.124   0.395   8.106 -0.0248  0.4824  0.1459
20111SOL    HW163225   5.158   0.378   8.193 -0.5922 -0.5993  0.1741
20111SOL    HW263226   5.180   0.344   8.048 -0.2320  0.4550 -0.0309
20112SOL     OW63227   4.708   2.359   0.329  0.1536  0.3081 -0.9068
20112SOL    HW163228   4.617   2.356   0.359  0.1228  1.2405 -0.8845
20112SOL    HW263229   4.723   2.272   0.290  0.4537 -1.3265  2.4556
20113SOL     OW63230   9.511   5.037   9.120  0.0203  0.4339  0.0703
20113SOL    HW163231   9.576   5.055   9.189  1.6435  1.5858 -1.6479
20113SOL    HW263232   9.460   5.117   9.113 -0.1580  0.3109 -0.0454
20114SOL     OW63233   7.366   5.246   1.930  0.2464  0.2039 -0.1130
20114SOL    HW163234   7.410   5.161   1.930 -0.8640 -0.3920  0.2381
20114SOL    HW263235   7.391   5.287   2.013 -1.9471 -1.2901  1.3939
20115SOL     OW63236   9.461   2.849   5.257  0.8575 -0.1266  0.2050
20115SOL    HW163237   9.536   2.871   5.202  0.0837  0.1917 -0.7514
20115SOL    HW263238   9.408   2.929   5.258  0.2844 -0.5053  0.4647
20116SOL     OW63239   1.318   7.593   6.387  0.3196  0.8159 -0.0117
20116SOL    HW163240   1.229   7.610   6.420  0.3148  0.8999 -0.0689
20116SOL    HW263241   1.328   7.498   6.394  0.5342  0.8846  0.8033
20117SOL     OW63242   3.534   8.542   7.869 -0.1356 -0.3135 -0.1613
20117SOL    HW163243   3.463   8.554   7.932 -0.0521  1.1631 -0.2913
20117SOL    HW263244   3.582   8.625   7.873  1.7062 -1.3542  0.0769
20118SOL     OW63245   1.681   4.863   8.553 -0.1373  0.0082  0.0718
20118SOL    HW163246   1.732   4.852   8.633 -0.5654  1.0354  0.5014
20118SOL    HW263247   1.732   4.922   8.499 -0.5694  0.5490  0.2458
20119SOL     OW63248   4.592   3.382   1.325 -0.1397 -0.2176  0.5984
20119SOL    HW163249   4.615   3.471   1.296  0.3461 -0.9652 -1.5472
20119SOL    HW263250   4.617   3.326   1.251 -0.3994 -2.1599  1.9082
20120SOL     OW63251   4.415   6.905   5.741 -0.1192 -0.2500 -0.2784
20120SOL    HW163252   4.423   6.814   5.769  1.0130 -0.0840 -0.0327
20120SOL    HW263253   4.482   6.915   5.673  1.8216  1.1453  1.7128
20121SOL     OW63254   3.570   4.543   1.160  0.0289  0.3345 -0.2276
20121SOL    HW163255   3.645   4.498   1.199  0.5250  1.0772 -0.3104
20121SOL    HW263256   3.600   4.572   1.074 -0.4055  0.4988 -0.3303
20122SOL     OW63257   5.898   9.188   8.644 -0.0478 -0.2455  0.2316
20122SOL    HW163258   5.928   9.270   8.605 -0.0700 -0.0499  0.6167
20122SOL    HW263259   5.977   9.149   8.680  0.1043 -0.8208 -0.7223
20123SOL     OW63260   1.990   1.824   6.498 -0.2578 -0.1134 -0.2613
20123SOL    HW163261   2.045   1.793   6.426 -0.7690 -3.3005  0.5773
20123SOL    HW263262   1.905   1.843   6.457 -0.2855 -1.0524 -0.6623
20124SOL     OW63263   8.905   3.793   0.009 -0.3225  0.3054 -0.1832
20124SOL    HW163264   8.931   3.879  -0.024 -0.6873 -0.0083 -1.2983
20124SOL    HW263265   8.813   3.802   0.031  0.2181  0.9210  2.1721
20125SOL     OW63266   2.922   6.585   2.016 -0.3865  0.0168 -0.7712
20125SOL    HW163267   3.009   6.557   2.046 -0.3164  0.4634 -0.5458
20125SOL    HW263268   2.906   6.666   2.064 -0.2917  0.7385 -1.9232
20126SOL     OW63269   1.587   3.426   8.446 -0.4459 -0.0838  0.0397
20126SOL    HW163270   1.677   3.426   8.479 -0.1545 -0.9998 -0.7219
20126SOL    HW263271   1.555   3.515   8.463  0.4254  0.0958  0.7838
20127SOL     OW63272   9.351   7.577   6.056 -0.2801 -0.0012 -0.1828
20127SOL    HW163273   9.342   7.485   6.033 -0.2987 -0.5112  1.6606
20127SOL    HW263274   9.443   7.587   6.082  0.4351  1.1664 -2.8272
20128SOL     OW63275   6.956   2.671   4.905 -0.0908  0.1602 -0.2389
20128SOL    HW163276   6.995   2.749   4.945  0.7636 -0.1029 -0.5514
20128SOL    HW263277   7.026   2.606   4.906 -0.7261 -0.5349 -0.1968
20129SOL     OW63278   0.804   6.271   4.655  0.5271  0.1971  0.3776
20129SOL    HW163279   0.784   6.290   4.563  0.7067 -0.3951  0.2087
20129SOL    HW263280   0.718   6.263   4.696  0.4230 -0.4853  0.0494
20130SOL     OW63281   4.377   8.026   7.727  0.2963  0.4572  0.0140
20130SOL    HW163282   4.427   7.946   7.720  1.1433  1.0445 -0.9269
20130SOL    HW263283   4.291   8.004   7.690  0.4442 -0.0781 -0.0175
20131SOL     OW63284   6.590   3.388   7.622  0.1403  0.1999  0.1360
20131SOL    HW163285   6.614   3.397   7.530  1.1456  0.5044  0.4209
20131SOL    HW263286   6.507   3.436   7.629  0.0759  0.2094 -0.5950
20132SOL     OW63287   1.417   6.735   6.855  0.0423 -0.1682  0.1619
20132SOL    HW163288   1.390   6.824   6.874  1.5093  0.5906 -1.0720
20132SOL    HW263289   1.361   6.708   6.782  0.1332  0.0385  0.0151
20133SOL     OW63290   7.616   8.617   7.840  0.1627 -0.3211 -0.6182
20133SOL    HW163291   7.560   8.694   7.832  0.8248  0.3952  1.0413
20133SOL    HW263292   7.590   8.560   7.768 -1.1231  0.9616 -1.2169
20134SOL     OW63293   3.413   6.005   3.292 -0.2558  0.0230  0.4328
20134SOL    HW163294   3.438   6.062   3.365 -0.2267 -0.8760  1.1364
20134SOL    HW263295   3.345   6.054   3.246 -0.2949  0.5861  1.0800
20135SOL     OW63296   9.301   8.229   8.669 -0.0027 -0.3025  0.5834
20135SOL    HW163297   9.391   8.262   8.677 -0.0190  0.0568 -0.5093
20135SOL    HW263298   9.248   8.308   8.656 -0.4217 -0.5478  0.7907
20136SOL     OW63299   7.914   1.968   4.406  0.2167  0.4260  0.0150
20136SOL    HW163300   7.954   1.921   4.333 -1.7332 -0.1888 -0.7261
20136SOL    HW263301   7.852   2.028   4.365 -0.3904  0.5887  1.1258
20137SOL     OW63302   4.798   6.372   0.876  0.3009 -0.6670 -0.4033
20137SOL    HW163303   4.796   6.287   0.832 -2.0196 -0.5682 -0.6207
20137SOL    HW263304   4.706   6.392   0.894  0.8278  1.5410  0.1567
20138SOL     OW63305   3.236   5.632   4.696 -0.2795  0.6139  0.4084
20138SOL    HW163306   3.274   5.654   4.780 -3.5665  0.9225  1.9567
20138SOL    HW263307   3.227   5.537   4.698  1.7237  0.3389 -0.6665
20139SOL     OW63308   8.312   1.672   5.394 -0.4202 -0.2355 -0.0039
20139SOL    HW163309   8.241   1.703   5.450 -0.6462  0.0958 -0.4639
20139SOL    HW263310   8.269   1.624   5.324 -0.0600 -1.8055  0.8006
20140SOL     OW63311   7.796   8.837   2.290 -0.4687  0.3555 -0.3920
20140SOL    HW163312   7.743   8.911   2.261 -1.2710 -0.2761 -0.5774
20140SOL    HW263313   7.740   8.790   2.352  0.0756 -0.0347 -0.1862
20141SOL     OW63314   8.837   5.780   0.757 -0.4830  0.7702 -0.8236
20141SOL    HW163315   8.799   5.694   0.738 -1.6532  0.9189  0.5913
20141SOL    HW263316   8.798   5.804   0.841  2.3169  1.2290  0.4586
20142SOL     OW63317   0.487   1.869   5.804  0.4971 -0.0578 -0.1052
20142SOL    HW163318   0.425   1.837   5.739  1.1807 -2.4316  0.2905
20142SOL    HW263319   0.573   1.851   5.766  0.9002 -0.6999  1.0382
20143SOL     OW63320   5.343   6.650   3.473  0.0319  0.2364 -0.1636
20143SOL    HW163321   5.391   6.644   3.390  0.3714  1.0008 -0.0341
20143SOL    HW263322   5.411   6.665   3.539 -0.1921 -0.8606  0.3285
20144SOL     OW63323   3.134   4.447   3.673  0.0440 -0.5234  0.3557
20144SOL    HW163324   3.064   4.389   3.704  0.0116  0.6331  2.7241
20144SOL    HW263325   3.168   4.487   3.753 -0.0322  2.7902 -1.1167
20145SOL     OW63326   6.300   7.317   7.846  0.2472  0.3941  0.7062
20145SOL    HW163327   6.345   7.372   7.782  0.0439  1.6854  1.6305
20145SOL    HW263328   6.310   7.364   7.929 -0.1739 -0.8410  1.4788
20146SOL     OW63329   1.018   6.895   1.840 -0.0766 -0.1242 -0.3714
20146SOL    HW163330   0.942   6.876   1.894  0.4725  0.7264  0.7532
20146SOL    HW263331   1.091   6.853   1.885  0.5416  1.3771  0.0986
20147SOL     OW63332   4.122   5.768   6.623 -0.1322  0.2829  0.0478
20147SOL    HW163333   4.184   5.768   6.549 -0.1883  0.4421  0.0002
20147SOL    HW263334   4.132   5.681   6.662 -1.4062 -0.4861 -1.2320
20148SOL     OW63335   2.575   8.557   5.350 -0.5244  0.5335 -0.4523
20148SOL    HW163336   2.572   8.544   5.445  0.1476 -0.4711 -0.5592
20148SOL    HW263337   2.668   8.570   5.330  0.2664 -4.7080 -1.5877
20149SOL     OW63338   5.303   4.942   0.130 -0.0081  0.2231  0.3928
20149SOL    HW163339   5.374   4.997   0.099  0.9811 -2.3029 -2.3319
20149SOL    HW263340   5.224   4.995   0.120  1.2178  2.4031  1.6336
20150SOL     OW63341   9.568   0.286   4.461 -0.0201  0.1183  0.1672
20150SOL    HW163342   9.613   0.246   4.387 -0.8107 -1.1027  0.3121
20150SOL    HW263343   9.509   0.350   4.422 -0.4263 -0.5141 -0.2728
20151SOL     OW63344   7.952   7.112   4.355 -0.5330  0.3733  0.0322
20151SOL    HW163345   7.972   7.138   4.265 -1.4287  0.1922 -0.2270
20151SOL    HW263346   8.027   7.058   4.381 -1.9165 -2.8353 -1.9890
20152SOL     OW63347   0.353   0.192   4.386 -0.1846  0.2799 -0.3278
20152SOL    HW163348   0.434   0.197   4.437  0.7519  1.3363 -1.8419
20152SOL    HW263349   0.368   0.250   4.311 -2.6582  1.1522 -0.2356
20153SOL     OW63350   9.349   8.522   3.376  0.0488 -0.6083 -0.8854
20153SOL    HW163351   9.253   8.513   3.374  0.0851 -1.1854 -0.3628
20153SOL    HW263352   9.363   8.612   3.403 -0.3559 -0.5403 -0.8864
20154SOL     OW63353   8.077   0.470   4.088 -0.0676 -0.0472 -0.2024
20154SOL    HW163354   8.086   0.529   4.013  0.8604 -0.4617 -0.4326
20154SOL    HW263355   8.000   0.502   4.134  1.1504  2.2358  0.4511
20155SOL     OW63356   3.935   9.475   8.944  0.5028 -0.0230 -0.3716
20155SOL    HW163357   3.864   9.459   8.881  0.5931 -1.1946 -0.1832
20155SOL    HW263358   3.954   9.390   8.983  1.5943  0.3798  0.0399
20156SOL     OW63359   1.381   8.830   7.880 -0.3195  0.2320  0.1036
20156SOL    HW163360   1.371   8.741   7.845 -0.4317  0.2261  0.1531
20156SOL    HW263361   1.453   8.867   7.829 -0.7350  0.3540 -0.3877
20157SOL     OW63362   3.303   1.259   1.529  0.3251  0.1929  0.1604
20157SOL    HW163363   3.323   1.327   1.593 -0.7059  0.9270 -0.2738
20157SOL    HW263364   3.243   1.200   1.575  0.6495 -0.0391  0.2964
20158SOL     OW63365   2.713   9.123   2.649  0.2724  0.4989 -0.3893
20158SOL    HW163366   2.626   9.083   2.651  0.9191 -1.6095 -4.2146
20158SOL    HW263367   2.759   9.086   2.725 -1.8533  1.1024  1.2762
20159SOL     OW63368   4.574   4.193   6.457 -0.4102 -0.7005 -0.3067
20159SOL    HW163369   4.543   4.177   6.368  1.4906 -1.0831 -0.9399
20159SOL    HW263370   4.660   4.233   6.447 -0.8168  0.7474  1.3746
20160SOL     OW63371   7.922   5.192   0.395 -0.8089  0.6842  0.3391
20160SOL    HW163372   7.975   5.155   0.465 -1.6067  1.8857  1.6246
20160SOL    HW263373   7.852   5.240   0.440 -0.2977  3.0764 -1.1892
20161SOL     OW63374   3.794   6.333   2.740 -0.6825 -0.0868  0.2214
20161SOL    HW163375   3.752   6.266   2.794 -1.5204  1.2423  1.3003
20161SOL    HW263376   3.738   6.410   2.751  1.0709  1.2343  0.2288
20162SOL     OW63377   1.533   3.132   4.338  0.1935 -0.3860 -0.6962
20162SOL    HW163378   1.579   3.067   4.284  0.1258 -1.3586  0.3789
20162SOL    HW263379   1.506   3.083   4.416  0.3379  0.9954  0.2437
20163SOL     OW63380   0.586   1.566   0.309  0.1175 -0.2740 -0.4618
20163SOL    HW163381   0.607   1.600   0.222  0.1280  1.3262  0.1409
20163SOL    HW263382   0.501   1.523   0.297  0.2119 -0.2567 -1.2911
20164SOL     OW63383   7.791   5.771   9.447  0.1385  0.1571  0.2348
20164SOL    HW163384   7.746   5.687   9.449 -0.8737  0.6870  0.4545
20164SOL    HW263385   7.818   5.781   9.356  0.0716 -0.3118  0.1604
20165SOL     OW63386   9.078   5.242   3.948  0.3373 -0.0907 -0.3220
20165SOL    HW163387   9.113   5.215   3.862 -0.2949  0.2833 -0.7062
20165SOL    HW263388   9.020   5.315   3.928  0.2192  0.0298  0.4426
20166SOL     OW63389   6.113   2.362   5.773  0.2161  0.2686  0.2401
20166SOL    HW163390   6.061   2.322   5.842  1.7180  1.2319  2.0010
20166SOL    HW263391   6.122   2.454   5.798 -1.5319  1.3921 -2.7151
20167SOL     OW63392   0.734   2.643   5.990  0.3296  0.1005  0.2058
20167SOL    HW163393   0.792   2.583   5.943 -0.2002 -0.9538  0.8489
20167SOL    HW263394   0.690   2.693   5.922 -1.5856 -2.4593 -0.5864
20168SOL     OW63395   4.824   0.290   3.151  0.4544  0.1906 -0.5606
20168SOL    HW163396   4.853   0.371   3.109 -1.0630  0.8904 -0.3378
20168SOL    HW263397   4.737   0.274   3.113 -0.0911 -0.2632  0.8161
20169SOL     OW63398   8.505   4.414   4.180 -0.0759 -0.9176 -0.0182
20169SOL    HW163399   8.455   4.367   4.113 -1.1185 -1.4689  1.1135
20169SOL    HW263400   8.439   4.445   4.242  0.4764  2.5783 -0.9658
20170SOL     OW63401   6.440   6.842   0.839 -0.0565  0.0977 -0.7878
20170SOL    HW163402   6.505   6.787   0.882 -0.1176  0.9731  0.5030
20170SOL    HW263403   6.379   6.780   0.799 -0.6996 -0.8456  1.4889
20171SOL     OW63404   3.215   7.411   5.275  0.6745 -0.0003 -0.1030
20171SOL    HW163405   3.222   7.469   5.199 -2.3794  2.3193  1.1643
20171SOL    HW263406   3.152   7.343   5.248 -0.5135  0.8999  0.3144
20172SOL     OW63407   4.774   0.716   6.101  0.2893 -0.2436  0.2943
20172SOL    HW163408   4.768   0.751   6.012  0.3315  1.6334  0.9760
20172SOL    HW263409   4.867   0.694   6.112  0.0682 -1.6772 -0.5179
20173SOL     OW63410   4.067   4.107   7.168  0.3766 -0.1321  0.1429
20173SOL    HW163411   4.049   4.191   7.124  1.6212 -0.3339 -0.8045
20173SOL    HW263412   3.981   4.076   7.196 -0.7633 -0.6890 -3.4511
20174SOL     OW63413   5.678   5.983   2.439  0.7110  0.5979  0.1320
20174SOL    HW163414   5.678   5.887   2.435  2.3948  0.6121 -2.4279
20174SOL    HW263415   5.642   6.011   2.355  0.9200  2.2095  0.5393
20175SOL     OW63416   0.278   1.659   7.685  0.0596 -0.0478  0.4185
20175SOL    HW163417   0.288   1.699   7.598 -0.2054 -0.1743  0.3313
20175SOL    HW263418   0.249   1.570   7.668  2.3328 -0.8775  0.5368
20176SOL     OW63419   9.015   3.379   6.463 -0.2449  0.3844  0.1931
20176SOL    HW163420   8.969   3.399   6.381  1.7283  0.8254 -0.8488
20176SOL    HW263421   9.090   3.327   6.436  0.5175  0.6388  1.7326
20177SOL     OW63422   5.005   2.612   3.662 -0.1289 -0.2136  0.4305
20177SOL    HW163423   5.023   2.535   3.716  0.2179  0.4192  1.2390
20177SOL    HW263424   5.060   2.681   3.700 -0.1888  0.3484 -0.4805
20178SOL     OW63425   6.610   5.764   0.778  0.4067  0.2907 -0.5286
20178SOL    HW163426   6.649   5.851   0.774 -1.0484  0.9439 -1.5467
20178SOL    HW263427   6.621   5.728   0.690 -0.9670  0.3884 -0.7688
20179SOL     OW63428   4.321   2.243   6.592 -0.3397 -0.6030  0.1777
20179SOL    HW163429   4.235   2.208   6.614 -1.3205  1.4064 -0.2884
20179SOL    HW263430   4.335   2.218   6.501 -0.1939 -1.3262  0.3890
20180SOL     OW63431   3.306   8.529   3.915  0.1736 -0.1676  0.0956
20180SOL    HW163432   3.382   8.575   3.951  0.7035 -0.5058 -0.5729
20180SOL    HW263433   3.282   8.466   3.984  0.6024 -0.1721  0.2450
20181SOL     OW63434   0.680   9.170   2.673  0.1345 -0.4330 -0.3526
20181SOL    HW163435   0.611   9.104   2.680 -0.6817  0.3941 -0.4836
20181SOL    HW263436   0.656   9.238   2.736  1.5944 -0.7910  0.6445
20182SOL     OW63437   6.285   3.121   0.914 -0.2262 -0.8569  0.2458
20182SOL    HW163438   6.265   3.085   0.827  0.8566 -0.9282  0.0193
20182SOL    HW263439   6.352   3.188   0.898 -2.0585  1.2107  0.6761
20183SOL     OW63440   2.377   8.967   9.486  0.4098 -0.3535  0.1147
20183SOL    HW163441   2.299   9.021   9.470  0.7784  0.2242  0.2187
20183SOL    HW263442   2.343   8.883   9.514 -0.1995 -0.3942 -0.6904
20184SOL     OW63443   0.631   2.624   0.265 -0.2723 -0.1434  0.6406
20184SOL    HW163444   0.570   2.559   0.232  0.4010  0.0344 -1.0663
20184SOL    HW263445   0.592   2.655   0.347 -2.2120 -0.3681 -0.1555
20185SOL     OW63446   6.887   8.515   3.998 -0.1109 -0.1676  0.4044
20185SOL    HW163447   6.938   8.560   3.930 -1.4196 -0.0765 -0.5421
20185SOL    HW263448   6.797   8.543   3.984 -0.5495 -0.8900  1.5986
20186SOL     OW63449   5.330   8.907   1.635  0.1028  0.0992 -0.1064
20186SOL    HW163450   5.357   8.945   1.551 -1.1499  1.1672 -0.0582
20186SOL    HW263451   5.357   8.815   1.630 -0.4752 -0.0019 -1.9090
20187SOL     OW63452   0.456   1.009   2.046  0.3742 -0.3067  0.7804
20187SOL    HW163453   0.420   0.921   2.059  0.0812 -0.0462  1.8476
20187SOL    HW263454   0.416   1.062   2.115  1.7432  0.3205  1.1300
20188SOL     OW63455   8.398   4.802   7.582 -0.6443 -0.2767  0.3107
20188SOL    HW163456   8.424   4.832   7.495 -1.6798 -1.4001 -0.4268
20188SOL    HW263457   8.328   4.862   7.608 -0.7903 -0.3435  0.0734
20189SOL     OW63458   7.144   7.901   2.495 -0.4471  0.2686 -0.2954
20189SOL    HW163459   7.145   7.984   2.542 -0.9979 -0.3792  0.8895
20189SOL    HW263460   7.068   7.908   2.436 -0.3512  0.6911 -0.3731
20190SOL     OW63461   2.421   3.263   7.453  0.2120 -0.2335  0.6392
20190SOL    HW163462   2.483   3.327   7.487  0.4372 -0.2295  0.2183
20190SOL    HW263463   2.380   3.305   7.377 -0.9332  0.1017  1.4090
20191SOL     OW63464   1.569   8.565   6.366 -0.6809 -0.2336 -0.6378
20191SOL    HW163465   1.493   8.609   6.329 -1.4041 -1.0079 -0.1013
20191SOL    HW263466   1.643   8.602   6.318 -1.5036 -0.4856 -2.1616
20192SOL     OW63467   7.972   0.370   5.604 -0.0541 -0.3533 -0.2264
20192SOL    HW163468   8.013   0.455   5.620 -0.4969 -0.1506 -0.1512
20192SOL    HW263469   7.903   0.389   5.539 -1.2294 -0.3407  0.9767
20193SOL     OW63470   2.387   9.144   0.406 -0.0500 -0.4666  0.1002
20193SOL    HW163471   2.380   9.182   0.494 -1.8872 -1.1917  0.3220
20193SOL    HW263472   2.401   9.051   0.422 -3.2302 -1.1179 -0.2336
20194SOL     OW63473   7.934   6.768   6.316  0.2177 -0.0382  0.0135
20194SOL    HW163474   7.874   6.744   6.387 -2.4338  0.9295 -1.7747
20194SOL    HW263475   7.983   6.843   6.351 -2.1223  1.4129  0.4021
20195SOL     OW63476   8.896   7.510   8.561 -0.2952 -0.3399  0.3984
20195SOL    HW163477   8.873   7.552   8.644  0.9100  2.8924 -0.7309
20195SOL    HW263478   8.815   7.471   8.530 -1.6298  1.4712  1.4605
20196SOL     OW63479   7.480   9.148   7.460 -0.0245 -0.0839  0.1123
20196SOL    HW163480   7.443   9.072   7.505  0.3874 -0.9087 -0.9042
20196SOL    HW263481   7.565   9.161   7.501  0.0816 -0.4374  0.0088
20197SOL     OW63482   4.960   2.243   3.374  0.2151 -0.3364 -0.5302
20197SOL    HW163483   5.000   2.330   3.378  0.7189 -0.5051 -1.5248
20197SOL    HW263484   5.033   2.182   3.384 -0.1757 -0.6569  0.4893
20198SOL     OW63485   1.513   2.920   4.548  0.3560 -0.3222  0.4898
20198SOL    HW163486   1.449   2.848   4.545 -0.4360  0.3963 -0.3148
20198SOL    HW263487   1.598   2.876   4.552 -0.1429 -1.2989  0.7033
20199SOL     OW63488   3.806   1.970   0.417  0.2541  0.3877  0.3726
20199SOL    HW163489   3.760   2.031   0.474  1.0090  0.1649  1.2561
20199SOL    HW263490   3.765   1.885   0.435 -0.7381  0.5915 -0.7922
20200SOL     OW63491   7.774   0.071   8.520  0.4996  0.3258  0.0875
20200SOL    HW163492   7.724  -0.010   8.523  1.2780 -0.1384  2.3553
20200SOL    HW263493   7.719   0.132   8.471 -0.5267 -1.2701 -0.8112
20201SOL     OW63494   1.259   6.434   4.280  1.0029 -0.0477  0.3698
20201SOL    HW163495   1.241   6.525   4.258  0.3296 -0.1899  0.3365
20201SOL    HW263496   1.329   6.409   4.219  1.5408  0.5851  0.7075
20202SOL     OW63497   8.836   4.217   2.416  0.1555  0.4796  0.4320
20202SOL    HW163498   8.857   4.259   2.499 -1.4381 -0.3343  1.2836
20202SOL    HW263499   8.741   4.207   2.416 -0.0299  1.4477 -1.9884
20203SOL     OW63500   6.274   3.632   0.014  0.4912  0.1877  0.3777
20203SOL    HW163501   6.352   3.631  -0.041  0.0489 -1.1419 -0.2680
20203SOL    HW263502   6.274   3.720   0.053  2.3758  0.1812  0.5206
20204SOL     OW63503   5.707   7.606   7.247  0.1145 -0.2684 -0.0382
20204SOL    HW163504   5.674   7.545   7.313 -2.4441 -1.1411 -1.9503
20204SOL    HW263505   5.794   7.572   7.225  0.9858 -0.0391  2.6362
20205SOL     OW63506   1.934   7.108   9.396  0.4859 -0.2892 -0.2798
20205SOL    HW163507   2.023   7.114   9.431 -0.2781  1.6014  1.5863
20205SOL    HW263508   1.938   7.151   9.311  0.9795  1.6736  0.6891
20206SOL     OW63509   2.772   8.737   6.853  0.5300 -0.4181 -0.4697
20206SOL    HW163510   2.713   8.787   6.908  3.2345  0.3325  1.9466
20206SOL    HW263511   2.761   8.646   6.882  2.4559  0.0505  2.0193
20207SOL     OW63512   3.457   7.693   4.302  0.3693 -0.0876 -0.3466
20207SOL    HW163513   3.401   7.770   4.300 -0.6535 -0.8168 -0.9181
20207SOL    HW263514   3.476   7.675   4.210  2.3005  0.6443 -0.1436
20208SOL     OW63515   5.564   1.705   1.136  0.1224  0.2692  0.2386
20208SOL    HW163516   5.496   1.637   1.135 -1.1007  1.4395 -1.3976
20208SOL    HW263517   5.521   1.783   1.170  0.3174  1.2940 -1.7146
20209SOL     OW63518   8.308   6.776   4.294  0.4177  0.1978  0.4468
20209SOL    HW163519   8.317   6.756   4.200  0.4317  0.9263  0.2849
20209SOL    HW263520   8.236   6.839   4.298 -0.0017 -0.3078  1.0025
20210SOL     OW63521   2.745   2.866   0.320 -0.1116  0.3233 -0.1393
20210SOL    HW163522   2.782   2.911   0.245 -1.1472  1.1398 -0.1706
20210SOL    HW263523   2.819   2.819   0.358  0.3238 -0.5951 -1.9926
20211SOL     OW63524   3.056   1.923   2.702  0.5726  0.0416 -0.2967
20211SOL    HW163525   3.024   2.001   2.748  0.0537  1.4538 -2.8184
20211SOL    HW263526   2.979   1.866   2.696 -0.0263  0.8990 -1.3518
20212SOL     OW63527   4.445   0.404   0.375 -0.2030 -0.2328  0.4603
20212SOL    HW163528   4.506   0.335   0.348 -1.8009 -0.9220 -1.7213
20212SOL    HW263529   4.425   0.451   0.294 -1.3452  0.9845  1.3931
20213SOL     OW63530   9.036   1.784   8.917 -0.4265  0.2513 -0.2802
20213SOL    HW163531   9.014   1.715   8.855  0.9416 -0.6081  0.1481
20213SOL    HW263532   8.968   1.780   8.984 -0.6702 -0.2929 -0.5611
20214SOL     OW63533   3.784   1.396   2.575 -0.0691  0.6271  0.1881
20214SOL    HW163534   3.738   1.479   2.590 -0.9607 -0.1583  2.0347
20214SOL    HW263535   3.860   1.421   2.522 -0.7104  2.5065  0.0655
20215SOL     OW63536   5.602   3.486   2.660 -0.0392 -0.1059 -0.7869
20215SOL    HW163537   5.691   3.509   2.633  0.2905  0.0230  0.3840
20215SOL    HW263538   5.600   3.390   2.653  0.1948 -0.1123 -0.7951
20216SOL     OW63539   6.617   6.814   5.221  0.3656 -0.2675 -0.7242
20216SOL    HW163540   6.611   6.725   5.257  0.3952 -0.8802 -2.1599
20216SOL    HW263541   6.560   6.867   5.277  1.9547 -0.7214  1.4556
20217SOL     OW63542   4.646   3.122   5.691  0.7334  0.0278 -0.2185
20217SOL    HW163543   4.576   3.175   5.655  0.3273 -1.0427 -1.0788
20217SOL    HW263544   4.610   3.033   5.692  2.0104 -0.5212 -0.5590
20218SOL     OW63545   2.639   6.855   6.140 -0.4462 -0.2963 -0.7831
20218SOL    HW163546   2.550   6.884   6.159 -1.4232 -1.2000 -3.4039
20218SOL    HW263547   2.687   6.935   6.120 -0.7417  0.1699  0.3167
20219SOL     OW63548   0.960   0.644   8.130 -0.3218  0.0900  0.4908
20219SOL    HW163549   1.039   0.693   8.109 -0.3479 -0.6046 -1.5400
20219SOL    HW263550   0.992   0.564   8.173 -0.1440  0.9620  2.0331
20220SOL     OW63551   7.025   7.884   6.682 -0.7308  0.2572  0.6187
20220SOL    HW163552   7.044   7.791   6.693 -1.1233 -0.4070 -3.1649
20220SOL    HW263553   6.930   7.890   6.696 -1.0139 -0.3096 -0.8671
20221SOL     OW63554   1.046   6.220   4.783  0.1487  0.3563 -0.0553
20221SOL    HW163555   1.079   6.310   4.781 -0.9705  0.7862  0.1902
20221SOL    HW263556   0.963   6.224   4.736 -0.0649 -0.4924  0.2373
20222SOL     OW63557   6.185   5.479   9.537 -0.6313  0.1300  0.3428
20222SOL    HW163558   6.165   5.569   9.510  1.3948  0.2730 -0.9153
20222SOL    HW263559   6.247   5.488   9.609  0.3275 -0.2124 -0.4115
20223SOL     OW63560   5.032   8.897   0.921 -0.4058 -0.8498 -0.1830
20223SOL    HW163561   5.056   8.989   0.909 -1.8081 -0.1162  1.9609
20223SOL    HW263562   5.077   8.870   1.001 -2.4323 -1.0004  0.9883
20224SOL     OW63563   5.872   8.439   2.677  0.3269  0.1920 -0.2400
20224SOL    HW163564   5.907   8.476   2.596  1.3218  0.8869  0.4900
20224SOL    HW263565   5.924   8.360   2.693  1.1234  0.8440  0.4735
20225SOL     OW63566   7.700   0.799   4.259  0.7751 -0.0755 -0.4781
20225SOL    HW163567   7.674   0.875   4.311  1.1324 -0.3908  0.1744
20225SOL    HW263568   7.737   0.836   4.178 -0.8699  0.3966 -1.0434
20226SOL     OW63569   6.458   9.121   3.249  0.8668  0.0928  0.2918
20226SOL    HW163570   6.393   9.078   3.194  1.1786  0.9643 -0.7966
20226SOL    HW263571   6.461   9.069   3.329 -1.6401  0.3818  0.6527
20227SOL     OW63572   4.223   1.018   0.369 -0.3042  0.2763 -0.0204
20227SOL    HW163573   4.186   1.052   0.451  0.8034 -2.8613  1.9333
20227SOL    HW263574   4.175   0.937   0.353  2.9555 -1.9386  0.5270
20228SOL     OW63575   0.151   8.075   5.217 -0.7318 -0.4118 -0.1465
20228SOL    HW163576   0.076   8.134   5.227 -1.0375 -0.7072 -0.6713
20228SOL    HW263577   0.136   8.006   5.282 -0.6225 -0.1729  0.1346
20229SOL     OW63578   9.477   4.369   6.994 -0.1951  0.1756 -0.5253
20229SOL    HW163579   9.540   4.324   7.050 -1.1107  0.9521  1.2095
20229SOL    HW263580   9.492   4.462   7.010 -1.0724  0.3963 -0.9134
20230SOL     OW63581   5.814   3.074   9.169 -0.4896  0.2512 -0.2362
20230SOL    HW163582   5.802   3.057   9.075 -2.2533  1.1962 -0.2250
20230SOL    HW263583   5.873   3.149   9.172  0.4285 -0.4333 -0.5292
20231SOL     OW63584   7.553   8.722   1.020 -0.5233  0.1080  0.2650
20231SOL    HW163585   7.620   8.771   0.973 -0.8608  1.7386  1.3692
20231SOL    HW263586   7.471   8.751   0.981 -0.6631 -0.9020 -0.2141
20232SOL     OW63587   6.327   4.035   6.437 -0.1775  0.6098  0.2848
20232SOL    HW163588   6.385   4.015   6.363 -1.2910  1.4092 -0.8596
20232SOL    HW263589   6.376   4.099   6.489  0.2933  0.6829 -0.2389
20233SOL     OW63590   0.693   2.044   9.602  0.1351 -0.1118  1.1240
20233SOL    HW163591   0.785   2.056   9.625  0.2716 -0.2587  0.6658
20233SOL    HW263592   0.695   1.988   9.525 -0.4149 -1.7304  2.2365
20234SOL     OW63593   4.155   0.234   5.038 -0.0843 -0.5194  0.4899
20234SOL    HW163594   4.078   0.285   5.014 -0.2907 -1.1776 -0.3069
20234SOL    HW263595   4.162   0.244   5.133 -0.5241  0.4058  0.4332
20235SOL     OW63596   9.374   3.297   4.210 -0.2012 -0.2710  0.1873
20235SOL    HW163597   9.284   3.278   4.184 -0.7905  2.2075  0.1913
20235SOL    HW263598   9.370   3.302   4.305 -0.1915  0.3728  0.1568
20236SOL     OW63599   2.705   2.051   0.840 -0.1892  0.4726  0.3031
20236SOL    HW163600   2.690   2.071   0.747  0.0616 -0.7102 -0.0068
20236SOL    HW263601   2.734   1.960   0.840  0.1808  0.5817  1.5181
20237SOL     OW63602   3.868   1.583   1.557 -0.8328  0.2420 -0.0859
20237SOL    HW163603   3.821   1.500   1.554  0.1571 -0.4189  1.5554
20237SOL    HW263604   3.960   1.560   1.548 -0.5744  1.2105 -0.1039
20238SOL     OW63605   9.305   3.352   8.281 -0.1036 -0.0868 -0.2042
20238SOL    HW163606   9.378   3.352   8.219 -2.1292 -2.3686 -2.8815
20238SOL    HW263607   9.284   3.444   8.293  0.3184  0.5033 -3.1711
20239SOL     OW63608   2.769   2.860   4.624  0.1552 -0.3280 -0.4915
20239SOL    HW163609   2.709   2.798   4.582  0.8451  0.3883 -2.6357
20239SOL    HW263610   2.838   2.805   4.662 -0.7085 -1.0150  0.1293
20240SOL     OW63611   8.873   0.735   0.944  0.0689 -0.3155 -0.8942
20240SOL    HW163612   8.778   0.738   0.957  0.1260  0.5683 -0.6134
20240SOL    HW263613   8.906   0.687   1.020  0.0515  1.5503  0.3615
20241SOL     OW63614   2.971   0.634   9.149 -0.1361 -0.2119  0.0053
20241SOL    HW163615   2.905   0.634   9.218  0.5331 -1.4396  0.6778
20241SOL    HW263616   3.055   0.645   9.195  0.2425 -0.0924 -0.6947
20242SOL     OW63617   3.202   8.971   3.979 -0.0610 -0.9800 -0.4834
20242SOL    HW163618   3.122   9.022   3.992  0.8892  0.0803  1.7449
20242SOL    HW263619   3.235   9.000   3.894 -0.7039  0.4912 -0.2677
20243SOL     OW63620   3.915   1.172   5.432 -0.1865  0.1869 -0.2784
20243SOL    HW163621   3.822   1.177   5.410 -0.6792  0.4103  1.7005
20243SOL    HW263622   3.943   1.263   5.438 -0.6003  0.2286  1.9206
20244SOL     OW63623   0.966   4.598   1.017 -0.4541 -0.2528  0.0900
20244SOL    HW163624   1.022   4.545   0.961 -2.5552  0.5768 -3.0841
20244SOL    HW263625   1.017   4.677   1.034 -0.1909  0.0642 -1.8804
20245SOL     OW63626   4.739   0.207   2.664 -0.3214  0.8925  0.5597
20245SOL    HW163627   4.731   0.295   2.700  0.5162  0.9343  0.6572
20245SOL    HW263628   4.833   0.196   2.647 -0.4941  0.2512 -0.0388
20246SOL     OW63629   4.244   9.062   7.045 -0.1392  0.6404 -0.5810
20246SOL    HW163630   4.210   9.095   6.962  0.1570 -0.2735 -1.0746
20246SOL    HW263631   4.336   9.090   7.046  0.8749 -2.2005 -2.1875
20247SOL     OW63632   6.691   7.328   7.706  0.2555  0.0193 -0.1755
20247SOL    HW163633   6.786   7.326   7.698  0.3774 -0.3501  1.1585
20247SOL    HW263634   6.659   7.332   7.616  1.5140 -0.6210 -0.6624
20248SOL     OW63635   4.620   5.201   1.060  0.4525  0.1823  0.3515
20248SOL    HW163636   4.562   5.125   1.067  0.8222 -0.1925 -0.5308
20248SOL    HW263637   4.598   5.254   1.137  0.5343 -1.0402  1.2548
20249SOL     OW63638   4.777   7.723   2.661 -0.6647  0.4700 -0.1360
20249SOL    HW163639   4.756   7.766   2.578  1.5705 -1.2067 -1.6584
20249SOL    HW263640   4.868   7.748   2.679  0.0801 -1.9927 -0.1051
20250SOL     OW63641   8.706   6.828   1.489 -0.2980 -0.3906  0.3381
20250SOL    HW163642   8.712   6.757   1.424 -2.1638 -1.2142  0.9916
20250SOL    HW263643   8.647   6.892   1.449 -0.1879 -0.1370  0.5778
20251SOL     OW63644   3.663   8.806   0.400  0.0128  0.5202 -0.3230
20251SOL    HW163645   3.646   8.886   0.350 -0.2306 -0.1945 -1.4269
20251SOL    HW263646   3.710   8.749   0.339 -0.2299 -0.3501  0.2869
20252SOL     OW63647   5.040   7.846   4.640 -0.2977  0.0732 -0.9580
20252SOL    HW163648   5.112   7.783   4.634 -0.6538 -0.5745  0.8798
20252SOL    HW263649   5.070   7.921   4.589  1.3965 -0.4541 -0.8182
20253SOL     OW63650   5.665   4.541   8.417 -0.2113  0.2815  0.0826
20253SOL    HW163651   5.628   4.626   8.439  0.0829  0.3117  0.4738
20253SOL    HW263652   5.692   4.549   8.326 -1.6771  0.0752 -0.4053
20254SOL     OW63653   2.330   6.795   1.623 -0.0271 -0.0094  0.2041
20254SOL    HW163654   2.366   6.866   1.570  0.9487 -0.2857  0.4813
20254SOL    HW263655   2.380   6.797   1.704 -1.4753  0.3845  1.1339
20255SOL     OW63656   8.853   1.906   5.522  0.1132 -0.7253 -0.2711
20255SOL    HW163657   8.878   1.837   5.461 -1.2975 -3.1297  1.6740
20255SOL    HW263658   8.918   1.902   5.591  0.9843  1.1206 -0.9213
20256SOL     OW63659   5.337   5.748   1.785 -0.7624 -0.2449  0.0099
20256SOL    HW163660   5.335   5.664   1.739 -1.9016  0.5818 -1.5401
20256SOL    HW263661   5.429   5.775   1.780 -0.7180 -0.5456 -1.1202
20257SOL     OW63662   6.088   1.582   3.283 -0.3318  0.0240 -0.2284
20257SOL    HW163663   6.009   1.632   3.264  0.5989  0.8065 -2.4106
20257SOL    HW263664   6.159   1.645   3.275  0.8025 -1.3768 -2.0170
20258SOL     OW63665   4.244   6.411   5.684 -0.4890  0.4047 -0.1456
20258SOL    HW163666   4.210   6.403   5.595  1.5864 -3.4637 -0.7864
20258SOL    HW263667   4.337   6.389   5.677 -0.0187  0.8833  2.8973
20259SOL     OW63668   0.392   6.823   2.235 -0.4448  0.3715  0.3899
20259SOL    HW163669   0.392   6.919   2.241  1.0314  0.3467  1.4205
20259SOL    HW263670   0.465   6.796   2.291 -1.7043 -1.4458  1.2350
20260SOL     OW63671   8.104   5.706   5.140  0.2437 -0.0477 -0.4777
20260SOL    HW163672   8.115   5.762   5.063 -0.6341 -0.2733 -0.7714
20260SOL    HW263673   8.010   5.709   5.159  0.0304 -2.0852 -0.9942
20261SOL     OW63674   8.122   2.659   1.803 -0.0738 -0.7638 -0.0723
20261SOL    HW163675   8.149   2.729   1.743  0.7316  0.2931  1.4636
20261SOL    HW263676   8.174   2.583   1.776  1.0175 -0.0305 -0.0946
20262SOL     OW63677   1.723   2.297   4.281 -0.2214 -0.2472 -0.1170
20262SOL    HW163678   1.815   2.280   4.259  0.1407  0.2248  0.9657
20262SOL    HW263679   1.679   2.303   4.196  1.1964  1.9576 -0.7795
20263SOL     OW63680   6.217   0.900   8.363  0.0648 -0.1538 -0.5151
20263SOL    HW163681   6.139   0.951   8.384  0.0864  0.0764 -0.9849
20263SOL    HW263682   6.229   0.843   8.438 -0.0516  0.4231 -0.0510
20264SOL     OW63683   4.428   8.344   4.620 -0.1573  0.0756  0.5639
20264SOL    HW163684   4.432   8.321   4.527 -0.2736 -0.5383  0.7074
20264SOL    HW263685   4.420   8.260   4.665 -0.8957  0.4212  1.0909
20265SOL     OW63686   8.132   9.171   5.903 -0.1394 -0.4661 -0.1895
20265SOL    HW163687   8.153   9.082   5.928 -1.1119 -0.8240 -0.6058
20265SOL    HW263688   8.213   9.206   5.867  0.5974 -0.7483  1.1553
20266SOL     OW63689   3.947   8.601   1.661 -0.1899 -0.1611 -0.4320
20266SOL    HW163690   4.022   8.581   1.717 -1.3272 -0.9587  0.8523
20266SOL    HW263691   3.940   8.526   1.602  0.7965  0.5218 -1.4687
20267SOL     OW63692   0.375   2.479   1.531 -0.4352  0.3277 -0.5979
20267SOL    HW163693   0.382   2.560   1.583  1.7101  0.9088 -1.6809
20267SOL    HW263694   0.428   2.496   1.454  0.2328 -2.2119 -0.7620
20268SOL     OW63695   8.499   5.241   7.368 -0.7799  0.4993 -0.7315
20268SOL    HW163696   8.574   5.301   7.365  0.2219 -0.6734  0.0244
20268SOL    HW263697   8.534   5.157   7.339 -1.7035 -0.1548 -0.0205
20269SOL     OW63698   1.742   6.553   5.946 -0.3630 -0.4978  0.2170
20269SOL    HW163699   1.758   6.519   5.858 -1.0322  1.1590 -0.5899
20269SOL    HW263700   1.648   6.572   5.948 -0.3698 -0.5752  1.3240
20270SOL     OW63701   4.987   6.251   1.079 -0.6709  0.0753  0.0661
20270SOL    HW163702   4.928   6.299   1.021 -0.5931  0.5406  0.3676
20270SOL    HW263703   4.994   6.306   1.157 -1.2672 -0.8318  0.7833
20271SOL     OW63704   3.350   0.263   8.049  0.5612  0.5614  0.2096
20271SOL    HW163705   3.257   0.244   8.057  0.6575 -0.0786 -0.1430
20271SOL    HW263706   3.391   0.178   8.036  1.1361  0.8947 -0.2270
20272SOL     OW63707   9.078   8.425   3.143  0.1582 -0.0099 -0.4843
20272SOL    HW163708   9.068   8.348   3.087 -1.0148  0.0175 -0.3259
20272SOL    HW263709   9.087   8.498   3.082  2.1794 -0.3408 -0.6528
20273SOL     OW63710   9.030   6.201   8.689  0.1506  0.7410  0.0258
20273SOL    HW163711   9.081   6.152   8.754 -0.8866 -0.3443  0.0735
20273SOL    HW263712   9.090   6.216   8.616 -0.3334 -3.8886 -1.6369
20274SOL     OW63713   7.636   7.794   3.784  0.3557  0.0418 -0.0640
20274SOL    HW163714   7.547   7.778   3.755  0.1228  0.5450  0.3442
20274SOL    HW263715   7.633   7.881   3.825  1.0998  0.2101 -0.3373
20275SOL     OW63716   7.953   3.364   9.003  0.0237 -0.1379  0.0003
20275SOL    HW163717   7.863   3.370   9.033  0.3639  2.5634  0.7129
20275SOL    HW263718   7.979   3.454   8.985  2.2099 -0.9535 -1.3998
20276SOL     OW63719   9.574   3.672   4.403  0.2268 -0.3363 -0.3753
20276SOL    HW163720   9.619   3.726   4.468 -0.0435 -0.4942 -0.0592
20276SOL    HW263721   9.481   3.689   4.417  0.0702 -1.8909  0.6204
20277SOL     OW63722   4.018   7.673   1.425  0.2539  0.0070  0.1117
20277SOL    HW163723   4.064   7.656   1.507 -1.5894  0.2315  1.2348
20277SOL    HW263724   4.058   7.753   1.391 -0.5432  1.2761  2.0344
20278SOL     OW63725   3.195   3.259   6.881 -0.3790 -0.3833 -0.3107
20278SOL    HW163726   3.110   3.297   6.901 -0.6189 -0.6727 -0.7798
20278SOL    HW263727   3.256   3.304   6.940 -0.9280 -0.5194  0.3758
20279SOL     OW63728   7.788   8.204   0.507  0.4486 -0.2068 -0.5687
20279SOL    HW163729   7.786   8.127   0.449  1.1456  0.5908 -1.7117
20279SOL    HW263730   7.731   8.181   0.580  1.9308 -2.4907 -0.0044
20280SOL     OW63731   3.681   6.880   8.546  0.3450  0.3966  0.0113
20280SOL    HW163732   3.706   6.790   8.568 -1.6045 -0.2178 -0.1113
20280SOL    HW263733   3.586   6.880   8.550  0.3295  2.7478  1.0637
20281SOL     OW63734   7.875   2.023   4.064 -0.0082  0.1786  0.2750
20281SOL    HW163735   7.808   2.039   4.131  0.1500 -0.1600  0.5226
20281SOL    HW263736   7.830   2.035   3.981  0.4496  3.3861  0.3997
20282SOL     OW63737   1.379   7.324   4.378 -0.2525 -0.1413 -0.0126
20282SOL    HW163738   1.420   7.238   4.371  0.1596  0.1418 -1.2602
20282SOL    HW263739   1.311   7.313   4.444 -1.2114 -1.8208 -1.2460
20283SOL     OW63740   6.217   6.317   7.248  0.1658  0.4197 -0.0509
20283SOL    HW163741   6.311   6.306   7.259 -0.0281 -0.1557  1.2319
20283SOL    HW263742   6.207   6.405   7.211  1.1999  0.4507 -0.2786
20284SOL     OW63743   4.049   5.648   2.269  0.3373  0.0275  1.0300
20284SOL    HW163744   3.977   5.703   2.301  0.1399  0.1506  0.3965
20284SOL    HW263745   4.105   5.634   2.345  0.1947  0.8046  1.2840
20285SOL     OW63746   7.718   6.193   2.956  0.1345 -0.1111  0.1675
20285SOL    HW163747   7.806   6.165   2.930 -0.3171 -1.5104  0.0586
20285SOL    HW263748   7.671   6.200   2.873  0.6130  2.5223  0.0340
20286SOL     OW63749   5.400   3.603   1.911 -0.3779 -0.6134  0.1600
20286SOL    HW163750   5.358   3.546   1.847 -0.9703  0.8832 -0.8619
20286SOL    HW263751   5.356   3.688   1.900  0.5284  0.0777  1.5260
20287SOL     OW63752   0.497   4.558   4.115  0.1529 -0.9233 -1.0960
20287SOL    HW163753   0.488   4.577   4.208  2.0167 -0.9641 -0.8692
20287SOL    HW263754   0.448   4.627   4.071  0.0141 -0.3783 -0.1060
20288SOL     OW63755   5.271   3.484   7.493  0.1548  0.4857 -0.3671
20288SOL    HW163756   5.202   3.419   7.483  0.6624 -0.6503  2.4072
20288SOL    HW263757   5.352   3.436   7.471  0.3003  1.0814 -1.1859
20289SOL     OW63758   0.440   3.855   1.598 -0.1593 -0.2520  0.4713
20289SOL    HW163759   0.356   3.843   1.555 -0.2554 -0.4826  0.7255
20289SOL    HW263760   0.421   3.914   1.671  0.0224  0.2211  0.1450
20290SOL     OW63761   8.606   2.237   2.221 -0.2311  0.3498  0.4246
20290SOL    HW163762   8.575   2.323   2.193  0.6627  0.9915  1.3329
20290SOL    HW263763   8.647   2.253   2.307  2.6686 -0.3914 -0.7074
20291SOL     OW63764   1.855   4.684   0.076  0.0821  0.1160 -0.1223
20291SOL    HW163765   1.806   4.684   0.159 -1.0184  0.3268 -0.7499
20291SOL    HW263766   1.805   4.625   0.019  1.5917 -1.1216 -0.2270
20292SOL     OW63767   8.189   0.472   9.050  0.4402  0.7853 -0.2434
20292SOL    HW163768   8.237   0.434   8.977  1.0582  2.2720 -0.6382
20292SOL    HW263769   8.186   0.566   9.031 -1.5500  0.9097  0.3895
20293SOL     OW63770   3.473   5.301   6.867 -0.2522 -0.8016 -0.1685
20293SOL    HW163771   3.538   5.248   6.821  1.2902  1.0568 -0.2344
20293SOL    HW263772   3.495   5.291   6.959 -0.6605 -1.1265 -0.1021
20294SOL     OW63773   5.151   3.847   2.557  0.2095 -0.1416  0.5651
20294SOL    HW163774   5.081   3.906   2.583 -0.4116  0.5412 -2.3284
20294SOL    HW263775   5.108   3.762   2.546 -0.5943  0.5001 -2.3045
20295SOL     OW63776   5.645   2.915   0.809  0.2083 -0.0833 -0.1303
20295SOL    HW163777   5.713   2.932   0.744  0.3278 -1.7151 -0.4891
20295SOL    HW263778   5.564   2.947   0.768  0.3767 -0.5405 -0.8572
20296SOL     OW63779   7.033   4.359   1.384 -0.5265 -0.0862  0.1831
20296SOL    HW163780   6.959   4.370   1.325  1.2078 -1.4615 -2.4922
20296SOL    HW263781   7.045   4.265   1.391  0.4676  0.0905  1.2331
20297SOL     OW63782   2.694   4.984   7.592 -0.5290 -0.0151 -0.1370
20297SOL    HW163783   2.649   5.069   7.595 -1.0009 -0.2620 -0.1975
20297SOL    HW263784   2.626   4.921   7.571 -0.2086 -0.4355  0.0607
20298SOL     OW63785   6.450   1.841   0.178 -0.3334  0.1030  0.0613
20298SOL    HW163786   6.363   1.878   0.196 -0.3676 -0.3054  0.7854
20298SOL    HW263787   6.434   1.776   0.110 -0.1271  2.0056 -1.9120
20299SOL     OW63788   1.787   5.613   3.840 -0.1237  0.2859 -0.1008
20299SOL    HW163789   1.883   5.611   3.833 -0.1165  1.0184 -0.2305
20299SOL    HW263790   1.770   5.585   3.930  0.0734 -2.5179 -0.8345
20300SOL     OW63791   6.041   2.756   3.954  0.7035  0.4255 -0.5532
20300SOL    HW163792   5.984   2.760   4.030  1.4706 -1.5174  0.1799
20300SOL    HW263793   6.128   2.737   3.989  1.4015  1.0819 -1.8165
20301SOL     OW63794   1.577   5.540   8.469 -0.6816 -0.8659 -0.0131
20301SOL    HW163795   1.529   5.467   8.428 -0.7105 -0.9925  0.2399
20301SOL    HW263796   1.572   5.521   8.563 -1.3187 -0.1527  0.1024
20302SOL     OW63797   5.983   3.009   9.434  0.3762  0.8070 -0.2478
20302SOL    HW163798   5.909   2.989   9.377 -1.1949  1.5139  1.4432
20302SOL    HW263799   6.057   3.022   9.374 -0.8203 -0.0286 -1.9806
20303SOL     OW63800   5.472   6.244   9.340  0.0343  0.7755  0.2715
20303SOL    HW163801   5.471   6.323   9.286  1.7083 -0.5164 -1.8370
20303SOL    HW263802   5.417   6.182   9.293 -0.2969  0.2957  1.2671
20304SOL     OW63803   1.758   1.121   6.623 -0.1850 -0.2484  0.2525
20304SOL    HW163804   1.689   1.186   6.636  0.3817  0.4834 -0.2659
20304SOL    HW263805   1.723   1.040   6.659 -0.8392  0.3887  1.0738
20305SOL     OW63806   8.386   3.189   4.578  0.1942 -0.6290  0.6887
20305SOL    HW163807   8.450   3.259   4.580 -0.2093 -0.2390  0.1224
20305SOL    HW263808   8.310   3.224   4.626 -0.2062 -0.4760 -0.0517
20306SOL     OW63809   6.905   2.249   2.489  0.7125 -0.2434 -0.4920
20306SOL    HW163810   6.825   2.198   2.501 -0.3491  1.5199  0.4304
20306SOL    HW263811   6.943   2.214   2.408 -0.2580 -2.0270 -0.2398
20307SOL     OW63812   6.148   5.996   7.730 -0.4526 -0.7364 -0.0045
20307SOL    HW163813   6.173   6.063   7.666 -1.5749 -0.1205  0.1766
20307SOL    HW263814   6.077   5.948   7.687 -0.9552 -0.5616  0.6198
20308SOL     OW63815   7.483   4.230   9.151 -0.0332  0.4515  0.8861
20308SOL    HW163816   7.445   4.200   9.233  0.7342  0.0947  1.1259
20308SOL    HW263817   7.538   4.157   9.121 -0.4324  0.5112 -0.0330
20309SOL     OW63818   4.473   7.527   3.567  0.5842 -0.1213  0.4259
20309SOL    HW163819   4.557   7.492   3.540  0.1071 -0.9590 -0.0104
20309SOL    HW263820   4.493   7.580   3.645  1.5486 -0.0198  0.1252
20310SOL     OW63821   7.749   3.769   3.748  0.2368 -0.2424 -0.3033
20310SOL    HW163822   7.674   3.736   3.798  0.3782  0.0150  0.0801
20310SOL    HW263823   7.764   3.857   3.782  1.2758 -0.6187  0.2531
20311SOL     OW63824   6.218   8.772   4.462 -0.1155  0.1826  0.4913
20311SOL    HW163825   6.226   8.769   4.366  0.9282 -0.1045  0.5827
20311SOL    HW263826   6.308   8.771   4.494 -0.4397  1.0025  1.4679
20312SOL     OW63827   4.443   5.858   5.956  0.0515  0.2329  0.3753
20312SOL    HW163828   4.484   5.945   5.962 -0.0238  0.2994 -0.0274
20312SOL    HW263829   4.361   5.873   5.908  1.7654 -0.5889 -3.1505
20313SOL     OW63830   5.043   7.069   4.558  0.1483  0.0811 -0.1692
20313SOL    HW163831   5.092   6.989   4.539  1.6474  0.9745 -0.2314
20313SOL    HW263832   5.102   7.140   4.531 -1.5432  1.2006 -1.0580
20314SOL     OW63833   7.958   4.328   2.485  0.2385  0.4195  0.1052
20314SOL    HW163834   7.883   4.289   2.440  0.7247  0.1752 -0.4906
20314SOL    HW263835   8.021   4.257   2.494  0.8864  0.9132 -0.4452
20315SOL     OW63836   3.986   2.663   2.853 -0.0045  0.0957 -0.6146
20315SOL    HW163837   3.914   2.707   2.806 -1.0878  0.4047  1.2130
20315SOL    HW263838   3.990   2.576   2.815 -1.4005  0.0665 -0.7522
20316SOL     OW63839   4.686   0.512   8.924 -0.6260  0.3918 -0.1286
20316SOL    HW163840   4.697   0.552   8.838 -1.5303 -0.0244 -0.4486
20316SOL    HW263841   4.770   0.470   8.942 -0.3100  0.7964 -0.6398
20317SOL     OW63842   0.941   5.894   3.130  0.1080  0.5995  0.3666
20317SOL    HW163843   0.900   5.965   3.081 -0.7948 -0.0764  0.1200
20317SOL    HW263844   0.894   5.891   3.213 -1.2227 -0.9481 -0.3764
20318SOL     OW63845   6.156   0.869   7.965  0.2527  0.1195 -0.0424
20318SOL    HW163846   6.136   0.784   7.924  0.5974 -1.2137  2.3343
20318SOL    HW263847   6.089   0.879   8.032  1.8096  0.3103  1.5692
20319SOL     OW63848   5.734   6.269   0.767 -0.0328  0.0002 -0.3029
20319SOL    HW163849   5.805   6.302   0.712 -2.0513  0.5409 -2.7793
20319SOL    HW263850   5.749   6.175   0.773  0.3715 -0.0352 -1.6235
20320SOL     OW63851   3.813   5.867   0.312  0.1080 -0.0657  0.4506
20320SOL    HW163852   3.775   5.953   0.331  0.7452  0.3226  0.0352
20320SOL    HW263853   3.750   5.804   0.346 -0.0467  0.5735  1.3906
20321SOL     OW63854   3.445   0.671   6.936 -0.1668 -0.7929  0.1724
20321SOL    HW163855   3.540   0.679   6.931 -0.3257  0.5137 -1.3730
20321SOL    HW263856   3.415   0.756   6.967 -0.8647 -0.9987  0.0698
20322SOL     OW63857   2.415   7.085   5.120  0.5370  0.8197  0.6618
20322SOL    HW163858   2.329   7.105   5.157  0.7804  1.7783  0.7350
20322SOL    HW263859   2.431   7.156   5.058  1.1100  0.4369  0.3675
20323SOL     OW63860   6.792   6.661   6.457  0.4282  0.5781  0.0377
20323SOL    HW163861   6.793   6.639   6.550  1.0105  1.0765  0.1530
20323SOL    HW263862   6.882   6.645   6.427  0.5043  1.4062 -0.2005
20324SOL     OW63863   3.562   3.420   8.939 -0.1790 -0.3126  0.1897
20324SOL    HW163864   3.558   3.354   9.008 -0.9535 -0.2509  0.2150
20324SOL    HW263865   3.541   3.372   8.859  1.3869 -0.5262 -0.1309
20325SOL     OW63866   0.827   1.970   6.812 -0.2053  0.1377  0.3317
20325SOL    HW163867   0.886   1.902   6.846  0.3343  0.5058  0.1316
20325SOL    HW263868   0.883   2.029   6.763 -0.9775 -0.4098 -1.2769
20326SOL     OW63869   0.292   6.109   7.793 -0.2664 -0.3303  0.0057
20326SOL    HW163870   0.261   6.200   7.795  0.3185 -0.1261  0.0870
20326SOL    HW263871   0.224   6.059   7.837 -0.8053  0.0041 -0.4270
20327SOL     OW63872   5.300   9.433   8.642  1.4783 -0.1742  0.1966
20327SOL    HW163873   5.276   9.367   8.707 -0.3623 -1.6090 -1.7805
20327SOL    HW263874   5.330   9.383   8.567  0.7334  1.2566 -1.1128
20328SOL     OW63875   1.774   2.037   4.633 -0.0413 -0.0484  0.1434
20328SOL    HW163876   1.833   2.059   4.705 -0.4965  0.3335  0.4086
20328SOL    HW263877   1.687   2.055   4.668 -0.2112  1.3391 -0.8899
20329SOL     OW63878   2.635   9.164   7.239 -0.0557  0.3727 -0.2243
20329SOL    HW163879   2.672   9.163   7.151 -1.1819 -0.9970 -0.7246
20329SOL    HW263880   2.707   9.192   7.295  1.2924 -0.6817 -1.3443
20330SOL     OW63881   9.000   1.997   4.302 -0.0925 -0.5368  1.0335
20330SOL    HW163882   9.000   2.058   4.376  0.5584  0.8245 -0.0217
20330SOL    HW263883   9.068   2.032   4.243  1.2549 -3.0535  0.9586
20331SOL     OW63884   5.054   8.837   8.230  0.2205  0.2953  0.4453
20331SOL    HW163885   5.122   8.898   8.256  1.1982 -0.7773  0.5045
20331SOL    HW263886   5.038   8.784   8.308 -2.0489  1.7196  1.0228
20332SOL     OW63887   4.194   7.900   5.114 -0.2336 -0.1195  0.4226
20332SOL    HW163888   4.159   7.812   5.130  2.0379 -0.8740  1.7141
20332SOL    HW263889   4.119   7.958   5.128 -1.6743 -1.7979  0.0498
20333SOL     OW63890   5.769   0.474   2.795  0.2008  0.2857 -0.7436
20333SOL    HW163891   5.697   0.535   2.808  0.7987  0.5381  2.0007
20333SOL    HW263892   5.843   0.513   2.842  1.3059 -1.3560 -1.0089
20334SOL     OW63893   7.224   1.108   3.511  0.0214 -0.5229 -0.1425
20334SOL    HW163894   7.301   1.096   3.567  0.7708 -4.6296 -1.6647
20334SOL    HW263895   7.259   1.145   3.430  0.3259 -1.5612 -0.5090
20335SOL     OW63896   4.205   1.447   1.228 -0.5072  0.2052  0.6294
20335SOL    HW163897   4.218   1.516   1.293 -1.0934  2.3511 -1.4110
20335SOL    HW263898   4.118   1.464   1.192 -0.2929 -1.0627 -0.5790
20336SOL     OW63899   6.096   8.683   2.060  0.3337 -0.2591 -0.0225
20336SOL    HW163900   6.050   8.702   2.141 -0.8362  0.4480 -0.8288
20336SOL    HW263901   6.043   8.616   2.017 -0.4421  1.1643 -1.3517
20337SOL     OW63902   9.373   5.522   7.710  0.4092 -0.7916  0.0869
20337SOL    HW163903   9.467   5.510   7.728  0.4719 -1.1329 -0.4436
20337SOL    HW263904   9.370   5.545   7.617  0.1952  2.1717  0.7171
20338SOL     OW63905   0.256   7.218   5.981 -0.0156  0.0605  0.0120
20338SOL    HW163906   0.182   7.226   5.921  0.1511  0.2729 -0.1656
20338SOL    HW263907   0.280   7.125   5.978 -0.0403  0.0621 -0.2114
20339SOL     OW63908   9.553   5.788   6.442 -0.2867  0.0400 -0.6976
20339SOL    HW163909   9.460   5.802   6.423 -0.9415  0.7421  2.4221
20339SOL    HW263910   9.585   5.874   6.469  0.7970 -0.5587 -0.0108
20340SOL     OW63911   8.932   2.185   4.826  0.7988 -0.2336 -0.5487
20340SOL    HW163912   8.896   2.177   4.914  0.1823 -0.9540 -0.8570
20340SOL    HW263913   8.939   2.279   4.811 -0.2914 -0.0851 -0.2064
20341SOL     OW63914   3.648   9.482   4.481  0.0019 -0.1306 -0.1924
20341SOL    HW163915   3.554   9.467   4.489 -0.0313  1.0193  3.2181
20341SOL    HW263916   3.683   9.400   4.445 -2.3116 -0.3365 -2.1712
20342SOL     OW63917   1.820   4.601   3.161 -0.4356  0.2866  0.6124
20342SOL    HW163918   1.861   4.685   3.140  1.8279 -1.0814 -0.8261
20342SOL    HW263919   1.758   4.585   3.090  0.3128  0.0262  0.0068
20343SOL     OW63920   5.314   1.905   2.860 -0.3140 -0.6125  0.0912
20343SOL    HW163921   5.394   1.859   2.885 -0.6393 -1.0506  0.3323
20343SOL    HW263922   5.243   1.843   2.876 -0.7623 -0.0379  0.4240
20344SOL     OW63923   1.684   6.298   5.766 -0.2439 -0.3198 -0.3597
20344SOL    HW163924   1.620   6.308   5.837  1.2847 -0.1382  1.0410
20344SOL    HW263925   1.697   6.203   5.759 -1.8039 -0.4855 -1.7635
20345SOL     OW63926   9.106   5.659   8.542 -0.1775 -0.4887  0.0613
20345SOL    HW163927   9.160   5.592   8.499 -0.1322 -0.5507  0.2117
20345SOL    HW263928   9.070   5.614   8.619 -0.9183 -0.6214 -0.3606
20346SOL     OW63929   2.036   0.627   6.285  0.2208 -0.5740 -0.5256
20346SOL    HW163930   2.026   0.619   6.190 -0.2751 -1.1759 -0.4253
20346SOL    HW263931   2.130   0.613   6.300  0.7269  1.6742 -1.1192
20347SOL     OW63932   3.195   9.331   5.360 -0.0623 -0.1835 -0.9465
20347SOL    HW163933   3.243   9.336   5.442 -0.7634 -1.9465 -0.4078
20347SOL    HW263934   3.197   9.239   5.335 -0.4098  0.2086 -2.5919
20348SOL     OW63935   9.297   1.797   6.236  0.0872  0.5060  0.1877
20348SOL    HW163936   9.373   1.750   6.203  1.4084  2.5196  0.2089
20348SOL    HW263937   9.234   1.794   6.164 -0.4638 -2.3814  0.6641
20349SOL     OW63938   3.845   0.338   3.873  0.0538 -0.0097  0.1713
20349SOL    HW163939   3.839   0.279   3.948 -0.0678  0.4907  0.5594
20349SOL    HW263940   3.843   0.280   3.797  2.7147 -0.7567  0.5625
20350SOL     OW63941   1.417   3.921   2.956  0.2822 -0.1565 -0.4194
20350SOL    HW163942   1.384   3.860   2.891 -1.6099  0.8800 -0.4827
20350SOL    HW263943   1.397   4.008   2.922 -0.2051  0.4357  1.2441
20351SOL     OW63944   8.120   7.752   1.637  0.2229 -0.4838 -0.4851
20351SOL    HW163945   8.069   7.833   1.646 -2.3148 -2.1441  1.7973
20351SOL    HW263946   8.192   7.762   1.699  1.1045  0.7494 -1.6525
20352SOL     OW63947   3.178   9.573   8.614  0.5568 -0.4977  0.0137
20352SOL    HW163948   3.247   9.552   8.552  0.0280  2.2337 -1.6992
20352SOL    HW263949   3.135   9.490   8.633  2.9867 -1.9333 -0.4667
20353SOL     OW63950   2.274   8.593   7.922 -0.0594 -0.0999  0.2982
20353SOL    HW163951   2.263   8.546   8.005 -0.5623 -2.2774 -0.9377
20353SOL    HW263952   2.357   8.560   7.887 -2.2561 -3.3621 -2.4759
20354SOL     OW63953   6.667   9.090   4.233 -0.0624  0.6919 -0.6081
20354SOL    HW163954   6.641   9.163   4.289 -0.9577 -0.0004 -0.0775
20354SOL    HW263955   6.616   9.102   4.153 -2.5002 -0.8909  0.5912
20355SOL     OW63956   4.728   3.453   3.740  0.0328  0.2016  0.2274
20355SOL    HW163957   4.668   3.518   3.703 -0.5333 -0.4753 -0.0621
20355SOL    HW263958   4.799   3.447   3.676  0.3179  0.8645  0.4775
20356SOL     OW63959   9.639   0.815   6.631  0.1806  0.5014  0.5506
20356SOL    HW163960   9.618   0.867   6.708  0.3527 -0.4660  1.2754
20356SOL    HW263961   9.621   0.873   6.557  0.8417  1.7351  1.3323
20357SOL     OW63962   1.997   6.203   2.495  0.1995  0.4174  0.5044
20357SOL    HW163963   2.092   6.202   2.485  0.0963  1.8089 -1.1065
20357SOL    HW263964   1.980   6.273   2.557  0.1773  1.0068 -0.1594
20358SOL     OW63965   9.524   3.336   5.236  0.1615 -0.0588 -0.0902
20358SOL    HW163966   9.585   3.379   5.295 -1.2282  2.1550 -0.1679
20358SOL    HW263967   9.472   3.407   5.199 -2.7030 -1.8304  0.2520
20359SOL     OW63968   4.370   3.150   1.981 -0.3709  0.0784 -0.0625
20359SOL    HW163969   4.420   3.225   2.013  0.9361 -0.3577 -0.9736
20359SOL    HW263970   4.324   3.117   2.058 -0.2409  1.2589  0.5393
20360SOL     OW63971   4.042   6.542   1.565  0.7088  0.1193  0.5793
20360SOL    HW163972   4.097   6.492   1.505  0.1348 -0.8099  0.8006
20360SOL    HW263973   4.104   6.595   1.617  1.5474 -1.8952  1.7463
20361SOL     OW63974   6.575   6.936   3.020  0.1823 -0.2865  0.4013
20361SOL    HW163975   6.534   6.977   3.096  1.1446  4.2128 -1.2414
20361SOL    HW263976   6.501   6.914   2.962 -0.3331 -0.6889  1.1883
20362SOL     OW63977   4.580   9.531   2.972  0.5735 -0.1988  0.0948
20362SOL    HW163978   4.512   9.487   3.023  1.3296 -1.0915  0.3668
20362SOL    HW263979   4.661   9.517   3.022  1.1030  0.1253 -0.6396
20363SOL     OW63980   6.426   6.006   9.622  0.4575  0.5736  0.2042
20363SOL    HW163981   6.332   5.989   9.631  0.5982 -0.0516  0.5131
20363SOL    HW263982   6.430   6.094   9.583 -0.2496  0.6797  0.3459
20364SOL     OW63983   5.424   9.447   1.384 -0.3675  0.8787  0.1827
20364SOL    HW163984   5.353   9.474   1.326  1.0715  1.1217 -1.5423
20364SOL    HW263985   5.501   9.495   1.352  0.5294  0.8685  2.1862
20365SOL     OW63986   0.861   9.366   1.920  0.5641  0.2733 -0.2457
20365SOL    HW163987   0.810   9.336   1.844 -1.1603  0.5761  0.7531
20365SOL    HW263988   0.932   9.417   1.881  0.3577 -0.4787 -1.7011
20366SOL     OW63989   2.501   0.061   7.423  0.2129 -0.2082  0.0451
20366SOL    HW163990   2.499   0.147   7.465  0.2922 -0.0392 -0.2906
20366SOL    HW263991   2.550   0.076   7.342 -0.0378 -0.5027 -0.1609
20367SOL     OW63992   5.353   4.695   6.625 -0.1047 -0.5686  0.2577
20367SOL    HW163993   5.428   4.679   6.683  0.6402 -1.7875 -0.9754
20367SOL    HW263994   5.387   4.679   6.537 -1.8121 -1.1287 -0.3401
20368SOL     OW63995   4.324   2.250   7.234  0.1363 -0.7940  0.1385
20368SOL    HW163996   4.360   2.168   7.200  0.7174 -0.3879 -0.2306
20368SOL    HW263997   4.321   2.237   7.328  0.4338 -1.1601  0.1015
20369SOL     OW63998   5.806   3.038   1.683  0.0677 -0.2355 -0.5054
20369SOL    HW163999   5.784   3.011   1.772 -2.1023 -2.6381 -1.6410
20369SOL    HW264000   5.750   3.113   1.666 -1.0730 -1.0713 -0.5115
20370SOL     OW64001   3.826   1.413   3.534 -0.1457 -0.6874 -0.0123
20370SOL    HW164002   3.740   1.371   3.534  0.2693 -1.6459 -1.9162
20370SOL    HW264003   3.854   1.412   3.626 -2.4351  0.3035  0.7602
20371SOL     OW64004   5.574   1.346   8.721  0.1608 -0.0346  0.3224
20371SOL    HW164005   5.638   1.287   8.761 -1.4361 -1.3670  1.0133
20371SOL    HW264006   5.510   1.288   8.679  0.6367  1.2918 -2.4418
20372SOL     OW64007   3.090   2.982   5.045 -0.1974  0.0948 -0.5021
20372SOL    HW164008   3.020   3.022   5.096 -0.3573  0.4041 -0.9559
20372SOL    HW264009   3.103   2.896   5.085 -2.2894 -0.8654 -1.6895
20373SOL     OW64010   2.928   7.900   2.066  0.5883  0.2179  0.1731
20373SOL    HW164011   2.843   7.869   2.034 -0.0880  0.9230  1.2342
20373SOL    HW264012   2.955   7.834   2.130 -0.2147  1.0946  1.4445
20374SOL     OW64013   9.224   3.713   0.537 -0.3002  0.3395 -0.0950
20374SOL    HW164014   9.213   3.631   0.490 -1.7030  0.6964 -0.4309
20374SOL    HW264015   9.210   3.781   0.471  2.0974  0.9015 -0.1133
20375SOL     OW64016   4.088   5.367   1.422 -0.4785 -0.0864 -0.0674
20375SOL    HW164017   4.036   5.436   1.461  0.0467 -0.0800  0.6399
20375SOL    HW264018   4.173   5.372   1.467 -0.6901 -1.7099  0.5818
20376SOL     OW64019   3.899   1.338   3.808  0.3570 -0.2017  0.0091
20376SOL    HW164020   3.868   1.282   3.879  0.2669 -0.5672 -0.3153
20376SOL    HW264021   3.896   1.427   3.844 -2.1050 -0.0809 -0.3130
20377SOL     OW64022   3.123   7.236   3.589 -0.3231 -0.4091  0.1378
20377SOL    HW164023   3.209   7.196   3.587  0.1269  0.4081  1.7321
20377SOL    HW264024   3.133   7.318   3.540 -0.3112 -0.5223 -0.0501
20378SOL     OW64025   3.292   0.638   6.704 -0.3370 -0.0629 -0.2651
20378SOL    HW164026   3.340   0.631   6.786 -0.6812  0.1831 -0.0376
20378SOL    HW264027   3.263   0.729   6.700  0.0367  0.0354 -0.8662
20379SOL     OW64028   8.637   3.917   5.682 -0.2035  0.4603  0.5368
20379SOL    HW164029   8.664   4.008   5.690  1.5077 -0.1091  1.7883
20379SOL    HW264030   8.595   3.897   5.766 -2.3862  0.6094 -0.4544
20380SOL     OW64031   1.957   2.259   5.165 -0.3794 -0.3057  0.1330
20380SOL    HW164032   1.868   2.272   5.195 -0.2546 -0.7700  0.7276
20380SOL    HW264033   1.979   2.339   5.118 -1.5469 -0.6815 -1.1288
20381SOL     OW64034   8.878   0.626   3.000 -0.2977  0.1016 -0.0892
20381SOL    HW164035   8.800   0.588   2.960  1.0189 -0.2317 -2.5283
20381SOL    HW264036   8.950   0.601   2.941  1.8402 -0.4623  2.5532
20382SOL     OW64037   3.549   5.541   5.593  0.1648  0.1842 -0.0268
20382SOL    HW164038   3.513   5.625   5.625 -1.5063  0.7723 -3.0905
20382SOL    HW264039   3.475   5.481   5.597  0.7130 -0.5030 -0.1417
20383SOL     OW64040   1.763   9.215   1.793  0.1936 -0.2097 -0.0465
20383SOL    HW164041   1.784   9.308   1.793 -1.3621  0.1850  1.3730
20383SOL    HW264042   1.797   9.182   1.876  0.9276 -0.9664 -0.6329
20384SOL     OW64043   7.140   5.654   1.286  0.1846 -0.3192  0.5054
20384SOL    HW164044   7.234   5.659   1.303  0.0503  0.3319  1.0750
20384SOL    HW264045   7.118   5.562   1.298  0.8126 -0.5362  0.0187
20385SOL     OW64046   3.008   2.478   9.588 -0.4302 -0.0615  0.0589
20385SOL    HW164047   3.025   2.520   9.672  0.0838 -1.0724  0.4804
20385SOL    HW264048   2.914   2.492   9.573 -1.2148 -2.2802  2.1987
20386SOL     OW64049   4.309   5.829   2.159 -0.0640  0.3646 -0.4464
20386SOL    HW164050   4.227   5.804   2.116  0.1670  0.0887 -0.7342
20386SOL    HW264051   4.354   5.884   2.095  0.5830 -0.5951 -0.8342
20387SOL     OW64052   4.868   2.688   5.539  0.1760  0.2861  0.3689
20387SOL    HW164053   4.913   2.604   5.533  0.3036  0.2441  1.7312
20387SOL    HW264054   4.905   2.730   5.616  1.0574  2.1895 -1.0287
20388SOL     OW64055   2.153   3.395   7.594  0.3464 -0.2232  0.1898
20388SOL    HW164056   2.128   3.317   7.645  2.7042 -0.9454  0.3375
20388SOL    HW264057   2.214   3.442   7.651  1.6460 -0.1183 -1.2440
20389SOL     OW64058   2.733   6.165   3.883  0.7651 -0.0710  0.5475
20389SOL    HW164059   2.709   6.257   3.880 -0.8342 -0.4692 -2.5541
20389SOL    HW264060   2.812   6.158   3.829  0.1209 -0.6717 -0.3456
20390SOL     OW64061   0.806   9.162   6.324  0.1108 -0.1069  0.5664
20390SOL    HW164062   0.742   9.162   6.395 -1.3568 -0.7559 -0.7060
20390SOL    HW264063   0.760   9.123   6.250  1.6773  0.3129 -0.6820
20391SOL     OW64064   5.323   9.253   4.524  0.2907  0.0576  0.0837
20391SOL    HW164065   5.399   9.302   4.492  0.8329 -0.9980 -0.2562
20391SOL    HW264066   5.340   9.162   4.499  0.7008 -0.8368  3.2597
20392SOL     OW64067   3.068   0.924   8.358  0.7441  0.0585  0.1307
20392SOL    HW164068   3.045   0.978   8.433 -1.0310 -1.2011  0.5592
20392SOL    HW264069   3.002   0.943   8.292  1.0089 -0.4357 -0.2931
20393SOL     OW64070   5.726   3.142   4.391  0.4120 -0.0177  0.0886
20393SOL    HW164071   5.689   3.200   4.458 -0.0430 -1.9365  1.5979
20393SOL    HW264072   5.820   3.145   4.406  0.5412  1.5026 -0.8813
20394SOL     OW64073   6.313   7.271   1.287  0.2763  0.5410 -0.1640
20394SOL    HW164074   6.242   7.331   1.309  0.5152 -0.2728  3.4232
20394SOL    HW264075   6.388   7.327   1.271 -0.1947  1.2716  0.1411
20395SOL     OW64076   0.906   9.092   9.426 -0.5119  0.1407  0.2555
20395SOL    HW164077   0.819   9.108   9.463 -0.2669 -2.2363  2.1872
20395SOL    HW264078   0.893   9.019   9.365 -0.0780  0.6415 -0.4451
20396SOL     OW64079   9.577   7.806   5.088  0.5411 -0.1419 -0.2349
20396SOL    HW164080   9.548   7.854   5.010  0.7722 -2.0250 -1.5702
20396SOL    HW264081   9.669   7.787   5.071  0.7104 -0.2075  0.7054
20397SOL     OW64082   9.143   2.405   7.674 -0.1632 -0.3109 -0.3699
20397SOL    HW164083   9.088   2.392   7.751 -2.0572 -0.6907 -1.7177
20397SOL    HW264084   9.224   2.444   7.708 -0.4705 -1.5036  1.9233
20398SOL     OW64085   7.690   8.024   1.597  0.1791  0.2009 -0.2131
20398SOL    HW164086   7.653   8.104   1.635 -1.3535 -0.4321 -0.3055
20398SOL    HW264087   7.624   7.957   1.614 -0.6262 -0.1462 -3.9643
20399SOL     OW64088   2.731   0.929   5.801  0.0929  0.3862 -0.3019
20399SOL    HW164089   2.664   0.873   5.841  0.5911 -1.3808 -1.8091
20399SOL    HW264090   2.682   0.986   5.742 -0.3378  1.0295  0.6505
20400SOL     OW64091   3.809   6.875   8.295 -0.1443 -0.5584 -0.0110
20400SOL    HW164092   3.778   6.889   8.384 -0.4259  2.7655 -0.5104
20400SOL    HW264093   3.896   6.914   8.293 -1.0275  1.5431 -1.6576
20401SOL     OW64094   2.017   7.571   2.655  0.0593  0.7060  0.4309
20401SOL    HW164095   2.110   7.584   2.674 -0.4139  2.6078  1.7905
20401SOL    HW264096   1.971   7.608   2.731 -1.8261 -2.2787  0.9410
20402SOL     OW64097   3.750   7.202   4.170  0.3743 -0.6632 -0.0416
20402SOL    HW164098   3.723   7.254   4.095 -1.3608 -2.3240 -0.6671
20402SOL    HW264099   3.845   7.211   4.174  0.7115 -1.5648 -3.3001
20403SOL     OW64100   5.466   5.354   7.693  0.1552 -0.0111 -0.2588
20403SOL    HW164101   5.526   5.366   7.620  1.3385 -0.4999  0.6120
20403SOL    HW264102   5.431   5.442   7.710 -0.5377  0.0351 -1.7065
20404SOL     OW64103   0.684   2.068   0.635  0.4784  0.2457 -0.2410
20404SOL    HW164104   0.722   2.125   0.568  1.6203  0.6481  0.7217
20404SOL    HW264105   0.754   2.053   0.697  0.1626 -2.1199 -0.3595
20405SOL     OW64106   9.286   5.757   6.352 -0.2946  0.1630  0.2807
20405SOL    HW164107   9.210   5.780   6.406 -0.9757  0.2932 -0.7259
20405SOL    HW264108   9.266   5.669   6.319 -0.0971  0.2746 -0.1421
20406SOL     OW64109   8.711   1.252   0.863 -0.1317 -0.1037 -0.1234
20406SOL    HW164110   8.767   1.269   0.938 -0.1407 -0.7088  0.0268
20406SOL    HW264111   8.732   1.162   0.837 -0.1862  0.0693 -0.7948
20407SOL     OW64112   4.871   6.375   7.151  0.1172 -0.7938  0.7763
20407SOL    HW164113   4.871   6.366   7.246  1.7320  0.4157  0.9369
20407SOL    HW264114   4.870   6.470   7.136  0.0568 -0.9713 -0.4173
20408SOL     OW64115   5.031   6.980   1.859  0.7110  0.2585 -0.4132
20408SOL    HW164116   5.116   7.023   1.867  0.5546  0.6526 -0.8406
20408SOL    HW264117   5.021   6.930   1.941  1.0682  0.7178 -0.0872
20409SOL     OW64118   0.695   4.333   7.728 -0.0414 -0.9773  0.2498
20409SOL    HW164119   0.760   4.370   7.669 -1.0731  1.5337  0.5592
20409SOL    HW264120   0.618   4.317   7.672 -0.8855  1.0377  0.7525
20410SOL     OW64121   8.801   5.625   5.368  0.7365 -0.0393  0.4751
20410SOL    HW164122   8.714   5.661   5.354  0.6807 -0.1391  0.5610
20410SOL    HW264123   8.828   5.658   5.454  0.8261  0.0753  0.4031
20411SOL     OW64124   5.672   0.435   0.246  0.3281  0.3832 -0.1153
20411SOL    HW164125   5.741   0.439   0.311 -0.5107  1.2533  0.7482
20411SOL    HW264126   5.607   0.500   0.274 -0.9746 -0.5805 -0.7389
20412SOL     OW64127   7.367   2.038   2.071 -0.6092  0.6102 -0.2006
20412SOL    HW164128   7.378   2.132   2.059 -2.2019  0.8221 -0.2562
20412SOL    HW264129   7.362   2.027   2.166 -0.4471  0.5882 -0.1950
20413SOL     OW64130   7.867   3.446   7.207 -0.4103 -0.4359 -0.1191
20413SOL    HW164131   7.947   3.483   7.245 -0.7650  1.5572 -1.1902
20413SOL    HW264132   7.797   3.482   7.260 -0.6929 -1.2276  0.0679
20414SOL     OW64133   6.549   2.043   5.648 -0.3154 -0.0552  0.3729
20414SOL    HW164134   6.569   2.034   5.555  0.2451  0.4261  0.4437
20414SOL    HW264135   6.454   2.034   5.653 -0.2836 -0.8127 -0.1567
20415SOL     OW64136   3.984   2.111   4.043  0.2406 -0.2451 -0.4942
20415SOL    HW164137   3.962   2.035   4.096  0.9595  0.2353  0.5166
20415SOL    HW264138   4.047   2.079   3.979 -0.5720 -0.8102 -1.0338
20416SOL     OW64139   5.423   1.297   2.366 -0.1625  0.6728  0.3217
20416SOL    HW164140   5.366   1.222   2.377 -0.7567  1.3599  2.3464
20416SOL    HW264141   5.472   1.279   2.285 -0.5776 -1.6565  0.5382
20417SOL     OW64142   1.075   3.917   0.071  0.1346  0.5660  0.1393
20417SOL    HW164143   1.139   3.850   0.097  0.1470 -0.4539 -2.2720
20417SOL    HW264144   1.126   3.984   0.026 -0.1464  1.1990  0.7437
20418SOL     OW64145   5.297   7.874   4.766  0.3875  0.5325 -0.3716
20418SOL    HW164146   5.345   7.955   4.784  2.1410 -1.1582  4.1155
20418SOL    HW264147   5.213   7.886   4.810  1.1020 -0.3364  1.3548
20419SOL     OW64148   9.560   6.290   8.968  0.1388  0.4454 -0.0221
20419SOL    HW164149   9.650   6.269   8.995  0.4520  0.1792 -1.2123
20419SOL    HW264150   9.514   6.207   8.971  0.2161  0.3857 -0.4485
20420SOL     OW64151   3.404   0.151   1.464 -0.3144 -0.1399  0.2164
20420SOL    HW164152   3.444   0.072   1.500  0.0053 -0.0434  0.0784
20420SOL    HW264153   3.312   0.129   1.453 -0.5396 -0.0111  1.5813
20421SOL     OW64154   0.604   4.982   1.635  0.0459 -0.2472  0.0194
20421SOL    HW164155   0.545   5.035   1.688  0.7082 -0.1378  0.6533
20421SOL    HW264156   0.689   4.988   1.679  0.7250  0.2318 -1.2992
20422SOL     OW64157   2.561   4.749   3.808 -0.4661 -0.2725  0.0316
20422SOL    HW164158   2.501   4.765   3.880 -1.1748 -1.5966 -0.2193
20422SOL    HW264159   2.631   4.812   3.820 -0.5533 -0.4799  1.8884
20423SOL     OW64160   4.791   5.570   7.281  0.1966 -0.0229  0.1123
20423SOL    HW164161   4.736   5.542   7.355 -0.9587  2.2486  0.2336
20423SOL    HW264162   4.778   5.665   7.278  3.2301  0.4512 -0.6584
20424SOL     OW64163   3.368   6.186   5.618 -0.5287  1.0246 -0.3329
20424SOL    HW164164   3.352   6.240   5.696  0.0497  0.9984 -0.1911
20424SOL    HW264165   3.386   6.249   5.548 -1.1215  1.0504 -0.4675
20425SOL     OW64166   4.159   7.343   7.084 -0.0933  0.7307 -0.1437
20425SOL    HW164167   4.113   7.262   7.061  0.2604  0.8443 -1.3570
20425SOL    HW264168   4.191   7.329   7.173 -1.4447  0.1838  0.2771
20426SOL     OW64169   2.401   1.854   7.822  0.2843 -0.1436 -0.4956
20426SOL    HW164170   2.431   1.944   7.820  0.3573 -0.1504  0.3471
20426SOL    HW264171   2.467   1.806   7.871  0.0556 -0.5882 -0.6079
20427SOL     OW64172   1.663   4.093   2.878 -0.2335  0.5179  0.6319
20427SOL    HW164173   1.675   4.020   2.816  0.3410  0.9772  0.1895
20427SOL    HW264174   1.572   4.122   2.863 -1.6804 -2.2250  3.1764
20428SOL     OW64175   5.627   6.857   4.609  0.1172 -0.1419  0.1654
20428SOL    HW164176   5.573   6.864   4.530 -0.4695  0.9564  0.6460
20428SOL    HW264177   5.564   6.843   4.680  0.5633 -0.0947  0.5736
20429SOL     OW64178   0.523   4.823   9.637 -0.4729 -0.7349 -0.1250
20429SOL    HW164179   0.505   4.731   9.620 -2.9059 -0.2448 -0.5167
20429SOL    HW264180   0.481   4.842   9.720  0.8595 -0.1807  0.4571
20430SOL     OW64181   1.987   0.053   7.655 -0.3509 -0.0689 -0.0143
20430SOL    HW164182   1.955  -0.027   7.613 -1.2144 -0.4187  1.2234
20430SOL    HW264183   2.013   0.025   7.743  1.3743  0.6334 -0.2631
20431SOL     OW64184   6.662   0.933   9.199  0.8421  0.3437 -0.1848
20431SOL    HW164185   6.616   0.930   9.115  0.4074  0.1146  0.0622
20431SOL    HW264186   6.671   1.027   9.218 -0.9256  0.4121  0.5249
20432SOL     OW64187   7.247   1.748   1.598 -0.3187 -0.6916  0.1131
20432SOL    HW164188   7.173   1.691   1.618 -2.0019  1.9065  2.0134
20432SOL    HW264189   7.271   1.786   1.683  0.4810  1.5778 -1.0390
20433SOL     OW64190   5.959   2.314   5.328  0.2925 -0.4226  0.1487
20433SOL    HW164191   6.024   2.353   5.269 -0.4303 -0.2256 -0.5305
20433SOL    HW264192   5.939   2.229   5.288  0.1022 -0.4662  0.3346
20434SOL     OW64193   3.628   8.421   1.185 -0.1216 -0.1566 -0.2710
20434SOL    HW164194   3.718   8.394   1.166  0.1714  0.2837  0.4719
20434SOL    HW264195   3.581   8.339   1.198 -0.0894 -0.4376 -1.7470
20435SOL     OW64196   4.455   2.171   6.329 -0.0546 -0.1934 -0.4372
20435SOL    HW164197   4.537   2.196   6.372  0.3980  0.8129 -1.7821
20435SOL    HW264198   4.482   2.113   6.258 -0.6166 -0.6075 -0.3174
20436SOL     OW64199   0.300   7.329   2.954 -0.2876 -0.6853 -0.0241
20436SOL    HW164200   0.227   7.335   3.015 -0.4071 -0.4454 -0.1876
20436SOL    HW264201   0.295   7.241   2.918 -0.8617 -0.4646 -0.4894
20437SOL     OW64202   7.465   3.322   7.757  0.1693  0.0117 -0.5109
20437SOL    HW164203   7.442   3.316   7.849  0.0483  1.6592 -0.4034
20437SOL    HW264204   7.488   3.232   7.732 -1.2202 -0.7381  0.7225
20438SOL     OW64205   0.116   2.070   2.374  0.3011 -0.0344 -0.7430
20438SOL    HW164206   0.115   2.118   2.290 -1.7581  0.1169 -0.6996
20438SOL    HW264207   0.065   1.991   2.356  1.3825 -0.8912 -0.0869
20439SOL     OW64208   2.408   9.296   2.307  0.1967 -0.3625 -0.3696
20439SOL    HW164209   2.404   9.279   2.401 -0.6091 -1.8340 -0.6521
20439SOL    HW264210   2.383   9.214   2.266 -0.9206  0.6660 -1.8637
20440SOL     OW64211   5.322   2.416   7.010 -0.0407  0.6029 -0.3158
20440SOL    HW164212   5.228   2.424   6.995 -0.3062 -0.6657  0.4419
20440SOL    HW264213   5.332   2.432   7.104  0.5794  1.2409 -0.4832
20441SOL     OW64214   3.979   5.002   6.674 -0.0659  0.4917  0.0060
20441SOL    HW164215   3.919   5.015   6.601 -2.2678 -0.7534  1.4753
20441SOL    HW264216   3.953   4.918   6.713  1.7262  0.5755  1.5743
20442SOL     OW64217   9.086   1.594   2.584  0.5702 -0.3364 -0.7116
20442SOL    HW164218   9.092   1.521   2.645 -0.7684 -0.3031 -0.5018
20442SOL    HW264219   8.996   1.589   2.551  0.1922  1.6740 -0.0928
20443SOL     OW64220   3.220   4.717   1.973  0.0135  0.7432 -0.4538
20443SOL    HW164221   3.149   4.659   1.999  0.3824  1.2625  1.9569
20443SOL    HW264222   3.183   4.772   1.904 -1.1028 -0.6527 -1.0128
20444SOL     OW64223   2.793   2.850   4.169  0.1370  0.0479  0.0991
20444SOL    HW164224   2.728   2.907   4.209  0.7996  0.0890  1.1529
20444SOL    HW264225   2.822   2.793   4.240  1.5778  0.3276 -0.2368
20445SOL     OW64226   8.483   2.368   8.394 -0.2158  0.1047  0.1311
20445SOL    HW164227   8.508   2.276   8.405 -0.1882  0.2318  1.2032
20445SOL    HW264228   8.390   2.370   8.418 -0.1666  0.3973  0.2901
20446SOL     OW64229   2.261   2.268   9.093 -0.0334  0.6925 -0.1807
20446SOL    HW164230   2.176   2.303   9.118  0.0919 -0.1240  1.5238
20446SOL    HW264231   2.249   2.173   9.095  1.3699  0.4962  1.9648
20447SOL     OW64232   1.504   9.534   4.491  0.0166 -0.2030  0.1618
20447SOL    HW164233   1.553   9.605   4.532 -0.1168 -1.0374  1.8181
20447SOL    HW264234   1.477   9.570   4.406  2.0664  0.8405 -0.1085
20448SOL     OW64235   7.228   6.319   6.166 -0.1944 -0.4333 -0.1900
20448SOL    HW164236   7.189   6.280   6.087 -1.7711 -1.1809  0.8871
20448SOL    HW264237   7.193   6.408   6.169  0.3750 -0.1888 -0.6548
20449SOL     OW64238   6.832   0.886   7.608 -0.3126 -0.8196 -0.0775
20449SOL    HW164239   6.820   0.827   7.683 -0.9111  0.1243  0.6037
20449SOL    HW264240   6.918   0.925   7.622  0.1004 -1.5451 -0.5490
20450SOL     OW64241   2.980   5.759   1.656  0.6158 -0.7135  0.0153
20450SOL    HW164242   3.056   5.751   1.598  0.4765 -0.3280 -0.2279
20450SOL    HW264243   2.907   5.728   1.603  0.6273 -1.2455  0.3077
20451SOL     OW64244   0.019   6.708   3.947 -0.0207 -0.2790  0.3379
20451SOL    HW164245   0.046   6.644   3.882 -3.2894 -1.6588  0.1322
20451SOL    HW264246  -0.002   6.656   4.025 -1.7225  0.5776  0.5159
20452SOL     OW64247   3.237   5.229   6.699 -0.4965 -0.0203 -0.1529
20452SOL    HW164248   3.197   5.202   6.616  0.7519 -1.1363 -0.4409
20452SOL    HW264249   3.164   5.256   6.754 -1.3094  1.4326 -1.8314
20453SOL     OW64250   3.101   3.446   1.938  0.4151 -0.1399  0.2749
20453SOL    HW164251   3.176   3.488   1.897  0.0750  0.1039 -0.1075
20453SOL    HW264252   3.052   3.517   1.979  1.9707 -0.6124  3.1892
20454SOL     OW64253   8.058   7.286   6.651 -0.0741  0.6305 -0.2226
20454SOL    HW164254   8.147   7.254   6.637 -0.1881  0.4659 -0.5947
20454SOL    HW264255   8.058   7.318   6.741 -0.4294 -2.0168  0.7894
20455SOL     OW64256   8.688   2.487   8.251  0.3678 -0.1036  0.2980
20455SOL    HW164257   8.614   2.440   8.290 -1.1364  0.8531 -1.2596
20455SOL    HW264258   8.648   2.554   8.196  2.2750 -1.6980 -3.3754
20456SOL     OW64259   4.854   3.575   1.087 -0.0463 -0.2746  0.1750
20456SOL    HW164260   4.888   3.656   1.050  0.9924 -0.1991  1.2127
20456SOL    HW264261   4.765   3.568   1.054  0.8494 -0.3184 -2.4478
20457SOL     OW64262   5.619   8.348   7.914  0.4662  0.6450  0.1510
20457SOL    HW164263   5.655   8.363   8.002  0.0154  1.3907  0.2185
20457SOL    HW264264   5.524   8.351   7.926  0.4000  1.3050 -0.4403
20458SOL     OW64265   3.109   2.941   9.586  0.2298  0.1938 -0.3209
20458SOL    HW164266   3.182   2.970   9.532 -0.1744 -0.2084 -1.1060
20458SOL    HW264267   3.067   2.872   9.534 -0.2070 -0.1587  0.4823
20459SOL     OW64268   6.987   1.709   5.186 -0.4215  0.4478 -0.5276
20459SOL    HW164269   7.015   1.649   5.116 -0.9737 -0.3861 -0.0605
20459SOL    HW264270   6.920   1.763   5.145 -0.5884  0.1099 -0.7061
20460SOL     OW64271   0.345   5.674   6.767 -0.8460  0.4641  0.3828
20460SOL    HW164272   0.332   5.759   6.810  1.1616  0.3767  1.2940
20460SOL    HW264273   0.339   5.610   6.839 -1.0974 -0.0490 -0.0877
20461SOL     OW64274   0.865   8.025   5.398 -0.3876  0.0486 -0.0904
20461SOL    HW164275   0.895   7.992   5.313  0.2318  1.4626 -0.4450
20461SOL    HW264276   0.929   7.990   5.460  0.9499  1.4737 -0.6080
20462SOL     OW64277   5.028   0.800   1.016 -0.9072  0.3957 -0.6751
20462SOL    HW164278   5.062   0.889   1.012 -2.7754  1.1630 -0.5197
20462SOL    HW264279   5.012   0.776   0.925 -0.1478  0.0969 -0.7364
20463SOL     OW64280   8.078   5.561   9.459 -0.6023 -0.1223 -0.4108
20463SOL    HW164281   8.054   5.594   9.546 -0.5152 -0.6638 -0.1811
20463SOL    HW264282   8.142   5.492   9.476  1.6611  1.7064 -1.0199
20464SOL     OW64283   5.866   2.675   2.886 -0.2947  0.4368  0.5127
20464SOL    HW164284   5.784   2.719   2.863  0.1977  0.5198 -1.1406
20464SOL    HW264285   5.908   2.734   2.948 -0.0879  1.8723 -0.9392
20465SOL     OW64286   0.064   5.758   3.692  0.2561 -0.3558 -0.4911
20465SOL    HW164287   0.027   5.679   3.653 -1.1835 -1.3548  2.5395
20465SOL    HW264288   0.144   5.728   3.736  0.0712 -0.0131  0.0973
20466SOL     OW64289   6.468   6.107   4.498  0.3319  0.6259  0.5150
20466SOL    HW164290   6.431   6.173   4.438  0.2792 -0.7915 -1.1116
20466SOL    HW264291   6.504   6.158   4.570  1.2315  2.5374 -1.1525
20467SOL     OW64292   8.234   4.654   2.325 -0.7116 -0.0711 -0.3398
20467SOL    HW164293   8.273   4.570   2.298 -1.2823 -0.3019 -0.4733
20467SOL    HW264294   8.257   4.663   2.417  0.6356  0.3634 -0.7061
20468SOL     OW64295   9.640   0.650   6.263  0.0847  0.2156  0.0096
20468SOL    HW164296   9.723   0.606   6.281  1.0253  0.9917 -2.0582
20468SOL    HW264297   9.665   0.739   6.238 -1.2729  0.2768 -1.3345
20469SOL     OW64298   7.080   0.699   3.161 -0.0980  0.0946  0.3696
20469SOL    HW164299   7.083   0.669   3.252  1.7920  1.3489  0.7708
20469SOL    HW264300   7.171   0.717   3.138 -0.5552  0.0255 -1.7212
20470SOL     OW64301   8.649   8.437   4.376 -0.2497 -0.5583  0.2661
20470SOL    HW164302   8.588   8.444   4.303  0.4101  1.2272 -0.1559
20470SOL    HW264303   8.600   8.391   4.444 -1.2597 -1.2071 -0.8735
20471SOL     OW64304   5.824   9.442   3.721 -0.3510  0.7521 -0.0062
20471SOL    HW164305   5.772   9.416   3.645  1.1535 -2.1814 -0.1666
20471SOL    HW264306   5.913   9.450   3.687  0.3752 -0.7703  1.3827
20472SOL     OW64307   8.606   0.717   0.074  0.2117  0.1322  0.6579
20472SOL    HW164308   8.576   0.802   0.040  0.2700  0.3073  1.0341
20472SOL    HW264309   8.526   0.665   0.083  0.3615 -0.5603 -1.4350
20473SOL     OW64310   2.450   1.446   4.674  0.7740  0.2441 -0.4408
20473SOL    HW164311   2.447   1.353   4.653  0.7678 -0.0032  0.5743
20473SOL    HW264312   2.458   1.448   4.770 -2.0883  1.3025 -0.1186
20474SOL     OW64313   1.413   2.007   2.165 -0.2973  0.2154 -0.1017
20474SOL    HW164314   1.365   2.040   2.090 -1.1317 -0.9778 -0.1273
20474SOL    HW264315   1.394   2.068   2.236  1.1706  1.8278 -1.0349
20475SOL     OW64316   4.284   5.151   9.423  0.0024 -0.0148  0.4226
20475SOL    HW164317   4.312   5.175   9.511  0.6708 -0.7100  0.4171
20475SOL    HW264318   4.366   5.146   9.373 -0.3032 -0.3270 -0.0542
20476SOL     OW64319   8.912   4.311   8.142 -0.3416 -0.4647 -0.3601
20476SOL    HW164320   8.825   4.277   8.122 -0.6764  0.7722 -1.1072
20476SOL    HW264321   8.960   4.305   8.059 -0.4219  0.8712 -0.5243
20477SOL     OW64322   9.549   9.260   6.829 -0.1641  0.4371  0.1468
20477SOL    HW164323   9.560   9.246   6.735 -0.3785 -1.3097  0.3362
20477SOL    HW264324   9.637   9.258   6.865 -0.1194  0.5419  0.0387
20478SOL     OW64325   5.011   6.768   2.131  0.5843 -0.1962 -0.0905
20478SOL    HW164326   4.916   6.769   2.147  0.3536  2.9217 -0.9048
20478SOL    HW264327   5.021   6.714   2.052 -1.0014  1.7103 -1.7421
20479SOL     OW64328   2.769   5.309   1.293 -0.3787  0.2266 -0.6084
20479SOL    HW164329   2.788   5.222   1.257 -0.7114 -0.4484  0.7992
20479SOL    HW264330   2.854   5.341   1.324 -0.0775  0.8393 -1.9769
20480SOL     OW64331   5.853   4.944   3.117 -0.4086 -0.6401  0.0278
20480SOL    HW164332   5.820   4.913   3.032  1.2216 -2.2745 -0.0645
20480SOL    HW264333   5.943   4.913   3.120  0.0262  0.6807  1.7544
20481SOL     OW64334   5.715   1.578   5.370 -0.2041  0.5099  1.0707
20481SOL    HW164335   5.622   1.571   5.394 -0.6109  1.6357 -0.0340
20481SOL    HW264336   5.713   1.611   5.280  1.2755 -0.3405  0.7001
20482SOL     OW64337   5.396   1.386   3.649  0.6960  0.5001 -0.4287
20482SOL    HW164338   5.471   1.441   3.671  1.2923 -0.0583 -1.0230
20482SOL    HW264339   5.403   1.311   3.708 -0.4407  1.3049  0.7804
20483SOL     OW64340   6.503   9.377   3.591 -0.2687 -0.1289  0.2655
20483SOL    HW164341   6.479   9.311   3.526 -1.8894 -1.2228  1.8829
20483SOL    HW264342   6.590   9.351   3.621  0.6813  0.6247 -1.6828
20484SOL     OW64343   4.568   3.278   4.035 -0.0243 -0.1071 -0.7451
20484SOL    HW164344   4.530   3.365   4.021 -1.3026 -0.9898 -3.5401
20484SOL    HW264345   4.564   3.265   4.130 -1.1243  2.2829 -0.3804
20485SOL     OW64346   4.854   0.706   3.502  0.0660 -0.1954 -0.4527
20485SOL    HW164347   4.761   0.726   3.488  0.3009 -0.2936 -2.3047
20485SOL    HW264348   4.866   0.619   3.464  1.3849  0.7514 -2.3169
20486SOL     OW64349   3.829   7.621   5.768  0.3050 -0.2200 -0.1036
20486SOL    HW164350   3.853   7.664   5.850 -1.3533  0.3496  0.1335
20486SOL    HW264351   3.848   7.685   5.700  0.1737 -0.0700  0.0006
20487SOL     OW64352   4.278   3.576   1.925  0.1157  0.4518  0.0211
20487SOL    HW164353   4.308   3.489   1.900 -0.2437  0.2013  0.4412
20487SOL    HW264354   4.189   3.562   1.959  0.9789  0.5434  2.5868
20488SOL     OW64355   2.238   7.796   4.104 -0.5109  0.8968 -0.1205
20488SOL    HW164356   2.308   7.783   4.168 -0.4605 -0.8501 -0.4857
20488SOL    HW264357   2.157   7.776   4.151 -0.4197 -1.1605 -0.7326
20489SOL     OW64358   9.389   2.906   2.022 -0.1534 -0.0680  0.0810
20489SOL    HW164359   9.481   2.890   2.046  1.2063  2.2339 -2.9722
20489SOL    HW264360   9.339   2.856   2.087  3.2074 -4.1580  0.0037
20490SOL     OW64361   6.180   1.029   4.775 -0.1256 -0.1444  0.2769
20490SOL    HW164362   6.119   1.080   4.721  0.6226 -1.6310 -2.0837
20490SOL    HW264363   6.244   1.093   4.806 -0.0696  0.6385 -1.3685
20491SOL     OW64364   3.051   1.533   6.332  0.4995 -0.2573  0.1271
20491SOL    HW164365   3.061   1.447   6.373 -0.8215 -0.0695  0.8819
20491SOL    HW264366   2.976   1.523   6.274 -0.4334  0.6997  1.1313
20492SOL     OW64367   7.368   8.437   4.530 -0.0742 -0.4003 -0.0861
20492SOL    HW164368   7.346   8.435   4.437 -0.5304 -0.6150  0.0239
20492SOL    HW264369   7.284   8.442   4.574  0.1601  0.4172  0.3018
20493SOL     OW64370   8.239   5.974   7.082  0.0632 -0.4379  0.0513
20493SOL    HW164371   8.283   5.901   7.125 -0.6766 -1.0026 -0.1348
20493SOL    HW264372   8.223   5.944   6.992 -0.9640 -0.3683  0.1932
20494SOL     OW64373   9.041   7.616   0.919  0.1654 -0.0790  0.1668
20494SOL    HW164374   8.979   7.661   0.976 -1.9292 -1.5379 -0.8170
20494SOL    HW264375   9.033   7.660   0.834 -0.1028 -0.7319 -0.1581
20495SOL     OW64376   4.725   5.099   0.613 -0.3074  0.7866  0.0855
20495SOL    HW164377   4.703   5.163   0.681  0.1609  2.2248 -1.0444
20495SOL    HW264378   4.664   5.119   0.541  0.7957  0.9547 -0.8369
20496SOL     OW64379   4.831   3.538   2.831  0.4419 -0.0654 -0.2400
20496SOL    HW164380   4.832   3.443   2.844  1.1489  0.1907  1.9419
20496SOL    HW264381   4.743   3.565   2.858 -0.1342 -0.1828 -1.8955
20497SOL     OW64382   3.857   6.752   0.699  0.0836  0.5902  0.0606
20497SOL    HW164383   3.892   6.815   0.636 -0.4695  0.7474 -0.0977
20497SOL    HW264384   3.867   6.667   0.657  1.1648  0.5223  0.4229
20498SOL     OW64385   0.585   0.576   2.586  0.0621  0.5098  0.5295
20498SOL    HW164386   0.566   0.669   2.597 -0.2891  0.3659  1.2184
20498SOL    HW264387   0.637   0.554   2.664 -0.7026 -0.0898  0.8805
20499SOL     OW64388   6.420   5.688   1.824  0.0856  0.0907 -0.1483
20499SOL    HW164389   6.362   5.748   1.871 -0.6971 -0.9069  0.2149
20499SOL    HW264390   6.487   5.744   1.785  0.9343  0.9854  2.3598
20500SOL     OW64391   0.738   4.265   9.226 -0.1893  0.0762 -0.0978
20500SOL    HW164392   0.654   4.266   9.180 -0.3291  1.8993  0.1257
20500SOL    HW264393   0.716   4.245   9.317 -0.4820  1.1498  0.0830
20501SOL     OW64394   2.091   7.326   1.919  0.0085  0.0236 -0.1137
20501SOL    HW164395   2.030   7.314   1.846 -0.5385  1.0229  0.1633
20501SOL    HW264396   2.173   7.352   1.878 -0.7335  2.1825 -0.3095
20502SOL     OW64397   3.692   0.968   6.804  0.5596 -0.4384  0.0750
20502SOL    HW164398   3.739   0.913   6.866 -0.4644 -0.3973  0.9029
20502SOL    HW264399   3.653   0.907   6.742  0.6422 -0.5537  0.1378
20503SOL     OW64400   8.777   4.377   9.171  0.5221  0.2873 -0.1085
20503SOL    HW164401   8.835   4.451   9.193 -0.5396  1.4877 -1.1992
20503SOL    HW264402   8.777   4.374   9.076 -1.6494  0.7293 -0.1788
20504SOL     OW64403   7.188   5.077   3.856  0.3301  0.2064  0.0790
20504SOL    HW164404   7.191   5.059   3.950  0.0215  0.1287  0.0767
20504SOL    HW264405   7.142   5.001   3.819  0.7663  0.0669 -0.1775
20505SOL     OW64406   3.735   4.213   8.514 -0.1675  0.3553 -0.1452
20505SOL    HW164407   3.783   4.285   8.553 -1.2482  0.8652  0.2925
20505SOL    HW264408   3.739   4.230   8.419  2.6181 -0.9935 -0.3465
20506SOL     OW64409   2.864   6.432   2.886  0.6906  0.4651  0.2311
20506SOL    HW164410   2.772   6.414   2.868  0.5683  0.0652  1.2110
20506SOL    HW264411   2.866   6.523   2.916  0.3779  0.0067  1.7256
20507SOL     OW64412   7.742   0.797   5.022  0.9064  0.1702  0.3411
20507SOL    HW164413   7.685   0.868   5.050 -0.5139 -1.6795  2.4711
20507SOL    HW264414   7.823   0.840   4.995 -0.3030  2.6421  0.4674
20508SOL     OW64415   5.867   9.249   7.891 -0.5378  0.7959 -0.0812
20508SOL    HW164416   5.869   9.177   7.828  1.2160  0.9573 -0.2586
20508SOL    HW264417   5.814   9.317   7.849  0.0222  0.6291 -1.0904
20509SOL     OW64418   7.858   3.829   9.057  0.1833 -0.6221 -0.0362
20509SOL    HW164419   7.920   3.760   9.035  0.5514 -0.2563 -0.1463
20509SOL    HW264420   7.908   3.910   9.050 -0.4129 -0.2859 -0.5421
20510SOL     OW64421   8.615   7.069   3.406 -0.1319  0.2144 -0.1855
20510SOL    HW164422   8.654   7.144   3.452 -0.7659  0.4318  0.0074
20510SOL    HW264423   8.675   6.997   3.423  0.0380  0.4760  0.3486
20511SOL     OW64424   0.371   8.854   5.340 -0.1130  0.8892 -0.4165
20511SOL    HW164425   0.419   8.857   5.257 -0.0940 -1.4990 -0.5713
20511SOL    HW264426   0.438   8.871   5.406  0.2782  0.8148 -0.7878
20512SOL     OW64427   3.054   2.595   8.759 -0.1445 -0.5511 -0.4009
20512SOL    HW164428   3.051   2.618   8.852  0.5216  0.6731 -0.6555
20512SOL    HW264429   3.140   2.556   8.746  0.9776  1.9076 -1.0132
20513SOL     OW64430   7.399   7.486   8.351  0.1369 -0.5578 -0.1176
20513SOL    HW164431   7.475   7.428   8.346  0.2735 -0.4086  0.2159
20513SOL    HW264432   7.345   7.461   8.276  0.3136 -0.9483 -0.1151
20514SOL     OW64433   5.548   8.009   0.964  0.0391 -0.4303 -0.2545
20514SOL    HW164434   5.592   8.010   1.049 -1.7003 -0.6779  0.6934
20514SOL    HW264435   5.466   7.964   0.980 -1.4493  1.6556 -1.4692
20515SOL     OW64436   8.017   6.351   5.095 -0.1715 -0.0814  0.5547
20515SOL    HW164437   8.082   6.353   5.165  2.4356  0.1270 -1.7316
20515SOL    HW264438   7.992   6.443   5.083  0.3258  0.0254  0.3518
20516SOL     OW64439   5.162   1.414   5.588 -0.1073 -0.0394 -0.1274
20516SOL    HW164440   5.102   1.391   5.660 -0.0451  1.1922  0.3401
20516SOL    HW264441   5.199   1.498   5.614  0.7780 -0.1194 -1.0831
20517SOL     OW64442   4.949   4.080   2.599 -0.0220 -0.1421 -0.2374
20517SOL    HW164443   4.886   4.042   2.537 -0.5780 -1.7243  1.2132
20517SOL    HW264444   5.016   4.118   2.543 -0.7755 -1.0009 -1.8313
20518SOL     OW64445   1.633   0.708   8.295  0.3387 -0.3010 -0.2727
20518SOL    HW164446   1.551   0.738   8.334 -0.5305 -1.3664 -1.2344
20518SOL    HW264447   1.614   0.702   8.201  1.8167  0.3749 -0.6512
20519SOL     OW64448   4.105   4.365   1.305  0.4769 -0.4474 -0.0544
20519SOL    HW164449   4.092   4.270   1.304 -0.3664 -0.3463  0.2869
20519SOL    HW264450   4.186   4.379   1.256  0.3871 -1.3112 -0.4686
20520SOL     OW64451   0.633   1.813   5.391  0.1411 -0.4188  0.8460
20520SOL    HW164452   0.699   1.848   5.332  0.0585 -0.6968  0.5840
20520SOL    HW264453   0.618   1.723   5.360 -0.5831 -0.2566  0.7004
20521SOL     OW64454   8.197   8.725   2.662  0.1735  0.7257  0.4378
20521SOL    HW164455   8.152   8.640   2.666 -1.0380  1.2383 -1.0766
20521SOL    HW264456   8.276   8.713   2.713 -0.0530 -1.2781  0.3900
20522SOL     OW64457   4.660   5.493   5.308  0.5436  0.2946  0.5722
20522SOL    HW164458   4.701   5.486   5.394  2.1298 -1.2027 -0.2261
20522SOL    HW264459   4.734   5.505   5.248 -0.5140  1.1592 -0.5990
20523SOL     OW64460   3.659   3.274   5.600  0.4350  0.0566 -0.5175
20523SOL    HW164461   3.679   3.249   5.510  3.8822 -3.1031  0.8801
20523SOL    HW264462   3.742   3.306   5.635  0.6419 -3.3860  2.7527
20524SOL     OW64463   4.957   4.063   6.914  0.3772 -1.0427  0.0093
20524SOL    HW164464   5.004   4.129   6.965 -0.1001 -0.5035 -0.2370
20524SOL    HW264465   4.864   4.081   6.929  0.2313 -1.1090 -0.7356
20525SOL     OW64466   4.526   2.233   2.981 -0.2032 -0.4374  0.0092
20525SOL    HW164467   4.618   2.235   2.955 -0.6260  3.5253 -2.1030
20525SOL    HW264468   4.497   2.145   2.959  2.7097 -1.3352 -0.7177
20526SOL     OW64469   8.919   1.781   2.185  0.0671 -0.2494  0.0400
20526SOL    HW164470   8.865   1.804   2.109  0.5624  2.1162  0.3050
20526SOL    HW264471   8.966   1.703   2.159 -0.8963 -0.3436 -1.5201
20527SOL     OW64472   6.404   3.515   6.156  0.3597 -0.4136 -0.6872
20527SOL    HW164473   6.357   3.501   6.073  2.8301 -0.1297 -2.2433
20527SOL    HW264474   6.452   3.433   6.169  0.1100 -0.3907  0.3960
20528SOL     OW64475   1.455   0.317   0.478 -0.4974  0.0592  0.3072
20528SOL    HW164476   1.450   0.223   0.493 -1.8404  0.1617  0.6496
20528SOL    HW264477   1.543   0.332   0.445  0.0761 -1.1795  1.2216
20529SOL     OW64478   1.170   7.134   4.396 -0.2953  0.5588  0.2651
20529SOL    HW164479   1.092   7.182   4.368 -0.1986  0.8109  0.4176
20529SOL    HW264480   1.144   7.092   4.478  0.2131  2.0094  1.2238
20530SOL     OW64481   5.241   6.712   4.253  0.0125 -0.2183 -0.1532
20530SOL    HW164482   5.177   6.753   4.311  0.1702 -0.1495 -0.0262
20530SOL    HW264483   5.224   6.618   4.261 -1.1443 -0.1391 -1.3551
20531SOL     OW64484   0.423   6.183   5.301 -0.4908  0.2106 -0.1564
20531SOL    HW164485   0.375   6.163   5.220 -1.2063  1.2546 -0.0039
20531SOL    HW264486   0.512   6.152   5.284 -0.2912  1.5717 -1.8449
20532SOL     OW64487   0.116   5.675   9.414 -0.1882 -0.7955 -0.1759
20532SOL    HW164488   0.105   5.583   9.440 -0.7021 -0.6538  0.1077
20532SOL    HW264489   0.205   5.679   9.380  0.0822 -1.2469  0.4565
20533SOL     OW64490   5.602   6.692   5.287 -0.1651  0.0568  0.2011
20533SOL    HW164491   5.539   6.759   5.312 -0.4405  0.2514 -0.9692
20533SOL    HW264492   5.617   6.706   5.194 -0.3932 -1.6343 -0.1198
20534SOL     OW64493   8.182   1.435   2.143  0.0325 -0.0828 -0.2439
20534SOL    HW164494   8.262   1.488   2.143 -0.1152  0.1503  0.5795
20534SOL    HW264495   8.125   1.478   2.079 -0.6692  1.6890  1.4634
20535SOL     OW64496   3.828   4.645   3.651 -0.1325 -0.0221  0.3248
20535SOL    HW164497   3.855   4.737   3.652 -0.5492  0.1263  2.0885
20535SOL    HW264498   3.743   4.645   3.606  0.1994  0.3520 -0.3007
20536SOL     OW64499   8.570   2.768   0.040  0.2059  0.1954  0.1531
20536SOL    HW164500   8.540   2.819  -0.036  0.8326 -0.7678 -0.7697
20536SOL    HW264501   8.540   2.818   0.116 -1.2701  0.6987 -0.7218
20537SOL     OW64502   6.339   2.984   5.754 -0.0593 -0.0479 -0.0994
20537SOL    HW164503   6.255   2.962   5.714 -0.0537  1.1338 -0.8053
20537SOL    HW264504   6.386   3.033   5.686  1.3186 -0.9292  0.1862
20538SOL     OW64505   5.983   3.461   4.414  0.1869 -0.4742  0.0047
20538SOL    HW164506   6.073   3.429   4.419  0.2983 -0.0631  0.7590
20538SOL    HW264507   5.938   3.416   4.486  0.0817  0.2317  0.3849
20539SOL     OW64508   6.720   2.092   0.425 -0.2305 -0.0114 -0.4923
20539SOL    HW164509   6.790   2.145   0.387 -0.0373  2.4435  2.8701
20539SOL    HW264510   6.766   2.022   0.472  0.0181  1.0460  0.9157
20540SOL     OW64511   4.443   5.926   8.215  0.2865  0.0773 -0.2829
20540SOL    HW164512   4.440   5.921   8.119  2.1239 -0.1797 -0.3610
20540SOL    HW264513   4.494   6.005   8.233 -3.5557  2.6058  0.6120
20541SOL     OW64514   1.575   1.245   8.929 -0.1045 -0.4496  0.0926
20541SOL    HW164515   1.499   1.189   8.946  1.7846 -3.3603 -0.3304
20541SOL    HW264516   1.597   1.282   9.014  0.2268 -2.6923  1.0627
20542SOL     OW64517   4.269   5.449   7.450  0.2700  0.4006  0.0833
20542SOL    HW164518   4.211   5.428   7.376  1.5256 -0.0216 -0.8200
20542SOL    HW264519   4.238   5.392   7.521  0.5591 -1.0084 -0.8629
20543SOL     OW64520   7.394   8.534   3.667 -0.5222 -0.1545 -0.3549
20543SOL    HW164521   7.344   8.615   3.657  0.0127  0.2767  0.3889
20543SOL    HW264522   7.483   8.557   3.640 -0.0193 -0.0753  1.2869
20544SOL     OW64523   1.725   0.279   2.919 -0.0049 -0.9065 -0.2552
20544SOL    HW164524   1.701   0.291   2.827  1.6727 -0.3763 -0.6672
20544SOL    HW264525   1.815   0.248   2.916  0.1406 -0.6864  1.2156
20545SOL     OW64526   4.394   7.384   0.635  0.3421 -0.2799 -0.2182
20545SOL    HW164527   4.486   7.358   0.631  0.3822 -0.3832  0.8815
20545SOL    HW264528   4.350   7.310   0.677 -0.3979 -0.5669 -1.4539
20546SOL     OW64529   7.225   8.955   6.028 -0.2709  0.2718 -0.0053
20546SOL    HW164530   7.248   8.990   5.941 -0.6051  0.3719 -0.0551
20546SOL    HW264531   7.308   8.924   6.064 -0.2480 -0.4626 -0.6706
20547SOL     OW64532   5.258   8.398   3.190  0.6359  0.4583 -0.0889
20547SOL    HW164533   5.271   8.493   3.191  1.0626  0.4420 -1.5717
20547SOL    HW264534   5.326   8.366   3.131 -0.8465 -0.5271 -1.3404
20548SOL     OW64535   5.369   0.879   4.110 -0.4659 -0.3466 -0.1957
20548SOL    HW164536   5.397   0.881   4.202 -0.0416  1.9007 -0.3101
20548SOL    HW264537   5.446   0.907   4.061 -1.1594  0.0811 -1.0735
20549SOL     OW64538   9.309   4.278   1.016  0.1258 -0.2601  0.3517
20549SOL    HW164539   9.333   4.195   1.057  1.2626  0.6232  1.5503
20549SOL    HW264540   9.264   4.326   1.085 -1.0639 -0.0830 -0.5127
20550SOL     OW64541   4.538   1.559   7.950 -0.0069  0.0694 -0.1630
20550SOL    HW164542   4.540   1.636   8.007 -0.4558  1.2726 -1.6698
20550SOL    HW264543   4.628   1.529   7.947  0.2240  0.6907  0.2781
20551SOL     OW64544   6.148   2.373   7.151 -0.0999  0.6530  0.0181
20551SOL    HW164545   6.067   2.422   7.161 -0.2835  0.4854 -0.6266
20551SOL    HW264546   6.164   2.335   7.237  0.4158  2.4068  0.7363
20552SOL     OW64547   7.014   1.478   7.820 -0.0968 -0.2506 -0.0531
20552SOL    HW164548   7.094   1.505   7.865 -0.9234  1.2506  0.6050
20552SOL    HW264549   6.958   1.556   7.824 -1.3598 -1.0830 -1.0158
20553SOL     OW64550   1.690   5.377   7.300 -0.2041 -0.0406 -0.2793
20553SOL    HW164551   1.716   5.463   7.269 -0.5978 -0.1951 -1.0761
20553SOL    HW264552   1.756   5.353   7.364  0.9826  0.0501 -1.4163
20554SOL     OW64553   5.091   0.961   2.155 -0.1555 -0.5187  0.6100
20554SOL    HW164554   5.066   0.905   2.081  1.8367 -0.0930 -0.4800
20554SOL    HW264555   5.009   0.996   2.188 -1.1038  0.4206 -2.3733
20555SOL     OW64556   8.815   1.566   3.128 -0.2082  0.6574  0.4221
20555SOL    HW164557   8.899   1.542   3.164 -0.8182  0.0418  1.4691
20555SOL    HW264558   8.751   1.521   3.183 -1.1872 -0.1207 -1.2486
20556SOL     OW64559   9.171   7.338   4.411  0.0449  0.3516 -0.2636
20556SOL    HW164560   9.227   7.406   4.372  0.9712 -0.1524  0.1410
20556SOL    HW264561   9.126   7.382   4.483  1.1820  0.3919  0.4537
20557SOL     OW64562   1.616   8.801   8.058  0.6255  0.5174 -0.1561
20557SOL    HW164563   1.678   8.757   8.000  2.3337  1.3233  0.9956
20557SOL    HW264564   1.534   8.802   8.009  0.8825 -2.5269 -0.8706
20558SOL     OW64565   2.094   5.165   1.263  0.0395 -0.3795 -0.2092
20558SOL    HW164566   2.006   5.134   1.240  0.5546 -2.5036  0.4299
20558SOL    HW264567   2.114   5.121   1.345  0.8919  1.7919  0.8238
20559SOL     OW64568   0.065   4.349   2.510  0.1498  0.8285 -0.1412
20559SOL    HW164569   0.135   4.287   2.530 -0.8049  0.2199  1.4980
20559SOL    HW264570   0.082   4.424   2.567 -1.5853 -0.1574  1.7943
20560SOL     OW64571   4.364   0.102   0.570  0.4993 -0.1773 -0.5256
20560SOL    HW164572   4.291   0.164   0.561 -1.7845 -2.2118  2.0602
20560SOL    HW264573   4.328   0.019   0.540  1.0957 -1.5875  2.3106
20561SOL     OW64574   4.620   8.677   7.621  0.2971 -0.0080  0.1763
20561SOL    HW164575   4.581   8.725   7.548  0.1113 -0.7978 -0.2473
20561SOL    HW264576   4.703   8.723   7.637  0.6583 -0.2256 -0.9665
20562SOL     OW64577   1.407   0.701   4.591 -0.9852 -0.2611 -0.1507
20562SOL    HW164578   1.389   0.702   4.497 -0.7301  1.3827 -0.2110
20562SOL    HW264579   1.459   0.780   4.606 -2.9256  0.7655  1.7209
20563SOL     OW64580   5.923   7.263   2.768  0.1487 -0.2704  0.4256
20563SOL    HW164581   5.961   7.328   2.827 -0.3396  0.5101 -0.0962
20563SOL    HW264582   5.978   7.186   2.778 -0.0540 -0.2338  2.0654
20564SOL     OW64583   0.741   5.723   1.505 -0.6678 -0.1663 -0.2213
20564SOL    HW164584   0.646   5.730   1.495 -0.5799  1.1091 -0.3752
20564SOL    HW264585   0.755   5.633   1.535 -1.9396 -0.3012  0.0553
20565SOL     OW64586   2.380   6.882   5.767 -0.4803 -0.3236 -0.3333
20565SOL    HW164587   2.368   6.812   5.703 -2.3652  0.1507 -0.5836
20565SOL    HW264588   2.456   6.931   5.736 -0.8911 -0.5585 -1.7903
20566SOL     OW64589   8.258   8.020   7.781  0.6927 -0.6230 -0.1224
20566SOL    HW164590   8.340   7.974   7.793  1.2744  0.3767 -0.1568
20566SOL    HW264591   8.259   8.048   7.689  0.7111  0.1259  0.0988
20567SOL     OW64592   7.841   9.314   8.652  0.3372 -0.3751  0.3899
20567SOL    HW164593   7.831   9.225   8.617  0.2843 -0.6560  1.1050
20567SOL    HW264594   7.887   9.302   8.735 -0.7191  0.1511  1.0762
20568SOL     OW64595   9.369   7.300   5.999 -0.0149  0.2990 -0.8650
20568SOL    HW164596   9.291   7.245   6.010 -0.9066  1.4492 -1.1102
20568SOL    HW264597   9.433   7.264   6.061 -1.2292  0.1628  0.3797
20569SOL     OW64598   0.524   7.722   3.319 -0.4479 -0.0896  0.0150
20569SOL    HW164599   0.518   7.817   3.309  1.1391 -0.0670 -1.1048
20569SOL    HW264600   0.479   7.688   3.241  1.0384 -0.1706 -0.8497
20570SOL     OW64601   4.832   8.130   0.270 -0.0560  0.3406 -0.4912
20570SOL    HW164602   4.791   8.207   0.309  0.1157 -0.1025  0.5834
20570SOL    HW264603   4.761   8.087   0.221 -0.3723  0.6679 -0.3235
20571SOL     OW64604   0.703   1.543   9.403 -0.1150  0.3862 -0.0964
20571SOL    HW164605   0.684   1.583   9.488  0.6578  1.5543 -0.4574
20571SOL    HW264606   0.726   1.616   9.346  1.3110 -0.5436 -0.7913
20572SOL     OW64607   1.941   0.353   7.738 -0.5914  0.3072 -0.3413
20572SOL    HW164608   1.847   0.371   7.729 -1.1908 -1.9448  0.6111
20572SOL    HW264609   1.950   0.262   7.711  0.6404 -0.7470  3.0797
20573SOL     OW64610   4.516   5.971   6.655  0.1664 -0.0465 -0.3604
20573SOL    HW164611   4.450   5.969   6.586 -0.6914 -0.3135  0.4430
20573SOL    HW264612   4.596   5.937   6.614  0.1348  1.3569 -1.6650
20574SOL     OW64613   0.807   7.079   4.788 -0.2165  0.2830 -0.2132
20574SOL    HW164614   0.864   7.024   4.841 -0.2987  2.3827  2.2191
20574SOL    HW264615   0.721   7.036   4.791  0.1949 -0.5245 -0.0735
20575SOL     OW64616   4.828   3.313   0.641  0.0027 -0.0023 -0.4365
20575SOL    HW164617   4.792   3.272   0.563 -1.4475  1.7307 -0.7274
20575SOL    HW264618   4.753   3.351   0.686  1.2982  3.3024 -0.7945
20576SOL     OW64619   8.361   0.244   7.976 -0.0253  0.2121 -0.3815
20576SOL    HW164620   8.415   0.170   7.948 -0.9172 -0.2527 -0.9307
20576SOL    HW264621   8.301   0.207   8.040  0.4887  0.7891  0.4498
20577SOL     OW64622   0.674   8.289   4.071  0.1535  0.3436  0.0469
20577SOL    HW164623   0.664   8.212   4.127 -0.7926  0.2918 -0.1778
20577SOL    HW264624   0.610   8.276   4.001  1.6240  0.1838 -1.3150
20578SOL     OW64625   7.213   2.919   4.374 -0.2051  0.2446 -0.0415
20578SOL    HW164626   7.174   2.966   4.448 -0.2148 -0.7159  0.5772
20578SOL    HW264627   7.305   2.911   4.397  0.5150  2.7822 -1.6404
20579SOL     OW64628   0.356   4.299   3.474 -0.1128 -0.3766  0.1910
20579SOL    HW164629   0.343   4.359   3.547  1.3390  0.3615 -0.1351
20579SOL    HW264630   0.268   4.288   3.437 -0.8323 -0.5595  1.8567
20580SOL     OW64631   4.875   0.476   7.264  0.1211 -0.2760  0.5285
20580SOL    HW164632   4.917   0.446   7.345 -1.2597  0.3434  1.4970
20580SOL    HW264633   4.828   0.555   7.289  0.4781  0.4895 -1.1142
20581SOL     OW64634   3.849   8.662   8.024 -0.5245  0.0809  0.3537
20581SOL    HW164635   3.841   8.578   7.977 -2.1268  0.1901  0.3852
20581SOL    HW264636   3.794   8.722   7.974  2.0032  1.6521 -0.7374
20582SOL     OW64637   7.928   1.649   5.189  0.6093 -0.4391 -0.5054
20582SOL    HW164638   7.946   1.739   5.162  0.5881 -0.5524 -0.9086
20582SOL    HW264639   7.837   1.651   5.221  0.9106 -0.1265  0.3660
20583SOL     OW64640   6.378   4.894   5.799 -0.4438  0.0533  0.2028
20583SOL    HW164641   6.345   4.846   5.723  0.9988 -0.8589  0.1160
20583SOL    HW264642   6.339   4.850   5.875  1.3897 -1.7909  0.1660
20584SOL     OW64643   3.657   2.349   7.878 -0.1721 -0.1709  0.0617
20584SOL    HW164644   3.667   2.400   7.798 -2.1683 -0.0071 -0.1313
20584SOL    HW264645   3.608   2.271   7.851  0.0855 -0.6451  0.9185
20585SOL     OW64646   5.306   6.067   5.320 -0.5133  0.0778  0.0607
20585SOL    HW164647   5.395   6.032   5.308  0.0337  1.3214  0.3292
20585SOL    HW264648   5.268   6.067   5.232  0.7850  2.1420 -0.5704
20586SOL     OW64649   5.920   6.046   7.564 -0.9662 -0.0295 -0.7065
20586SOL    HW164650   5.945   6.095   7.486 -0.3814 -2.1679 -1.9403
20586SOL    HW264651   5.848   5.990   7.536 -1.6497  0.1095  0.6678
20587SOL     OW64652   0.430   4.080   5.384 -0.7014 -0.5883 -0.0599
20587SOL    HW164653   0.361   4.106   5.323  1.1063 -2.1607 -3.0266
20587SOL    HW264654   0.511   4.113   5.344  0.5403 -0.8674  2.0488
20588SOL     OW64655   8.796   3.067   1.035  0.4189  0.1953 -0.3806
20588SOL    HW164656   8.787   2.983   0.989  0.0042  0.7685 -1.3799
20588SOL    HW264657   8.706   3.099   1.043  0.6093  0.7422 -0.3951
20589SOL     OW64658   0.403   7.136   3.193  0.9113  0.4013 -0.0435
20589SOL    HW164659   0.425   7.222   3.229  1.3088 -0.0788  0.8879
20589SOL    HW264660   0.463   7.125   3.120  2.0676  0.1954  0.9027
20590SOL     OW64661   4.966   1.282   9.298  0.2881  0.3760 -0.2226
20590SOL    HW164662   4.877   1.309   9.273 -0.3163 -0.3052  1.1104
20590SOL    HW264663   4.977   1.196   9.257  0.2337  0.3421 -0.1662
20591SOL     OW64664   6.245   0.566   9.633  0.6305 -0.2851 -0.2323
20591SOL    HW164665   6.270   0.510   9.559  0.8878 -0.7451  0.1943
20591SOL    HW264666   6.322   0.566   9.690  0.8683  1.0213 -0.5162
20592SOL     OW64667   0.354   6.650   1.030  0.6464 -0.4456 -0.0898
20592SOL    HW164668   0.374   6.563   1.064 -0.1689 -0.5848  0.0500
20592SOL    HW264669   0.290   6.634   0.960 -0.2206  0.1084  0.5569
20593SOL     OW64670   5.412   5.059   8.722 -0.2400  0.4158  0.9764
20593SOL    HW164671   5.497   5.102   8.710  1.0397 -1.5120  2.4733
20593SOL    HW264672   5.390   5.027   8.635  0.9053  0.3782  0.6779
20594SOL     OW64673   6.031   0.027   5.620 -0.0750  0.4305  1.1224
20594SOL    HW164674   6.001   0.072   5.542 -0.9114 -0.9731  0.6000
20594SOL    HW264675   6.052   0.097   5.682  0.3556  1.5501 -0.2515
20595SOL     OW64676   3.777   0.353   8.498 -0.0918  0.2455 -0.3526
20595SOL    HW164677   3.776   0.276   8.555  0.4274  1.7503  1.8107
20595SOL    HW264678   3.870   0.375   8.488 -0.2732  1.9923  1.1663
20596SOL     OW64679   2.158   8.206   3.509 -0.0301 -0.4896 -0.0172
20596SOL    HW164680   2.114   8.283   3.547 -0.4379 -1.3016  1.2265
20596SOL    HW264681   2.123   8.132   3.559  2.4534 -1.2247  0.7330
20597SOL     OW64682   0.607   8.628   8.485 -0.3208 -0.0271 -0.4749
20597SOL    HW164683   0.630   8.669   8.402 -0.9733 -0.1948 -0.7495
20597SOL    HW264684   0.534   8.570   8.463  0.2485 -0.9475 -0.0033
20598SOL     OW64685   0.112   9.606   5.572 -0.7522 -0.2140 -0.1107
20598SOL    HW164686   0.042   9.634   5.630 -0.5028  0.3055 -0.0454
20598SOL    HW264687   0.069   9.552   5.505 -0.8396 -2.0149  1.3335
20599SOL     OW64688   5.354   5.641   8.600 -0.3523 -0.7127 -0.3872
20599SOL    HW164689   5.296   5.705   8.640 -0.7563 -0.0316 -1.9832
20599SOL    HW264690   5.405   5.606   8.673  0.2866  1.8205  0.4860
20600SOL     OW64691   5.075   1.502   4.036 -0.0453 -0.2239  0.3413
20600SOL    HW164692   5.139   1.537   3.975 -0.3712 -1.5201 -0.8045
20600SOL    HW264693   4.991   1.537   4.006 -0.0921 -0.0543  0.6661
20601SOL     OW64694   0.660   4.162   9.481  0.4610 -0.0281  0.5051
20601SOL    HW164695   0.688   4.085   9.530  0.2054  0.0370  0.7494
20601SOL    HW264696   0.597   4.206   9.537  0.6920  0.4241  0.4147
20602SOL     OW64697   1.559   9.122   9.036 -0.3483 -0.0795 -0.1935
20602SOL    HW164698   1.510   9.041   9.025 -0.9423  0.1697  0.5559
20602SOL    HW264699   1.495   9.192   9.025 -0.0627  0.2637  0.2429
20603SOL     OW64700   1.356   2.502   0.316 -0.6849  0.1597 -0.3815
20603SOL    HW164701   1.439   2.488   0.362 -1.3031  3.2078  1.9304
20603SOL    HW264702   1.292   2.518   0.385 -2.3725  1.7770 -2.2039
20604SOL     OW64703   5.850   1.322   6.242 -0.1890  0.3284 -0.0799
20604SOL    HW164704   5.756   1.307   6.252 -0.0744 -1.2255 -1.0098
20604SOL    HW264705   5.856   1.413   6.210 -1.3033  0.7325  0.7908
20605SOL     OW64706   0.709   5.199   9.439  0.1957 -0.3816 -0.5077
20605SOL    HW164707   0.712   5.134   9.509 -0.6037 -0.3459 -0.4414
20605SOL    HW264708   0.616   5.209   9.419  0.2708  1.1421 -0.1630
20606SOL     OW64709   7.442   6.600   3.252 -0.3477 -0.1475 -0.2786
20606SOL    HW164710   7.530   6.562   3.253 -0.1912  0.2228  0.8255
20606SOL    HW264711   7.388   6.534   3.209  0.3473 -0.6432 -0.4070
20607SOL     OW64712   8.872   0.119   3.615 -0.3434 -0.3052 -0.1768
20607SOL    HW164713   8.810   0.058   3.655 -0.0307  0.0089  0.8061
20607SOL    HW264714   8.849   0.204   3.652  0.7855 -0.2105  0.3471
20608SOL     OW64715   3.741   3.046   3.318  0.2316  0.3363  0.3317
20608SOL    HW164716   3.745   3.091   3.403 -0.0205 -1.3625  1.2878
20608SOL    HW264717   3.800   3.096   3.262 -0.6852  2.3657  1.0587
20609SOL     OW64718   0.432   7.568   0.121 -0.0462  0.1145  0.0621
20609SOL    HW164719   0.364   7.624   0.084  0.1968  0.0584 -0.4808
20609SOL    HW264720   0.425   7.486   0.072  0.4783  0.1447 -0.0743
20610SOL     OW64721   0.180   4.680   4.411  0.3294 -0.3117 -0.4965
20610SOL    HW164722   0.136   4.656   4.329 -0.0914 -0.5363 -0.2119
20610SOL    HW264723   0.141   4.622   4.476  0.6364 -0.1088 -0.1294
20611SOL     OW64724   6.731   0.763   7.044 -0.0035  0.0155 -0.4445
20611SOL    HW164725   6.768   0.842   7.083  0.1089 -0.0115 -0.4972
20611SOL    HW264726   6.791   0.740   6.974 -0.2883  0.1476 -0.7341
20612SOL     OW64727   5.426   6.301   1.183  0.1206 -0.3737  0.7021
20612SOL    HW164728   5.360   6.346   1.235  0.1983  1.2805 -0.5694
20612SOL    HW264729   5.381   6.223   1.149 -0.2221 -0.9300  2.3450
20613SOL     OW64730   2.841   3.030   3.280 -0.3839  0.1944  0.0375
20613SOL    HW164731   2.885   2.959   3.327 -0.4383 -1.0052 -1.6280
20613SOL    HW264732   2.789   3.075   3.347 -0.4819 -1.4519  1.1284
20614SOL     OW64733   5.799   8.576   8.753 -0.3516  0.1549 -0.3627
20614SOL    HW164734   5.792   8.571   8.657 -1.0796 -0.8261 -0.2735
20614SOL    HW264735   5.710   8.567   8.784 -0.0640 -0.0051  0.4305
20615SOL     OW64736   3.341   1.583   1.976  0.7026  0.3614 -0.0090
20615SOL    HW164737   3.386   1.598   2.059 -0.8902  0.6813  0.8352
20615SOL    HW264738   3.305   1.495   1.984 -0.3055  0.7664  0.0721
20616SOL     OW64739   8.334   5.215   3.306 -0.0608  0.0125  0.6996
20616SOL    HW164740   8.328   5.120   3.296  1.2023  0.0757 -1.2389
20616SOL    HW264741   8.418   5.229   3.349  0.2546  0.2822  0.0008
20617SOL     OW64742   1.916   6.975   4.451  0.2752  0.0943 -0.9491
20617SOL    HW164743   1.984   6.948   4.512  0.7908 -0.0519 -1.5663
20617SOL    HW264744   1.844   7.004   4.506  0.6506 -0.2140 -0.2789
20618SOL     OW64745   4.938   1.733   4.645 -0.6418 -0.6326  0.0439
20618SOL    HW164746   4.950   1.713   4.738  1.0375 -1.5540 -0.3288
20618SOL    HW264747   4.928   1.647   4.603  1.1844 -0.4259 -0.9103
20619SOL     OW64748   8.618   1.252   5.858  0.2365 -0.0994 -0.2005
20619SOL    HW164749   8.692   1.284   5.909 -0.4641  0.0295  0.7824
20619SOL    HW264750   8.621   1.156   5.869  0.4378 -0.1161 -0.4125
20620SOL     OW64751   6.048   0.527   1.219 -0.1926  0.3973 -0.1698
20620SOL    HW164752   6.029   0.618   1.199 -1.9769  0.1418  0.1655
20620SOL    HW264753   5.997   0.509   1.298  1.6586 -0.3731  0.9040
20621SOL     OW64754   8.674   6.185   4.269  0.6726 -0.4468  0.2541
20621SOL    HW164755   8.602   6.129   4.299  0.9300 -1.2856 -0.6331
20621SOL    HW264756   8.705   6.229   4.348 -0.0725 -0.9383  0.8378
20622SOL     OW64757   5.570   0.769   7.122  0.0189 -0.3477 -0.5848
20622SOL    HW164758   5.636   0.710   7.156 -0.0619 -1.2869 -1.9816
20622SOL    HW264759   5.489   0.718   7.122  0.2341 -0.8425 -3.2008
20623SOL     OW64760   2.900   3.281   1.072  0.2129 -0.1468 -0.3752
20623SOL    HW164761   2.919   3.321   1.157  1.6770 -2.1465  0.3232
20623SOL    HW264762   2.806   3.262   1.076 -0.0491  1.1895  0.1478
20624SOL     OW64763   0.224   5.315   0.780  0.2438 -0.2151 -0.1324
20624SOL    HW164764   0.194   5.258   0.851  0.1222 -0.2704 -0.2289
20624SOL    HW264765   0.247   5.255   0.709 -0.9612 -0.0925 -0.6512
20625SOL     OW64766   1.150   7.986   5.918  0.6521  0.2312 -0.1385
20625SOL    HW164767   1.095   7.932   5.975  1.1361 -0.4529 -0.3019
20625SOL    HW264768   1.171   8.063   5.970 -2.1968  1.5872 -0.7841
20626SOL     OW64769   6.962   4.590   3.086  0.2451 -0.4014 -0.3715
20626SOL    HW164770   6.907   4.570   3.162  0.5781  1.1728  0.3098
20626SOL    HW264771   6.908   4.647   3.031  0.8338  0.3311 -0.1932
20627SOL     OW64772   2.940   2.222   7.129  0.0741 -0.3252  0.4812
20627SOL    HW164773   2.987   2.223   7.045 -0.8590 -2.1080 -0.1108
20627SOL    HW264774   3.007   2.244   7.194  0.8656  0.9045 -0.6935
20628SOL     OW64775   8.770   4.168   3.336 -0.2145  0.3808  0.1408
20628SOL    HW164776   8.822   4.210   3.267  0.9179  0.0364  0.7620
20628SOL    HW264777   8.798   4.212   3.416 -1.2525  0.5233  0.4277
20629SOL     OW64778   3.586   8.472   1.699  0.2985 -0.3639  0.7528
20629SOL    HW164779   3.524   8.469   1.772  0.0423 -0.2806  0.5397
20629SOL    HW264780   3.603   8.380   1.677  1.7786 -0.4503  2.0938
20630SOL     OW64781   8.502   8.228   1.103  0.3861 -0.6150  0.1236
20630SOL    HW164782   8.413   8.225   1.139  0.9520  2.4554  2.0771
20630SOL    HW264783   8.495   8.286   1.027  1.0197  1.5258  1.6157
20631SOL     OW64784   5.097   2.135   6.534 -0.6923 -0.0099  0.3173
20631SOL    HW164785   5.123   2.101   6.619 -0.4775 -1.4470 -0.2976
20631SOL    HW264786   5.166   2.198   6.510 -0.8992  0.6128  1.3000
20632SOL     OW64787   1.537   3.399   5.390  0.3682  0.5993 -0.4991
20632SOL    HW164788   1.510   3.316   5.350  0.7983  0.6274 -0.8561
20632SOL    HW264789   1.631   3.404   5.374  0.7401  0.1924  1.3103
20633SOL     OW64790   4.546   9.359   0.137 -0.3219  0.5648 -0.2261
20633SOL    HW164791   4.568   9.355   0.044 -0.6434 -0.0893 -0.2847
20633SOL    HW264792   4.455   9.389   0.139 -0.8112 -0.8236 -0.2169
20634SOL     OW64793   3.059   1.579   1.570 -0.3449 -0.1184  0.4579
20634SOL    HW164794   2.982   1.633   1.549  0.8488  1.6092  0.3106
20634SOL    HW264795   3.117   1.638   1.618 -0.1212 -2.0917  2.7629
20635SOL     OW64796   1.965   8.614   0.252  0.1235  0.9497  0.0224
20635SOL    HW164797   2.027   8.556   0.296 -0.9523 -0.4877 -0.3018
20635SOL    HW264798   1.901   8.556   0.212 -1.2089  2.3739 -0.0152
20636SOL     OW64799   7.212   2.936   6.186 -0.0816  0.4422 -0.0815
20636SOL    HW164800   7.302   2.918   6.160 -0.4181 -0.2544 -0.8178
20636SOL    HW264801   7.168   2.960   6.105 -0.8991 -0.6977 -0.0081
20637SOL     OW64802   4.119   2.637   1.758  0.4003  0.1406  0.6125
20637SOL    HW164803   4.137   2.676   1.843  0.0706  0.8051  0.3801
20637SOL    HW264804   4.036   2.675   1.730  0.1258 -0.6403  0.3284
20638SOL     OW64805   7.586   6.899   0.833 -0.1672  0.2544  0.3640
20638SOL    HW164806   7.662   6.885   0.889 -0.5695  0.2158  0.9116
20638SOL    HW264807   7.615   6.964   0.768  0.2980  0.3140  0.6312
20639SOL     OW64808   4.529   7.185   0.946  0.3820 -0.4341  0.8882
20639SOL    HW164809   4.542   7.108   1.000  1.0023 -0.1375  1.1741
20639SOL    HW264810   4.493   7.151   0.864  0.6642 -1.0244  1.0047
20640SOL     OW64811   6.436   1.188   6.118 -0.2540 -0.5517  0.1823
20640SOL    HW164812   6.530   1.188   6.099 -0.0330 -0.3923  1.2302
20640SOL    HW264813   6.416   1.098   6.144 -0.1723 -0.3609  0.9393
20641SOL     OW64814   3.390   8.762   1.031  0.3426  0.0249 -0.0916
20641SOL    HW164815   3.429   8.683   0.994  2.7515  1.0759  0.0678
20641SOL    HW264816   3.446   8.785   1.104 -0.2270  1.9743 -0.2183
20642SOL     OW64817   8.963   8.879   5.447 -0.0773  0.0615  0.1711
20642SOL    HW164818   8.883   8.845   5.405 -0.1734 -0.8392  1.0429
20642SOL    HW264819   8.949   8.864   5.540  0.9367  0.2951  0.3691
20643SOL     OW64820   6.600   5.823   4.025  0.1070  0.1033  0.3774
20643SOL    HW164821   6.600   5.733   4.056 -1.7257  1.1826  4.1463
20643SOL    HW264822   6.692   5.846   4.014  0.7808 -1.2953  2.6114
20644SOL     OW64823   0.529   2.035   3.325 -0.1067  0.3152 -0.5416
20644SOL    HW164824   0.561   1.945   3.322  0.8416  0.6052  0.2459
20644SOL    HW264825   0.602   2.088   3.293 -0.1110  0.9200  0.4093
20645SOL     OW64826   1.773   0.134   0.500  0.6138 -0.1873 -0.0781
20645SOL    HW164827   1.731   0.076   0.436  0.4805 -1.7961  1.3992
20645SOL    HW264828   1.867   0.117   0.488  0.6747  0.5621 -0.7686
20646SOL     OW64829   1.929   0.023   1.733 -0.5955  0.0945 -0.2148
20646SOL    HW164830   1.932  -0.070   1.754  0.7098  0.0142 -0.6811
20646SOL    HW264831   1.847   0.054   1.773 -0.8291 -1.1468  0.3167
20647SOL     OW64832   1.239   2.593   9.231 -0.6591  0.7903 -0.4462
20647SOL    HW164833   1.150   2.618   9.254 -0.0543  1.3747  1.4024
20647SOL    HW264834   1.284   2.675   9.212 -0.1598  0.6174 -0.0368
20648SOL     OW64835   2.082   8.291   4.483 -0.1732 -0.6355 -0.5175
20648SOL    HW164836   2.173   8.308   4.508  0.4723 -0.5392 -2.7355
20648SOL    HW264837   2.067   8.345   4.406 -1.9629 -1.0442 -0.5063
20649SOL     OW64838   4.838   2.872   8.546 -0.1122 -0.2746  0.2456
20649SOL    HW164839   4.815   2.904   8.459 -0.5143  0.5239  0.6349
20649SOL    HW264840   4.762   2.891   8.600 -0.5165 -2.2238  0.4385
20650SOL     OW64841   0.974   6.228   0.941 -0.0826  0.0768  0.1020
20650SOL    HW164842   0.932   6.142   0.936  1.7155 -0.7669 -1.5036
20650SOL    HW264843   1.061   6.211   0.976  0.1368  1.3290  0.2260
20651SOL     OW64844   4.296   1.012   5.905 -0.2331 -0.4122 -0.3274
20651SOL    HW164845   4.296   0.918   5.920  1.4616 -0.3368  0.3033
20651SOL    HW264846   4.363   1.027   5.838 -0.2842  0.3780 -0.2184
20652SOL     OW64847   0.011   0.593   4.631 -0.1616 -0.1530 -0.1818
20652SOL    HW164848   0.065   0.602   4.552 -2.2433  3.1599 -1.4556
20652SOL    HW264849   0.063   0.635   4.699  0.3347 -0.1962 -0.5212
20653SOL     OW64850   2.819   8.455   5.511 -0.5171 -0.3861  0.0572
20653SOL    HW164851   2.905   8.422   5.536  0.0393  0.2779 -0.9282
20653SOL    HW264852   2.820   8.547   5.538 -0.4910 -0.0832 -0.9433
20654SOL     OW64853   1.486   3.181   3.550  0.0943  0.4317 -0.6177
20654SOL    HW164854   1.494   3.122   3.625 -1.2126  1.1829  0.1722
20654SOL    HW264855   1.501   3.268   3.587 -0.4776  0.8061 -1.2457
20655SOL     OW64856   8.226   7.484   0.245  0.4242 -0.1141 -0.4061
20655SOL    HW164857   8.240   7.466   0.338  1.5955 -0.4526 -0.6215
20655SOL    HW264858   8.135   7.460   0.229  0.6603 -1.5935  0.3029
20656SOL     OW64859   6.930   8.912   2.634 -0.0971  0.1264 -0.2175
20656SOL    HW164860   6.965   8.826   2.657 -0.6761  0.0430  0.3764
20656SOL    HW264861   6.893   8.900   2.546 -0.3480 -0.2838 -0.0570
20657SOL     OW64862   8.764   9.578   3.078 -0.0910  0.0500 -0.6153
20657SOL    HW164863   8.746   9.526   2.999 -1.3648 -0.0065 -0.3058
20657SOL    HW264864   8.852   9.552   3.105 -0.3829 -1.3176 -0.9503
20658SOL     OW64865   6.711   7.086   6.935  0.4765  0.0569 -0.2561
20658SOL    HW164866   6.631   7.137   6.921 -0.0991 -0.7441  0.0356
20658SOL    HW264867   6.781   7.151   6.937 -0.2793  0.8655  0.5068
20659SOL     OW64868   2.532   2.956   0.169 -0.2083 -0.2085  0.0155
20659SOL    HW164869   2.593   2.906   0.222 -1.3405 -1.9301 -0.2094
20659SOL    HW264870   2.549   2.928   0.079 -1.0108 -0.3731 -0.0956
20660SOL     OW64871   7.194   8.973   1.324 -0.6860 -0.4518  0.0634
20660SOL    HW164872   7.225   8.884   1.309  0.1914  0.1771 -2.5325
20660SOL    HW264873   7.272   9.022   1.350 -0.8672 -0.1865  0.1175
20661SOL     OW64874   4.840   5.222   6.199  0.1714 -0.1857  0.3293
20661SOL    HW164875   4.904   5.293   6.192 -2.0831  1.9316 -0.6458
20661SOL    HW264876   4.783   5.248   6.271 -1.0151 -0.6819 -0.3943
20662SOL     OW64877   1.760   4.842   3.343  0.0096  0.6939 -0.5489
20662SOL    HW164878   1.683   4.785   3.341 -0.9478  1.8613  0.8622
20662SOL    HW264879   1.801   4.825   3.428  1.2679  0.1890 -1.2260
20663SOL     OW64880   2.858   1.227   1.346  0.1994 -0.2215 -0.1364
20663SOL    HW164881   2.915   1.284   1.294  0.2202 -1.2120 -1.2635
20663SOL    HW264882   2.783   1.210   1.289 -0.2113 -0.6210  0.5156
20664SOL     OW64883   0.388   6.901   0.791  0.0509 -0.1033 -0.1405
20664SOL    HW164884   0.384   6.927   0.699  0.3978 -0.6829 -0.3171
20664SOL    HW264885   0.296   6.895   0.818 -0.0788  2.1487  0.1536
20665SOL     OW64886   6.384   7.102   5.622 -0.2864 -0.2857  0.3989
20665SOL    HW164887   6.320   7.172   5.633  2.0861  2.1727 -0.3793
20665SOL    HW264888   6.433   7.101   5.705  0.7233  0.1237 -0.1734
20666SOL     OW64889   0.532   6.227   4.720 -0.1839 -0.3006 -0.2649
20666SOL    HW164890   0.508   6.311   4.681  1.5920  0.5308  0.3043
20666SOL    HW264891   0.458   6.169   4.702 -0.5610  0.7840 -2.5183
20667SOL     OW64892   1.049   9.278   0.933 -0.1549 -0.0329  0.4123
20667SOL    HW164893   0.961   9.262   0.898  0.7575 -1.2343 -1.5307
20667SOL    HW264894   1.101   9.303   0.856  1.1381  1.0788  1.5820
20668SOL     OW64895   5.520   7.821   8.064  0.1150 -0.4170 -0.0763
20668SOL    HW164896   5.442   7.782   8.104 -0.7041  1.9630  0.8557
20668SOL    HW264897   5.522   7.786   7.975 -0.9084 -1.9920  0.4881
20669SOL     OW64898   5.415   7.562   1.127 -0.3494 -0.1206 -0.3931
20669SOL    HW164899   5.486   7.614   1.163  1.0663 -0.6220 -2.3026
20669SOL    HW264900   5.431   7.474   1.158 -2.6840  0.4020  2.7448
20670SOL     OW64901   2.126   4.930   9.464  0.2690  0.3544  0.1899
20670SOL    HW164902   2.134   4.990   9.391  0.5512  0.0223 -0.0565
20670SOL    HW264903   2.161   4.847   9.431  0.0438  0.0998  0.5767
20671SOL     OW64904   6.565   2.242   8.882 -0.0182  0.0193  0.1697
20671SOL    HW164905   6.551   2.150   8.905  0.7428 -0.2463 -0.3566
20671SOL    HW264906   6.515   2.291   8.946  1.0843 -0.7077  1.6444
20672SOL     OW64907   4.926   1.702   5.572  0.2196 -0.2151 -0.4693
20672SOL    HW164908   4.907   1.780   5.624  0.0011  0.5076 -1.6228
20672SOL    HW264909   4.971   1.644   5.634 -1.8907 -0.2612  1.1620
20673SOL     OW64910   0.915   9.507   7.132  0.0142  0.0191  0.3133
20673SOL    HW164911   0.822   9.528   7.131  0.2620  1.2304 -0.4316
20673SOL    HW264912   0.919   9.412   7.127 -1.1928 -0.0019 -0.8117
20674SOL     OW64913   9.282   4.512   1.468 -0.1529  0.8062  0.9152
20674SOL    HW164914   9.211   4.462   1.507 -0.4696  1.1557  0.7952
20674SOL    HW264915   9.362   4.470   1.500 -0.4024 -0.2622  0.1874
20675SOL     OW64916   5.956   8.451   3.473 -0.1041  0.7150 -0.2871
20675SOL    HW164917   6.017   8.525   3.479  0.6023  0.1264 -0.0007
20675SOL    HW264918   5.900   8.471   3.399 -1.5021  2.6878  1.2154
20676SOL     OW64919   7.530   7.031   6.105 -0.0299  0.5574  0.0325
20676SOL    HW164920   7.591   7.079   6.050  0.5090 -0.8798 -0.6752
20676SOL    HW264921   7.582   6.999   6.178 -0.2975  0.7128  0.2950
20677SOL     OW64922   1.454   2.925   9.415 -0.2303 -0.7157  0.0286
20677SOL    HW164923   1.424   2.952   9.502  0.8355  0.2676  0.1052
20677SOL    HW264924   1.527   2.866   9.433 -0.6448 -1.3155 -0.2018
20678SOL     OW64925   0.537   2.542   7.376 -0.3139 -0.7108 -0.1376
20678SOL    HW164926   0.495   2.552   7.290  2.5391 -0.5762 -1.6137
20678SOL    HW264927   0.601   2.613   7.380  0.0207 -1.0728  1.8780
20679SOL     OW64928   5.939   2.784   9.212  0.4002  0.0146 -0.0887
20679SOL    HW164929   5.888   2.860   9.184 -1.1810 -0.5751  1.0288
20679SOL    HW264930   5.909   2.767   9.301  0.5068 -2.0885 -0.4083
20680SOL     OW64931   1.155   0.827   5.415  0.4165  0.3662  0.0438
20680SOL    HW164932   1.237   0.811   5.461  0.7582 -1.0697 -0.9842
20680SOL    HW264933   1.096   0.759   5.445  0.2221  0.2228 -0.6326
20681SOL     OW64934   8.348   1.999   3.967  0.4329 -0.2463 -0.2752
20681SOL    HW164935   8.290   1.923   3.970  2.3863 -1.8794 -1.3396
20681SOL    HW264936   8.371   2.007   3.874  0.8569  1.1928 -0.0698
20682SOL     OW64937   9.227   2.636   9.041  0.1860 -0.0667  0.4173
20682SOL    HW164938   9.270   2.663   9.122  0.8677  1.1577 -0.3207
20682SOL    HW264939   9.185   2.715   9.007 -0.1309 -0.5642 -0.4010
20683SOL     OW64940   3.920   8.629   3.769 -0.3185 -0.0883 -0.2586
20683SOL    HW164941   3.933   8.555   3.828  2.2284  1.2823  1.0758
20683SOL    HW264942   3.939   8.594   3.682  0.4909 -1.1329  0.3123
20684SOL     OW64943   8.098   4.897   5.074 -0.2020 -0.4976  0.1694
20684SOL    HW164944   8.014   4.877   5.116 -0.7925  1.1060 -0.1525
20684SOL    HW264945   8.095   4.992   5.061  0.9748 -0.6440 -1.3455
20685SOL     OW64946   2.206   4.388   3.905  0.0548 -0.2407  0.4937
20685SOL    HW164947   2.160   4.371   3.987 -0.7416  1.5801  0.4636
20685SOL    HW264948   2.138   4.417   3.844  1.0396  1.3288  0.0825
20686SOL     OW64949   6.838   3.424   2.199  0.2352 -0.7398 -0.0999
20686SOL    HW164950   6.773   3.403   2.132  1.3937 -0.2057 -1.4537
20686SOL    HW264951   6.823   3.360   2.269 -0.9317 -1.4012 -0.9223
20687SOL     OW64952   0.835   5.302   7.319  0.5472 -0.0571 -0.5219
20687SOL    HW164953   0.828   5.266   7.407  1.3200  0.3181 -0.2952
20687SOL    HW264954   0.745   5.305   7.286  0.0082  1.6604  0.9832
20688SOL     OW64955   9.470   4.981   7.136 -0.1845 -0.6891  0.3947
20688SOL    HW164956   9.438   5.001   7.048 -2.4501  2.3427  1.7156
20688SOL    HW264957   9.409   4.916   7.169 -2.2082  1.4854  1.1851
20689SOL     OW64958   6.941   9.087   1.609 -0.2855 -0.2177 -0.3674
20689SOL    HW164959   6.964   9.000   1.578 -1.1822  0.0998 -2.0925
20689SOL    HW264960   6.852   9.077   1.645  0.2201 -0.3084  0.8938
20690SOL     OW64961   0.048   0.179   4.182 -0.8648  0.3386  0.0469
20690SOL    HW164962   0.000   0.147   4.106 -0.2583 -1.3508  0.3470
20690SOL    HW264963   0.079   0.266   4.156 -2.0521  0.4612 -1.0135
20691SOL     OW64964   2.482   0.580   6.802  0.0690  0.0692 -0.3619
20691SOL    HW164965   2.497   0.663   6.757 -1.5038  0.0330 -0.9994
20691SOL    HW264966   2.401   0.546   6.764  0.9632 -2.0354 -0.5158
20692SOL     OW64967   7.067   1.013   0.468  0.3477  0.3352 -0.0394
20692SOL    HW164968   7.000   0.945   0.457  0.9916 -0.8080  2.4788
20692SOL    HW264969   7.072   1.055   0.382 -0.8226 -2.1123 -1.4132
20693SOL     OW64970   9.220   4.474   0.055  0.1328 -0.3697  0.7262
20693SOL    HW164971   9.187   4.502   0.140  0.5871 -0.5283  0.9593
20693SOL    HW264972   9.314   4.490   0.060  0.0261  0.5741 -0.1146
20694SOL     OW64973   5.864   9.479   7.052  0.0695 -0.2917 -0.0544
20694SOL    HW164974   5.938   9.535   7.076  0.5726 -2.3647  4.1043
20694SOL    HW264975   5.790   9.539   7.044  1.6758  1.5655 -2.1511
20695SOL     OW64976   2.268   2.340   5.296 -0.2319  0.2595 -0.6865
20695SOL    HW164977   2.246   2.249   5.278  0.3167 -0.3831  1.4909
20695SOL    HW264978   2.240   2.353   5.387  2.2010  1.3748 -0.0201
20696SOL     OW64979   3.687   3.926   4.232  0.4844  0.1147 -0.0238
20696SOL    HW164980   3.614   3.900   4.289 -0.0184  0.0488 -0.6950
20696SOL    HW264981   3.765   3.914   4.287  0.0884 -0.8131  0.3551
20697SOL     OW64982   1.790   1.793   0.235 -0.0500  0.1936 -1.1010
20697SOL    HW164983   1.799   1.802   0.330  2.1229 -0.4505 -1.1976
20697SOL    HW264984   1.710   1.741   0.224  1.0405 -2.0043  0.5441
20698SOL     OW64985   0.616   3.455   7.137 -0.5167 -0.5742  0.5628
20698SOL    HW164986   0.525   3.483   7.131 -0.5084 -0.8499 -1.8680
20698SOL    HW264987   0.667   3.535   7.127 -0.5236 -0.8009 -1.7820
20699SOL     OW64988   4.418   7.700   0.690 -0.1948 -0.7872  0.5297
20699SOL    HW164989   4.350   7.752   0.647  0.3182 -0.5830 -0.0552
20699SOL    HW264990   4.374   7.621   0.719 -1.0605  0.0979  1.7060
20700SOL     OW64991   7.134   6.573   3.648  0.4473 -0.3420 -0.1632
20700SOL    HW164992   7.132   6.658   3.605  2.4703  1.2913  2.6577
20700SOL    HW264993   7.198   6.522   3.599 -0.7210 -0.2862 -1.8268
20701SOL     OW64994   4.571   1.056   9.329 -0.9137 -0.2871 -0.3066
20701SOL    HW164995   4.600   1.079   9.417 -2.6474  0.3100  0.1404
20701SOL    HW264996   4.562   1.141   9.285 -1.2742 -0.5129 -0.6649
20702SOL     OW64997   8.943   8.220   3.356  0.3987  0.1989 -0.2797
20702SOL    HW164998   8.960   8.298   3.303  0.4868 -0.1492 -0.7759
20702SOL    HW264999   9.020   8.164   3.341  1.8676  1.2930  2.5104
20703SOL     OW65000   7.941   2.063   6.097 -0.2044 -0.5168  0.1234
20703SOL    HW165001   7.977   2.103   6.175  0.9261 -0.6627 -0.3089
20703SOL    HW265002   7.991   2.100   6.025 -0.2848 -1.4134 -0.4156
20704SOL     OW65003   0.934   3.554   3.943  0.6941  0.4535  0.1315
20704SOL    HW165004   0.958   3.579   3.854  1.0018  0.3641  0.1888
20704SOL    HW265005   0.939   3.635   3.993 -0.5667  0.7335 -0.1542
20705SOL     OW65006   2.319   1.906   6.801 -0.7975  0.4508 -0.1238
20705SOL    HW165007   2.367   1.981   6.765  0.7825  0.1731  1.2671
20705SOL    HW265008   2.311   1.925   6.894 -2.0809 -0.2362 -0.0771
20706SOL     OW65009   5.768   7.252   8.764 -0.1869 -0.2297 -0.2963
20706SOL    HW165010   5.738   7.276   8.852 -0.8619  0.1652 -0.6188
20706SOL    HW265011   5.803   7.333   8.728 -0.4758 -0.2411 -0.6075
20707SOL     OW65012   8.427   9.221   5.795  0.5167 -0.3630  0.0862
20707SOL    HW165013   8.402   9.194   5.707 -3.5918 -0.9600  1.1998
20707SOL    HW265014   8.451   9.313   5.787  0.9678 -0.6034 -1.7170
20708SOL     OW65015   2.279   9.491   5.631 -0.2757  0.5708  0.4457
20708SOL    HW165016   2.283   9.467   5.723 -1.8645 -0.5717  0.2581
20708SOL    HW265017   2.293   9.586   5.630  0.3018  0.5148  1.7976
20709SOL     OW65018   9.498   9.046   4.870  0.1146 -0.6363 -0.4632
20709SOL    HW165019   9.490   8.962   4.825  2.3733 -0.1011 -2.0039
20709SOL    HW265020   9.425   9.046   4.933  0.5533 -4.1004  0.2538
20710SOL     OW65021   0.695   0.659   6.297  0.2710 -0.1759  0.1106
20710SOL    HW165022   0.765   0.665   6.363  0.2825  0.4734  0.0445
20710SOL    HW265023   0.674   0.566   6.293  1.4168 -0.4367 -0.1560
20711SOL     OW65024   3.499   2.387   0.127 -0.0116 -0.1736 -0.2744
20711SOL    HW165025   3.421   2.435   0.153  0.1689 -0.4966  0.9117
20711SOL    HW265026   3.555   2.387   0.205  0.3451 -1.5904 -0.4892
20712SOL     OW65027   1.639   7.538   6.204 -0.4976 -0.0405 -0.0008
20712SOL    HW165028   1.607   7.621   6.238  0.3850 -0.0634  0.9287
20712SOL    HW265029   1.579   7.517   6.133  0.5721  2.5038 -1.7946
20713SOL     OW65030   6.182   2.042   2.600 -0.9237  0.5176  0.2321
20713SOL    HW165031   6.156   2.092   2.522  0.6080 -1.6204 -1.8059
20713SOL    HW265032   6.165   1.951   2.576  1.4943 -0.3890  1.5801
20714SOL     OW65033   2.006   1.521   9.279 -0.1831  0.0324 -0.1138
20714SOL    HW165034   1.938   1.467   9.318 -0.0880  0.5834  0.8601
20714SOL    HW265035   2.040   1.469   9.207 -1.1083 -0.5676 -0.1285
20715SOL     OW65036   6.734   6.322   0.521 -0.4988 -0.1048 -0.3651
20715SOL    HW165037   6.642   6.344   0.529 -0.7950 -1.6102  1.0415
20715SOL    HW265038   6.771   6.344   0.606  0.9508  2.3430 -1.5064
20716SOL     OW65039   3.961   4.096   7.611 -0.5259  0.0819 -0.2117
20716SOL    HW165040   4.027   4.028   7.596  1.2677  1.9271 -1.2872
20716SOL    HW265041   3.959   4.108   7.705 -0.9130 -1.4402  0.0022
20717SOL     OW65042   2.765   7.082   0.884  0.2091 -0.2055  0.6168
20717SOL    HW165043   2.714   7.146   0.837  0.8651 -0.8348 -1.0245
20717SOL    HW265044   2.847   7.127   0.905  1.2351 -0.8355 -1.7389
20718SOL     OW65045   2.404   8.323   5.723  0.5019 -0.5000  0.1721
20718SOL    HW165046   2.333   8.355   5.780  0.4526 -1.5780  0.7480
20718SOL    HW265047   2.359   8.278   5.652  0.5963 -0.4378  0.0729
20719SOL     OW65048   5.822   5.862   3.919 -0.0161  0.5377  0.6703
20719SOL    HW165049   5.822   5.766   3.913  0.7928  0.5425  0.4607
20719SOL    HW265050   5.730   5.885   3.931 -0.5440 -0.1444 -1.5167
20720SOL     OW65051   0.074   5.687   4.830 -0.2470  0.0027  0.0241
20720SOL    HW165052   0.022   5.733   4.764 -1.5414 -0.1491  0.9016
20720SOL    HW265053   0.142   5.642   4.779 -0.9336  0.2614 -1.1672
20721SOL     OW65054   6.937   8.247   3.935  0.0184  0.3770 -0.3622
20721SOL    HW165055   6.956   8.340   3.947 -0.0230  0.4890 -1.1100
20721SOL    HW265056   6.895   8.243   3.849 -1.8586 -0.0587  0.5244
20722SOL     OW65057   1.916   3.011   1.801  0.3859 -1.0786  0.0066
20722SOL    HW165058   1.828   3.015   1.762  1.3960 -1.6757 -2.5255
20722SOL    HW265059   1.902   2.972   1.887 -2.3455  2.7036  1.5992
20723SOL     OW65060   5.378   8.894   8.915 -0.0291 -0.3705  0.1537
20723SOL    HW165061   5.351   8.969   8.862 -0.6269  0.6309  1.7692
20723SOL    HW265062   5.335   8.819   8.875 -0.7503  0.3989 -0.5571
20724SOL     OW65063   3.084   1.797   5.164  0.4501 -0.0875 -0.2968
20724SOL    HW165064   3.090   1.870   5.101 -0.2651  0.4625  0.2519
20724SOL    HW265065   3.122   1.723   5.117  2.9183  1.0202 -0.2178
20725SOL     OW65066   3.110   0.700   1.413 -0.2175  0.3293  0.1301
20725SOL    HW165067   3.185   0.644   1.390 -0.3534  0.1454  0.1356
20725SOL    HW265068   3.039   0.639   1.430 -0.6876  0.5382 -0.9839
20726SOL     OW65069   2.360   2.092   8.598 -0.0654 -0.4164 -0.0112
20726SOL    HW165070   2.440   2.050   8.566 -0.3694 -0.6959 -0.4039
20726SOL    HW265071   2.381   2.115   8.689  0.4923 -0.4049 -0.1361
20727SOL     OW65072   7.774   0.900   6.661  0.2312  0.0441  0.2947
20727SOL    HW165073   7.717   0.974   6.641 -2.1067 -2.3423 -2.8344
20727SOL    HW265074   7.850   0.912   6.605 -0.6448 -0.4003 -1.0244
20728SOL     OW65075   3.790   0.532   4.204  0.3350  0.0921  0.2522
20728SOL    HW165076   3.813   0.442   4.226 -1.1570  0.1347  2.2856
20728SOL    HW265077   3.848   0.585   4.258 -0.0811  0.2973  0.5044
20729SOL     OW65078   9.225   1.381   7.937  0.6421  0.0963  0.9034
20729SOL    HW165079   9.153   1.335   7.894  1.1030  0.1035  0.1012
20729SOL    HW265080   9.208   1.473   7.918  0.7164  0.1192  0.9513
20730SOL     OW65081   0.102   0.412   4.023 -0.6332 -0.0180 -1.0402
20730SOL    HW165082   0.163   0.485   4.022 -1.3736  0.7935  2.1849
20730SOL    HW265083   0.015   0.453   4.029 -0.9929 -1.0175  2.3291
20731SOL     OW65084   6.580   8.559   9.582  0.6116 -0.1317  0.0878
20731SOL    HW165085   6.588   8.483   9.639 -1.1354  0.7175  1.5859
20731SOL    HW265086   6.541   8.525   9.502 -2.5403 -0.5649  1.6517
20732SOL     OW65087   1.843   0.459   9.466 -0.3832  0.2442 -0.0960
20732SOL    HW165088   1.761   0.466   9.417 -1.0154 -0.5181  0.8271
20732SOL    HW265089   1.847   0.368   9.494 -0.6297  0.8948  2.2366
20733SOL     OW65090   3.577   5.739   4.710  0.4734  0.0916  0.1748
20733SOL    HW165091   3.531   5.802   4.655 -1.6257 -1.0350  0.5521
20733SOL    HW265092   3.645   5.791   4.754  0.4945  1.5336 -1.4301
20734SOL     OW65093   6.948   3.402   4.348 -0.0001  0.0537  0.2782
20734SOL    HW165094   7.024   3.454   4.323  0.8449 -0.6652  1.2953
20734SOL    HW265095   6.891   3.463   4.395  0.5127  0.2999  0.5775
20735SOL     OW65096   8.103   2.710   7.413 -0.1459  0.2605  0.2357
20735SOL    HW165097   8.186   2.758   7.405 -0.6318  1.1289  0.3479
20735SOL    HW265098   8.056   2.730   7.332 -1.1149  1.4670  1.0679
20736SOL     OW65099   0.971   9.592   3.524 -0.4571 -0.0499  0.1362
20736SOL    HW165100   0.900   9.584   3.587 -0.6346  1.0823  0.0956
20736SOL    HW265101   0.998   9.502   3.507 -1.6141 -0.4690  0.4517
20737SOL     OW65102   1.277   1.156   8.876 -0.2653 -0.3886  0.0273
20737SOL    HW165103   1.240   1.076   8.839  0.0280 -0.6814  0.3573
20737SOL    HW265104   1.218   1.178   8.948 -0.4975 -0.1566 -0.2342
20738SOL     OW65105   0.685   2.178   4.237  0.6897 -0.3290  0.4123
20738SOL    HW165106   0.778   2.196   4.225  0.6437  0.0429  0.5944
20738SOL    HW265107   0.652   2.254   4.286 -0.1662  0.6262 -1.5323
20739SOL     OW65108   4.005   5.083   3.285 -0.0116 -0.2202 -0.0439
20739SOL    HW165109   3.919   5.084   3.244 -0.5773 -1.7649  1.0236
20739SOL    HW265110   4.009   4.999   3.332  2.0924 -0.2174 -0.1063
20740SOL     OW65111   1.411   1.554   3.871 -0.3057 -0.2096  0.1251
20740SOL    HW165112   1.496   1.524   3.838 -0.1719 -1.3803  1.4338
20740SOL    HW265113   1.417   1.649   3.868 -0.1301 -0.2197 -2.6620
20741SOL     OW65114   8.962   1.521   1.115  0.2476  0.5977  0.7233
20741SOL    HW165115   8.911   1.597   1.084  0.4505  1.0570  1.4816
20741SOL    HW265116   9.042   1.522   1.063  1.6269  2.7037  2.6933
20742SOL     OW65117   5.323   1.911   0.656 -0.6415  0.5428 -0.3875
20742SOL    HW165118   5.273   1.862   0.722 -1.3099  0.3309 -1.0277
20742SOL    HW265119   5.388   1.848   0.624 -0.8908  0.3630 -0.5469
20743SOL     OW65120   8.847   4.527   5.932  0.2880  0.1352  0.0233
20743SOL    HW165121   8.835   4.567   6.018 -0.4306 -0.9510  0.4442
20743SOL    HW265122   8.937   4.494   5.933 -0.5022 -2.1816  1.3863
20744SOL     OW65123   7.596   1.434   8.803  0.3318 -0.4140  0.0646
20744SOL    HW165124   7.515   1.418   8.755  0.9615  2.4679 -2.2444
20744SOL    HW265125   7.664   1.394   8.749  0.8193  0.7452 -0.1979
20745SOL     OW65126   0.770   9.610   6.212  0.0468 -0.1894 -0.5035
20745SOL    HW165127   0.809   9.673   6.151  0.9844 -0.6425 -0.3892
20745SOL    HW265128   0.702   9.660   6.258 -0.6041  0.1808 -1.8339
20746SOL     OW65129   0.228   3.447   4.739 -0.3839 -0.0812 -0.1405
20746SOL    HW165130   0.281   3.499   4.678 -0.4705 -0.1501 -0.2731
20746SOL    HW265131   0.292   3.400   4.792 -0.2949  0.4067  0.1941
20747SOL     OW65132   3.275   7.490   2.540 -0.6037 -0.1663  0.3290
20747SOL    HW165133   3.250   7.402   2.568  0.7692 -0.3840  0.9511
20747SOL    HW265134   3.224   7.548   2.598 -1.3791 -0.5409  0.0336
20748SOL     OW65135   8.408   5.950   2.467 -0.0191 -0.3209 -0.0770
20748SOL    HW165136   8.481   5.973   2.525  0.3944 -0.6680 -0.4638
20748SOL    HW265137   8.367   6.034   2.447 -0.1420 -0.1860  0.6813
20749SOL     OW65138   8.599   4.977   7.330  0.4571  0.2769 -0.2526
20749SOL    HW165139   8.660   5.004   7.399  1.2526 -3.1045  0.5073
20749SOL    HW265140   8.620   4.885   7.313 -1.6234  0.1751 -3.0422
20750SOL     OW65141   1.347   3.045   4.741  0.0860  0.0383 -0.0868
20750SOL    HW165142   1.381   3.067   4.827 -0.8830 -0.8163  0.5387
20750SOL    HW265143   1.424   3.032   4.686  0.7146  1.6675  0.3418
20751SOL     OW65144   1.972   7.801   1.104  0.3037  0.6041  0.4160
20751SOL    HW165145   1.952   7.786   1.196 -1.7983 -0.2164 -0.1229
20751SOL    HW265146   1.987   7.896   1.098 -1.0974  0.9132  1.3546
20752SOL     OW65147   6.491   5.376   1.302  0.0920  0.1414  0.1477
20752SOL    HW165148   6.491   5.315   1.375  2.9482 -1.6008 -1.1218
20752SOL    HW265149   6.499   5.321   1.224  1.1802  2.0408 -1.1951
20753SOL     OW65150   6.397   6.259   5.901 -0.6783 -0.4898  0.4637
20753SOL    HW165151   6.410   6.221   5.988  1.9323  0.7136  0.6883
20753SOL    HW265152   6.477   6.239   5.853 -0.7372  1.5416 -0.6065
20754SOL     OW65153   3.121   8.510   9.019  0.7395 -0.4649  0.2476
20754SOL    HW165154   3.086   8.533   8.933 -1.5623 -0.7102  1.0712
20754SOL    HW265155   3.098   8.418   9.031  0.2538 -0.1994  1.4801
20755SOL     OW65156   4.366   3.268   6.759  0.1005 -0.4339 -0.1787
20755SOL    HW165157   4.396   3.187   6.717 -0.1656 -0.7213  0.1798
20755SOL    HW265158   4.428   3.334   6.729 -0.0542 -0.6385 -0.9928
20756SOL     OW65159   6.285   2.482   8.799  0.2342  0.0020 -0.8494
20756SOL    HW165160   6.326   2.396   8.789 -1.4706 -1.0014  0.2823
20756SOL    HW265161   6.357   2.540   8.826  1.2783 -1.2158 -0.9375
20757SOL     OW65162   7.683   0.133   7.597  0.3904 -0.4372 -0.1044
20757SOL    HW165163   7.628   0.097   7.667  1.1959 -2.6009 -0.4993
20757SOL    HW265164   7.620   0.168   7.533 -0.5084 -1.9011 -0.0617
20758SOL     OW65165   9.434   2.390   9.435 -0.0873 -0.1140  0.1676
20758SOL    HW165166   9.430   2.458   9.368  0.3555  1.3814  1.6170
20758SOL    HW265167   9.357   2.404   9.489 -1.1654 -2.1397 -0.7064
20759SOL     OW65168   2.090   2.562   1.744 -0.1277 -0.0101  0.0416
20759SOL    HW165169   2.166   2.503   1.743 -0.2055 -0.1193 -0.9625
20759SOL    HW265170   2.018   2.508   1.775 -0.1612 -0.4175 -0.7105
20760SOL     OW65171   4.258   3.432   2.304 -0.2746  0.3492  0.4352
20760SOL    HW165172   4.278   3.464   2.392 -0.2112 -0.8355  0.8633
20760SOL    HW265173   4.225   3.509   2.258 -0.5391  0.9337  1.5642
20761SOL     OW65174   5.932   4.781   5.577  0.3137  0.1320  0.0764
20761SOL    HW165175   5.955   4.698   5.535  0.6031 -0.1353  0.7635
20761SOL    HW265176   5.895   4.833   5.506  0.1670 -0.5675 -0.3740
20762SOL     OW65177   4.849   9.641   3.591  0.0655  0.2360  0.1180
20762SOL    HW165178   4.943   9.655   3.602  0.2906 -1.8256  1.5164
20762SOL    HW265179   4.808   9.713   3.639  0.8987  1.3467 -0.7906
20763SOL     OW65180   3.611   2.862   1.128  0.3269 -0.8544  0.0997
20763SOL    HW165181   3.679   2.830   1.187  1.1917  0.0308 -0.3833
20763SOL    HW265182   3.538   2.802   1.140  0.8732 -1.3093  1.2831
20764SOL     OW65183   4.527   2.755   6.403  0.2687  0.2614 -0.4148
20764SOL    HW165184   4.436   2.784   6.401  0.3948  1.2341  2.9748
20764SOL    HW265185   4.523   2.663   6.429  0.2665  0.0671 -1.0717
20765SOL     OW65186   5.122   0.104   3.864 -0.0384 -0.0019  0.4141
20765SOL    HW165187   5.190   0.170   3.880  0.4383 -0.9684  2.7259
20765SOL    HW265188   5.040   0.147   3.888 -0.3829  1.1810 -2.4198
20766SOL     OW65189   5.216   4.955   6.954 -0.2326  0.0716 -0.7135
20766SOL    HW165190   5.155   4.974   6.882 -2.4365  1.4561  1.3840
20766SOL    HW265191   5.160   4.941   7.030  2.0265 -0.9756  0.8850
20767SOL     OW65192   1.762   1.414   8.772  0.1599  0.4650  0.2962
20767SOL    HW165193   1.845   1.394   8.815  0.3393 -1.0788 -0.6757
20767SOL    HW265194   1.698   1.362   8.821  0.0578  0.2577 -0.0525
20768SOL     OW65195   6.304   6.887   9.631  0.1406 -0.3659 -0.2221
20768SOL    HW165196   6.350   6.971   9.644 -1.1559  0.3684 -0.2122
20768SOL    HW265197   6.356   6.842   9.565  0.4074  0.8191 -0.8550
20769SOL     OW65198   5.944   0.777   1.162 -0.6748 -0.4434 -0.2495
20769SOL    HW165199   5.941   0.842   1.092 -0.6291 -1.3104 -1.0673
20769SOL    HW265200   5.960   0.828   1.242 -2.5940  0.7618 -0.5799
20770SOL     OW65201   2.114   0.417   6.966  0.8253  0.1711 -0.0815
20770SOL    HW165202   2.135   0.426   6.873 -0.5811  1.1461 -0.3458
20770SOL    HW265203   2.095   0.506   6.995 -0.6708 -0.3470  0.6347
20771SOL     OW65204   2.975   7.574   5.212  0.0820  0.4209 -0.0455
20771SOL    HW165205   3.021   7.630   5.149 -1.4437  0.0910 -1.5372
20771SOL    HW265206   2.910   7.632   5.252  1.3903  0.7593  1.6628
20772SOL     OW65207   7.367   7.732   3.266  0.0682 -0.5457  0.1330
20772SOL    HW165208   7.324   7.647   3.266 -0.4947 -0.2666  0.4480
20772SOL    HW265209   7.316   7.785   3.327 -1.0075  0.7060 -1.7161
20773SOL     OW65210   3.607   3.379   1.800  0.0116 -0.0101  0.1033
20773SOL    HW165211   3.525   3.335   1.778  0.7451 -0.3284 -2.2189
20773SOL    HW265212   3.668   3.307   1.820  0.4981  0.0327 -1.1273
20774SOL     OW65213   4.256   6.038   7.380  0.1463 -0.2663  0.5661
20774SOL    HW165214   4.227   5.985   7.305  1.5284 -0.6455  0.2570
20774SOL    HW265215   4.176   6.060   7.427 -0.5366 -2.0946  0.3355
20775SOL     OW65216   2.487   8.174   5.220 -0.2545 -1.0871  0.4396
20775SOL    HW165217   2.513   8.265   5.203 -1.6525 -0.8289 -0.4622
20775SOL    HW265218   2.392   8.178   5.230 -0.5446 -2.6627 -1.2387
20776SOL     OW65219   4.514   6.928   1.467  0.0217 -0.5319  0.1360
20776SOL    HW165220   4.583   6.978   1.423 -1.7415  1.3297 -0.6897
20776SOL    HW265221   4.561   6.865   1.523  2.3388  0.3041 -0.7588
20777SOL     OW65222   7.355   3.895   0.179  0.0058 -0.0492  0.9235
20777SOL    HW165223   7.306   3.836   0.236 -1.3829 -0.2645 -0.4373
20777SOL    HW265224   7.347   3.857   0.092  0.5765  1.2034  0.2981
20778SOL     OW65225   2.279   5.755   0.131 -0.0497 -0.3840 -0.1298
20778SOL    HW165226   2.256   5.839   0.172  0.3137 -0.5990  0.5298
20778SOL    HW265227   2.294   5.777   0.039  1.2689  0.5215  0.2697
20779SOL     OW65228   7.549   9.387   9.189 -0.4324 -0.1245  0.0066
20779SOL    HW165229   7.587   9.331   9.256  0.5317  0.1997 -0.2563
20779SOL    HW265230   7.469   9.422   9.230  0.8186  1.1459  1.5427
20780SOL     OW65231   0.045   9.382   0.969 -0.4108  0.3201  0.4397
20780SOL    HW165232   0.015   9.365   0.880  2.0734 -0.6527 -0.2928
20780SOL    HW265233  -0.027   9.354   1.025 -1.1712 -1.1681 -1.1995
20781SOL     OW65234   1.398   8.054   4.902  0.1944  0.2541 -0.3422
20781SOL    HW165235   1.410   8.100   4.819 -0.7139  0.8769 -0.1393
20781SOL    HW265236   1.457   8.098   4.963 -2.1023  2.5840  0.3764
20782SOL     OW65237   6.329   6.860   2.230 -0.0717 -0.0988  0.5933
20782SOL    HW165238   6.235   6.873   2.220 -0.4448 -3.2330 -1.0325
20782SOL    HW265239   6.354   6.922   2.299 -3.2986  0.7643  1.1604
20783SOL     OW65240   3.099   0.781   6.403 -0.1609 -0.2812  0.3054
20783SOL    HW165241   3.040   0.757   6.475  0.1088 -0.0649  0.6028
20783SOL    HW265242   3.115   0.698   6.357  1.8326 -0.9931  2.1249
20784SOL     OW65243   5.695   8.022   4.285  0.5803  0.6531  0.7328
20784SOL    HW165244   5.643   8.099   4.307  4.7443  3.1821  2.9694
20784SOL    HW265245   5.651   7.950   4.330 -0.8207  2.6690  2.8435
20785SOL     OW65246   9.635   0.552   6.700 -0.1299  0.4761 -0.6621
20785SOL    HW165247   9.642   0.643   6.671  0.5144  0.3870 -0.7963
20785SOL    HW265248   9.725   0.518   6.696 -0.5413 -0.5812 -1.9652
20786SOL     OW65249   8.553   7.600   2.294 -0.2685 -0.1687  0.7922
20786SOL    HW165250   8.579   7.670   2.354  1.4491  1.2765 -1.4629
20786SOL    HW265251   8.617   7.531   2.308  0.7710  0.5893  0.0038
20787SOL     OW65252   4.813   8.608   5.118  0.0674 -0.1785  0.4981
20787SOL    HW165253   4.835   8.582   5.028  1.5701 -0.2162  0.8462
20787SOL    HW265254   4.853   8.541   5.172  0.1927  0.4918  1.2458
20788SOL     OW65255   3.993   4.803   5.194 -0.4566  0.1015  0.4996
20788SOL    HW165256   3.978   4.779   5.286 -2.2123 -1.7812 -0.1742
20788SOL    HW265257   4.076   4.761   5.171 -0.7381 -0.6663  0.8566
20789SOL     OW65258   1.656   2.608   7.222 -0.7144  0.6374 -0.0940
20789SOL    HW165259   1.631   2.521   7.191 -1.5393  1.2458 -1.1884
20789SOL    HW265260   1.700   2.592   7.305 -0.2445 -0.8801 -0.6067
20790SOL     OW65261   9.132   0.647   9.595  0.5967  0.6182  0.2910
20790SOL    HW165262   9.199   0.614   9.655  0.1337  0.5547  0.7796
20790SOL    HW265263   9.060   0.584   9.604  0.7200  0.3180 -0.7205
20791SOL     OW65264   8.939   3.599   1.885 -0.5534 -0.0495  0.4462
20791SOL    HW165265   8.909   3.689   1.881 -0.5030 -0.0862 -1.3645
20791SOL    HW265266   8.859   3.546   1.879 -0.4305 -0.1217 -0.7480
20792SOL     OW65267   8.922   5.311   7.497  0.0933  0.2010 -0.2448
20792SOL    HW165268   9.017   5.303   7.494  0.0318 -0.7717  0.1447
20792SOL    HW265269   8.904   5.357   7.579  0.1864 -0.3961  0.1131
20793SOL     OW65270   7.910   0.206   1.026  0.4134 -0.2702  0.5213
20793SOL    HW165271   7.861   0.173   0.951 -1.0763  0.9287  0.9179
20793SOL    HW265272   7.979   0.261   0.988  0.7918 -1.0808  0.0005
20794SOL     OW65273   6.152   6.713   5.367 -0.1995  0.1667  0.2595
20794SOL    HW165274   6.098   6.640   5.396  0.1816 -0.2102  0.0356
20794SOL    HW265275   6.239   6.693   5.401  0.3008 -0.3840 -1.2706
20795SOL     OW65276   8.302   1.605   9.256 -0.2361 -0.1798 -0.4409
20795SOL    HW165277   8.228   1.548   9.234 -0.9002  1.2403 -2.1053
20795SOL    HW265278   8.335   1.636   9.171  1.8284 -0.1887  0.2886
20796SOL     OW65279   2.560   7.976   2.676  0.1776  0.0297  0.3696
20796SOL    HW165280   2.553   7.900   2.619 -0.5772  0.1969  0.2229
20796SOL    HW265281   2.511   8.044   2.631 -2.1659 -0.3812  2.0788
20797SOL     OW65282   3.661   8.429   3.726 -0.1349  0.5054 -0.5544
20797SOL    HW165283   3.709   8.417   3.808 -0.2962  1.1470 -0.3629
20797SOL    HW265284   3.724   8.468   3.666  0.3161 -0.9840 -1.1021
20798SOL     OW65285   2.024   5.047   6.555 -0.0834  0.3084 -0.3944
20798SOL    HW165286   1.994   4.959   6.579  0.2265 -0.0206 -1.1585
20798SOL    HW265287   1.947   5.088   6.515  0.0474  0.0067 -0.9729
20799SOL     OW65288   2.641   0.460   7.362  0.6454 -0.0042 -0.4321
20799SOL    HW165289   2.590   0.456   7.282  0.5829  3.2702 -0.6905
20799SOL    HW265290   2.590   0.514   7.422  1.5305 -0.8478  1.1902
20800SOL     OW65291   7.586   5.077   6.919 -1.0143 -0.0064 -0.1747
20800SOL    HW165292   7.569   5.122   7.002 -0.0189 -0.5244  0.3197
20800SOL    HW265293   7.542   4.993   6.928 -0.4186 -0.2947  0.0631
20801SOL     OW65294   3.676   9.085   3.037 -0.3814 -0.0703  0.2195
20801SOL    HW165295   3.690   9.083   3.132 -2.6698  0.8595  0.6588
20801SOL    HW265296   3.609   9.153   3.025 -1.3961 -1.3618 -1.8733
20802SOL     OW65297   0.071   8.945   6.845 -0.3788 -0.4447  0.2167
20802SOL    HW165298  -0.009   8.941   6.793 -1.1133  1.0398  1.1603
20802SOL    HW265299   0.094   9.038   6.848 -2.0854  0.1365  4.8607
20803SOL     OW65300   8.123   8.808   9.039  0.1212 -0.1187 -0.4961
20803SOL    HW165301   8.177   8.732   9.018  0.6419  0.2134 -0.3677
20803SOL    HW265302   8.158   8.879   8.986 -0.3834  0.0293 -0.6405
20804SOL     OW65303   1.622   2.584   1.762 -0.2019  0.3186 -0.0598
20804SOL    HW165304   1.570   2.603   1.840 -1.9382  1.6668 -1.4588
20804SOL    HW265305   1.568   2.524   1.711 -0.3972  1.6475 -1.4929
20805SOL     OW65306   0.426   5.811   5.439 -0.3719  0.0691 -0.0433
20805SOL    HW165307   0.447   5.749   5.509 -1.4685  0.4229  0.6308
20805SOL    HW265308   0.365   5.872   5.479  1.9552  2.6694 -0.1407
20806SOL     OW65309   4.778   6.673   5.950 -0.0181 -0.6534 -0.3036
20806SOL    HW165310   4.862   6.626   5.952 -0.0694 -0.7113  0.5493
20806SOL    HW265311   4.731   6.633   5.877 -0.5020 -2.7175  1.0730
20807SOL     OW65312   1.271   4.269   4.929 -0.2383 -0.4272 -0.4045
20807SOL    HW165313   1.181   4.299   4.917 -0.5360 -0.8501  0.6967
20807SOL    HW265314   1.271   4.178   4.898  0.0375 -0.1523 -1.2485
20808SOL     OW65315   9.484   5.132   5.112  1.0772 -0.0805 -0.2654
20808SOL    HW165316   9.474   5.226   5.096  1.5302  0.1362  0.6474
20808SOL    HW265317   9.560   5.106   5.062  2.7215  0.6679  1.6956
20809SOL     OW65318   0.305   4.579   5.135 -0.6337  0.1062 -0.1551
20809SOL    HW165319   0.291   4.562   5.042  0.0480  0.3484 -0.3080
20809SOL    HW265320   0.296   4.674   5.143 -0.8614  0.0659  0.0538
20810SOL     OW65321   3.068   9.178   6.270  0.4561  0.2385 -0.0496
20810SOL    HW165322   3.132   9.232   6.317  0.6306 -0.5324  0.6284
20810SOL    HW265323   3.051   9.225   6.189 -0.9292  2.3627  1.3697
20811SOL     OW65324   4.220   9.387   2.103  0.0928  0.3557  0.3426
20811SOL    HW165325   4.306   9.383   2.061  0.7419  0.1176  1.6345
20811SOL    HW265326   4.239   9.380   2.196 -1.3612 -0.0366  0.6341
20812SOL     OW65327   5.295   7.922   6.953  0.0817  0.1695  0.0982
20812SOL    HW165328   5.300   7.865   7.030 -2.1242  1.0761  1.0181
20812SOL    HW265329   5.361   7.989   6.968  0.0884 -0.0088  0.9360
20813SOL     OW65330   8.882   7.009   3.719  0.3022 -0.0716 -0.4440
20813SOL    HW165331   8.949   7.075   3.736 -0.3602  0.3809  0.4605
20813SOL    HW265332   8.915   6.930   3.761 -0.9072  0.8084  2.3945
20814SOL     OW65333   8.083   0.429   7.521 -1.0539  0.5044 -0.2681
20814SOL    HW165334   8.175   0.456   7.518 -0.8488 -0.2717 -1.9301
20814SOL    HW265335   8.086   0.336   7.541 -1.4782  0.4750 -0.3241
20815SOL     OW65336   5.812   4.615   4.320  0.0450 -0.5199  0.3529
20815SOL    HW165337   5.836   4.598   4.411  3.2250 -0.3125 -0.3373
20815SOL    HW265338   5.877   4.568   4.269 -0.9901  0.2843 -1.8215
20816SOL     OW65339   8.945   6.104   4.839 -0.1951 -0.5771  0.0159
20816SOL    HW165340   8.992   6.187   4.835 -1.1001 -0.0969 -1.2022
20816SOL    HW265341   8.995   6.045   4.782 -1.4654  0.1826 -1.9933
20817SOL     OW65342   3.291   1.620   2.366 -0.8480  0.0356  0.1841
20817SOL    HW165343   3.357   1.655   2.306 -2.0572 -0.5234 -1.5485
20817SOL    HW265344   3.271   1.694   2.424  1.2878  0.2027  0.7796
20818SOL     OW65345   3.237   4.446   7.276 -0.6498  0.0659 -0.2992
20818SOL    HW165346   3.235   4.533   7.235  0.0048  0.5080  0.5806
20818SOL    HW265347   3.315   4.404   7.238 -1.0506 -0.2014 -0.8374
20819SOL     OW65348   4.803   0.456   1.351  0.1295 -0.7244 -0.2471
20819SOL    HW165349   4.827   0.364   1.363  0.2542 -0.7356 -0.5806
20819SOL    HW265350   4.741   0.473   1.422  1.6801 -0.4802  1.1096
20820SOL     OW65351   6.802   6.801   6.982  0.2128  0.2185 -0.5658
20820SOL    HW165352   6.872   6.800   7.048  0.9996  1.1006 -1.3515
20820SOL    HW265353   6.785   6.894   6.967 -2.0437  0.0373  0.5116
20821SOL     OW65354   8.005   4.213   8.660  0.2197 -0.0404 -0.1042
20821SOL    HW165355   7.993   4.123   8.628  1.9286  0.0096 -1.0079
20821SOL    HW265356   8.100   4.223   8.668 -0.0059  1.0777  1.8473
20822SOL     OW65357   3.789   4.339   8.266  0.6893  0.2118  0.4479
20822SOL    HW165358   3.837   4.390   8.332  1.3057  0.6018 -0.2820
20822SOL    HW265359   3.819   4.375   8.182  0.5640 -0.8496 -0.0679
20823SOL     OW65360   3.297   9.049   8.464 -0.2601 -0.2945  0.5271
20823SOL    HW165361   3.297   8.986   8.392  0.3356  1.1423 -0.7869
20823SOL    HW265362   3.343   9.004   8.535 -0.6918 -1.6827 -0.0440
20824SOL     OW65363   6.136   1.005   6.383  0.1384 -0.0786 -0.4788
20824SOL    HW165364   6.207   1.054   6.341  0.6107 -1.6260 -1.5960
20824SOL    HW265365   6.124   0.929   6.327  0.2119 -1.8505  1.7694
20825SOL     OW65366   0.908   2.165   1.995 -0.5100 -0.0922  0.0225
20825SOL    HW165367   0.958   2.191   1.917 -1.0783  0.7073 -0.0868
20825SOL    HW265368   0.903   2.245   2.048  1.1551 -0.9669  1.6168
20826SOL     OW65369   5.744   8.227   6.801 -0.2275 -0.1216  0.3084
20826SOL    HW165370   5.830   8.199   6.770 -0.6698  0.1211 -1.2015
20826SOL    HW265371   5.730   8.312   6.760 -1.5201 -0.5265 -0.1477
20827SOL     OW65372   3.011   0.322   1.355 -0.1271 -0.1439  0.7521
20827SOL    HW165373   2.940   0.379   1.326 -0.6022 -0.3060  1.5573
20827SOL    HW265374   3.089   0.378   1.353 -0.1542 -0.1249 -0.6892
20828SOL     OW65375   0.144   4.936   5.269 -0.0356  0.0134 -0.0195
20828SOL    HW165376   0.106   5.022   5.285 -0.6427 -0.3894  0.8013
20828SOL    HW265377   0.075   4.874   5.295  0.0785 -0.7263 -1.3813
20829SOL     OW65378   5.897   6.409   6.757 -0.6621 -0.0792 -0.2581
20829SOL    HW165379   5.822   6.350   6.766 -0.9192  0.5206  2.0931
20829SOL    HW265380   5.858   6.495   6.744 -0.3682  0.1031  0.0469
20830SOL     OW65381   5.693   2.891   3.946 -0.6251 -0.1508 -0.3488
20830SOL    HW165382   5.778   2.901   3.904 -0.3980  0.2526  0.2045
20830SOL    HW265383   5.713   2.862   4.035 -0.8530  3.0927  0.8872
20831SOL     OW65384   8.599   9.192   0.353 -0.3200 -0.4071  0.2115
20831SOL    HW165385   8.612   9.207   0.260  0.8284 -0.6798  0.3107
20831SOL    HW265386   8.684   9.210   0.393 -0.2819 -2.0206  0.9686
20832SOL     OW65387   7.893   2.392   5.741 -0.0204  0.1598 -0.6989
20832SOL    HW165388   7.900   2.481   5.776  0.7878 -0.4756  0.8940
20832SOL    HW265389   7.928   2.397   5.653  1.7337  1.0933  0.0124
20833SOL     OW65390   8.708   8.608   2.233 -0.2079 -0.3299 -0.4687
20833SOL    HW165391   8.716   8.616   2.328  0.2588 -1.3073 -0.4144
20833SOL    HW265392   8.773   8.669   2.198 -0.0481 -0.3169 -0.1528
20834SOL     OW65393   5.104   7.696   5.274  0.0570  0.1625  0.1382
20834SOL    HW165394   5.121   7.613   5.228  0.4702 -0.0332  0.6373
20834SOL    HW265395   5.170   7.699   5.343  0.7534  1.4286 -0.5488
20835SOL     OW65396   2.678   2.354   4.603  0.5828 -0.5132 -1.1094
20835SOL    HW165397   2.717   2.408   4.672  1.0017 -1.0665 -0.9076
20835SOL    HW265398   2.600   2.315   4.644  0.3371 -0.1439 -1.2237
20836SOL     OW65399   4.935   0.918   3.350  0.3375  0.0005  0.0642
20836SOL    HW165400   5.012   0.913   3.293 -0.2537  0.4853 -0.8009
20836SOL    HW265401   4.919   0.828   3.376  0.3209 -0.3041 -0.9607
20837SOL     OW65402   8.643   9.134   8.918 -0.1116 -0.0642  0.1191
20837SOL    HW165403   8.636   9.171   8.830 -1.1640  1.4558  0.7948
20837SOL    HW265404   8.622   9.207   8.977  3.6373 -0.1098  1.8179
20838SOL     OW65405   0.943   5.966   0.904 -0.3805  0.1581 -0.6323
20838SOL    HW165406   0.859   5.971   0.950 -0.6024  0.3945 -1.0606
20838SOL    HW265407   0.995   5.904   0.956 -0.8759 -0.1173 -0.4584
20839SOL     OW65408   3.918   3.724   9.131  0.2102 -0.1586  0.8377
20839SOL    HW165409   3.846   3.688   9.078 -0.2455  1.1045  0.5598
20839SOL    HW265410   3.908   3.682   9.216 -1.7124  0.9649  1.2247
20840SOL     OW65411   5.318   4.717   3.849  0.0980  0.2785  0.0570
20840SOL    HW165412   5.359   4.757   3.772  0.8388  0.0402  0.3143
20840SOL    HW265413   5.228   4.701   3.822  0.2478  0.5363 -0.6368
20841SOL     OW65414   6.975   3.482   8.376  0.5546 -0.2867 -0.4653
20841SOL    HW165415   7.044   3.516   8.433  1.2262 -1.3165 -0.6260
20841SOL    HW265416   7.022   3.428   8.313 -0.5525 -2.9857  0.8602
20842SOL     OW65417   4.526   3.220   9.498  0.5455 -0.6336  0.5421
20842SOL    HW165418   4.464   3.210   9.569  1.3775 -1.3171  1.1956
20842SOL    HW265419   4.515   3.310   9.468 -1.2148 -0.9436  0.1814
20843SOL     OW65420   5.018   5.774   2.553 -0.2762  0.0276  0.3500
20843SOL    HW165421   4.942   5.752   2.499 -0.8091 -1.4899  1.6432
20843SOL    HW265422   4.988   5.845   2.610  0.5542  2.2846 -1.8129
20844SOL     OW65423   6.800   3.544   3.920  0.2978  0.7276  0.5002
20844SOL    HW165424   6.869   3.579   3.977 -2.0431  1.2349  3.2556
20844SOL    HW265425   6.751   3.621   3.892  1.3477  0.4848 -2.3702
20845SOL     OW65426   6.399   8.947   7.399  0.4552 -0.3528  0.2065
20845SOL    HW165427   6.409   9.042   7.401 -0.0988 -0.1870 -2.2987
20845SOL    HW265428   6.313   8.931   7.439 -1.2147  0.6122 -2.7120
20846SOL     OW65429   0.697   8.416   2.231  0.0714 -0.0421  0.2325
20846SOL    HW165430   0.608   8.408   2.265  0.3096  0.8754  1.1030
20846SOL    HW265431   0.686   8.415   2.136 -1.0102  1.3242  0.3135
20847SOL     OW65432   6.537   3.067   5.586 -0.2884  0.1138 -0.1103
20847SOL    HW165433   6.531   3.053   5.492 -0.6729  2.2543 -0.4476
20847SOL    HW265434   6.631   3.061   5.605 -0.3238 -1.8073 -0.3228
20848SOL     OW65435   9.561   3.647   0.748 -0.2278 -0.1573  0.2292
20848SOL    HW165436   9.548   3.689   0.663  0.7713  0.9224  0.5904
20848SOL    HW265437   9.475   3.653   0.791 -1.0631 -1.7537 -1.1202
20849SOL     OW65438   1.925   5.751   1.193 -0.3500 -0.4139 -0.6789
20849SOL    HW165439   2.005   5.720   1.152 -0.1472 -0.6733 -0.0949
20849SOL    HW265440   1.940   5.845   1.207  0.3592 -0.6936  0.5596
20850SOL     OW65441   5.804   6.727   8.922 -0.9499  0.9653 -0.3839
20850SOL    HW165442   5.732   6.720   8.985  0.8362 -0.5891  1.6115
20850SOL    HW265443   5.792   6.813   8.881 -2.2725  1.9824  1.9627
20851SOL     OW65444   8.375   6.548   8.901 -0.2505  0.6115  0.8370
20851SOL    HW165445   8.450   6.549   8.842 -0.8936 -1.2234 -0.0894
20851SOL    HW265446   8.401   6.488   8.971 -1.2458 -1.0090 -0.1205
20852SOL     OW65447   1.962   2.781   4.286 -0.0731  0.2685 -0.1637
20852SOL    HW165448   1.971   2.697   4.241  0.2007  0.6108 -0.7657
20852SOL    HW265449   1.976   2.847   4.217  0.5787  0.8042  0.4550
20853SOL     OW65450   3.971   3.461   4.613  0.0842  0.3951 -0.0728
20853SOL    HW165451   3.892   3.510   4.590  0.0862  0.8363  0.7855
20853SOL    HW265452   4.034   3.483   4.545 -0.3282  0.5594 -0.4074
20854SOL     OW65453   9.605   5.358   8.493  0.6357 -0.4379  0.5584
20854SOL    HW165454   9.535   5.410   8.530  0.8314  0.4200 -0.2394
20854SOL    HW265455   9.658   5.420   8.443  1.1104 -1.3189 -0.0772
20855SOL     OW65456   4.829   4.401   4.305 -0.0477  0.2187  0.2073
20855SOL    HW165457   4.806   4.338   4.236  0.2115 -0.2866  0.5772
20855SOL    HW265458   4.906   4.446   4.271 -0.5639  0.7451 -0.3050
20856SOL     OW65459   4.261   3.057   6.476  0.7207 -0.0966  0.1820
20856SOL    HW165460   4.261   2.961   6.473 -0.6308 -0.1018 -0.3341
20856SOL    HW265461   4.294   3.083   6.390 -0.2180 -0.1229 -0.2017
20857SOL     OW65462   0.318   2.543   0.149 -0.6249 -0.5611  0.5542
20857SOL    HW165463   0.357   2.617   0.104 -2.1427 -0.4569 -0.6693
20857SOL    HW265464   0.375   2.469   0.127 -0.0164 -0.0689  0.4499
20858SOL     OW65465   5.809   7.775   2.046  0.3688  0.0133  0.2264
20858SOL    HW165466   5.874   7.710   2.020 -0.1545  0.1343 -1.5438
20858SOL    HW265467   5.828   7.851   1.991 -0.5661  0.4456  0.4807
20859SOL     OW65468   6.695   0.023   1.206 -0.3627 -0.0894 -0.3693
20859SOL    HW165469   6.700   0.026   1.111  2.3675 -0.0682 -0.3180
20859SOL    HW265470   6.775  -0.024   1.233  0.0377  1.7144  1.9672
20860SOL     OW65471   8.561   7.639   6.140  0.2022 -0.0542 -0.5392
20860SOL    HW165472   8.625   7.663   6.074  0.6860 -0.3779 -0.1894
20860SOL    HW265473   8.579   7.547   6.160 -0.8085 -0.3534 -0.9319
20861SOL     OW65474   0.901   9.605   4.142  0.2896  0.0245  0.2276
20861SOL    HW165475   0.886   9.511   4.150  0.5594  0.0680  1.4004
20861SOL    HW265476   0.928   9.633   4.230  0.1605  1.2051 -0.0861
20862SOL     OW65477   0.787   1.025   4.429 -0.3627 -0.2581  0.5893
20862SOL    HW165478   0.881   1.016   4.445  0.2105  0.9730 -1.7826
20862SOL    HW265479   0.764   0.948   4.378 -0.4374 -0.1008  0.3843
20863SOL     OW65480   4.661   1.309   0.118  0.1950 -0.1406 -0.0975
20863SOL    HW165481   4.679   1.235   0.060  1.2605  0.8026 -1.0288
20863SOL    HW265482   4.599   1.275   0.182  0.8479 -1.9146 -0.3403
20864SOL     OW65483   4.685   1.864   3.874 -0.0791 -0.1980  0.4423
20864SOL    HW165484   4.745   1.900   3.938  0.4288 -1.2995  0.6189
20864SOL    HW265485   4.637   1.795   3.921  0.3990 -1.1176 -0.3609
20865SOL     OW65486   7.840   7.605   7.274  0.1438  0.6399 -0.5572
20865SOL    HW165487   7.884   7.521   7.282 -0.6230  0.3555  0.9964
20865SOL    HW265488   7.902   7.668   7.310  0.3236  0.6141 -0.8164
20866SOL     OW65489   5.061   0.019   9.385  0.1776  0.2862 -0.4578
20866SOL    HW165490   5.091  -0.067   9.356  1.2936  0.4779  0.0824
20866SOL    HW265491   5.031   0.005   9.475  3.5658  1.0520  0.9287
20867SOL     OW65492   6.511   5.272   2.719 -0.1061  0.4232  1.0047
20867SOL    HW165493   6.465   5.353   2.700 -0.0198  0.1828 -0.3182
20867SOL    HW265494   6.448   5.220   2.769 -1.2707  0.1391 -0.6994
20868SOL     OW65495   0.437   1.193   3.776 -0.9759  0.1498  0.2213
20868SOL    HW165496   0.377   1.211   3.848 -0.9861 -1.4372  0.6581
20868SOL    HW265497   0.521   1.228   3.805 -0.8168 -1.0838  1.3508
20869SOL     OW65498   5.802   9.424   1.594 -0.8604 -1.0544 -0.0326
20869SOL    HW165499   5.800   9.370   1.515  0.5970 -0.2021 -0.6756
20869SOL    HW265500   5.712   9.418   1.628 -1.5622 -1.3433 -1.8001
20870SOL     OW65501   9.642   4.751   9.019  0.7480 -0.2809 -0.0038
20870SOL    HW165502   9.636   4.738   8.924  0.8183  0.1228 -0.0641
20870SOL    HW265503   9.613   4.841   9.032 -0.0519 -0.5903  0.4448
20871SOL     OW65504   7.568   6.852   3.624 -0.6244 -0.3671  0.8633
20871SOL    HW165505   7.545   6.928   3.677 -0.5855 -1.0980  1.9647
20871SOL    HW265506   7.663   6.848   3.627 -0.5480  0.2447 -0.2331
20872SOL     OW65507   2.584   1.081   4.560 -0.0380  0.2677  0.2620
20872SOL    HW165508   2.661   1.099   4.613  0.1939  1.7374 -0.5078
20872SOL    HW265509   2.512   1.123   4.607 -0.2226 -0.3476  0.5352
20873SOL     OW65510   1.115   7.679   0.444 -0.5526 -0.0456 -0.0643
20873SOL    HW165511   1.122   7.738   0.519 -1.0483  0.5514 -0.4713
20873SOL    HW265512   1.193   7.698   0.391 -0.1841 -0.4939  0.3143
20874SOL     OW65513   6.494   2.312   9.399  0.7486  0.0861  0.0453
20874SOL    HW165514   6.408   2.272   9.404  0.7304 -0.4401 -2.7606
20874SOL    HW265515   6.476   2.404   9.381  0.8199  0.3638  1.2740
20875SOL     OW65516   6.576   6.248   6.945  0.6748 -0.2188  0.2404
20875SOL    HW165517   6.519   6.175   6.922  0.5947 -0.1959  0.3640
20875SOL    HW265518   6.521   6.326   6.932  1.5023  0.0376 -2.3786
20876SOL     OW65519   0.878   6.532   2.555  0.3356  0.2873 -0.0710
20876SOL    HW165520   0.860   6.597   2.486 -1.2301  1.1948  1.1298
20876SOL    HW265521   0.887   6.584   2.635  2.7120 -0.6948  0.3867
20877SOL     OW65522   5.412   3.624   0.447  0.0816  0.4271  0.4796
20877SOL    HW165523   5.403   3.590   0.536 -1.0704 -2.4819 -0.6260
20877SOL    HW265524   5.323   3.648   0.421  0.2870  0.5252 -0.1658
20878SOL     OW65525   5.551   1.409   0.718 -0.3431  0.1981  0.1677
20878SOL    HW165526   5.492   1.340   0.687  0.0849  0.6736 -1.8969
20878SOL    HW265527   5.589   1.374   0.799 -0.1042 -2.0348 -0.8295
20879SOL     OW65528   7.571   7.107   3.760 -0.3987 -0.1962 -0.0455
20879SOL    HW165529   7.657   7.103   3.719 -2.0263  0.2036 -3.8482
20879SOL    HW265530   7.555   7.200   3.773 -1.3413 -0.0652 -1.9814
20880SOL     OW65531   8.532   1.577   3.796 -0.0848  0.3601  0.3153
20880SOL    HW165532   8.448   1.558   3.838  0.1377  2.5463  1.9346
20880SOL    HW265533   8.515   1.653   3.740  0.7285  0.6345  0.4146
20881SOL     OW65534   8.993   7.412   4.917  0.1895 -0.3313  0.5625
20881SOL    HW165535   8.957   7.326   4.936  1.3311 -0.7978  0.7038
20881SOL    HW265536   9.086   7.404   4.938  0.5620  0.5538 -0.6359
20882SOL     OW65537   5.029   4.537   2.565  0.2292 -0.1341  0.2848
20882SOL    HW165538   5.031   4.598   2.491  1.1028 -0.3062  0.1638
20882SOL    HW265539   4.941   4.548   2.602  0.3869  1.2697  0.3228
20883SOL     OW65540   3.849   8.853   2.006  0.0745  0.3365  0.2950
20883SOL    HW165541   3.919   8.917   2.019  0.2810  0.6785 -2.0525
20883SOL    HW265542   3.789   8.895   1.944  0.7414 -2.0483 -2.1763
20884SOL     OW65543   0.029   3.559   2.552  0.7064 -0.0804  0.9194
20884SOL    HW165544   0.071   3.473   2.547  0.0898 -0.3080 -1.0986
20884SOL    HW265545  -0.046   3.553   2.493  0.8989  1.9739  0.4086
20885SOL     OW65546   3.675   3.171   7.036 -0.0139  0.0637  0.3282
20885SOL    HW165547   3.741   3.142   6.973 -1.7339 -2.3547 -0.4901
20885SOL    HW265548   3.676   3.104   7.104 -1.1154  0.3764  0.6732
20886SOL     OW65549   9.605   0.956   1.819  0.0901  0.1698 -0.6310
20886SOL    HW165550   9.636   0.870   1.791 -0.0273 -0.7100  1.7256
20886SOL    HW265551   9.526   0.971   1.769 -1.4303 -2.4011  0.8088
20887SOL     OW65552   9.611   4.529   7.249  0.2458 -0.2695 -0.4027
20887SOL    HW165553   9.569   4.488   7.324  0.4251  1.5819  0.7853
20887SOL    HW265554   9.552   4.602   7.226  0.1700 -0.8309 -2.1128
20888SOL     OW65555   4.412   2.202   7.713  0.0931 -0.0309  0.0006
20888SOL    HW165556   4.389   2.137   7.779  1.2763  0.1162  0.5812
20888SOL    HW265557   4.352   2.275   7.730  0.1309 -0.1503  0.6488
20889SOL     OW65558   0.981   1.390   0.820  0.4642  0.2414  0.3530
20889SOL    HW165559   1.008   1.358   0.906  1.5756 -0.2427 -0.1468
20889SOL    HW265560   0.895   1.352   0.805  0.3594  0.1621  1.1595
20890SOL     OW65561   8.993   4.864   5.865 -0.1049 -0.1413 -0.3687
20890SOL    HW165562   8.989   4.770   5.884  2.4012 -0.0499  0.9309
20890SOL    HW265563   8.974   4.906   5.948 -0.4477  0.5138 -0.7701
20891SOL     OW65564   3.336   5.780   4.494  0.2452 -0.0165  0.7253
20891SOL    HW165565   3.311   5.715   4.558 -0.7058  0.5900  0.9825
20891SOL    HW265566   3.256   5.797   4.444  1.0220 -0.6890 -0.8322
20892SOL     OW65567   4.729   1.610   1.141  0.6969 -0.0236 -0.1030
20892SOL    HW165568   4.781   1.598   1.220  0.8174  1.4920  0.0745
20892SOL    HW265569   4.662   1.675   1.166  0.8740  0.6400 -1.2833
20893SOL     OW65570   1.596   7.739   6.465 -0.0282  0.3413  0.3211
20893SOL    HW165571   1.509   7.699   6.469 -0.3578  1.0795  0.7803
20893SOL    HW265572   1.585   7.814   6.407  0.7371 -0.5796 -1.0525
20894SOL     OW65573   5.784   4.577   6.591 -0.0146  0.0291  0.1252
20894SOL    HW165574   5.787   4.486   6.621 -0.9721  0.0760  0.4005
20894SOL    HW265575   5.773   4.628   6.671 -0.4498  0.3115 -0.1114
20895SOL     OW65576   6.901   3.983   9.269  0.6504  0.1030 -0.6362
20895SOL    HW165577   6.992   3.988   9.239  0.6627  0.4900 -0.5383
20895SOL    HW265578   6.882   3.889   9.274  1.4754 -0.0252  0.6178
20896SOL     OW65579   5.817   4.336   5.854 -0.9753 -0.3949  0.1348
20896SOL    HW165580   5.855   4.325   5.767 -0.1395 -1.0493  0.5620
20896SOL    HW265581   5.729   4.371   5.838 -0.5217  0.3241 -0.9261
20897SOL     OW65582   5.714   6.509   7.806  0.4762  0.5627 -0.0736
20897SOL    HW165583   5.753   6.435   7.760  0.7712  0.0203  1.0108
20897SOL    HW265584   5.787   6.549   7.854  0.0099  0.4769  0.7396
20898SOL     OW65585   4.899   9.176   6.325  0.3010 -0.3096 -0.0566
20898SOL    HW165586   4.928   9.249   6.271  0.0553  0.4888  0.8611
20898SOL    HW265587   4.977   9.149   6.374  0.1303  0.0844  0.4379
20899SOL     OW65588   1.372   8.817   0.913 -0.4161  0.2203  0.1346
20899SOL    HW165589   1.355   8.911   0.917 -0.4702  0.2061  0.2428
20899SOL    HW265590   1.296   8.777   0.956 -0.3875  0.1280  0.0993
20900SOL     OW65591   1.167   3.244   7.944  0.1145  0.0331  0.1219
20900SOL    HW165592   1.078   3.280   7.936  0.2169  0.3241  0.2583
20900SOL    HW265593   1.206   3.257   7.858 -0.3820 -1.2281 -0.3183
20901SOL     OW65594   1.887   6.483   7.870  0.0657 -0.1171  0.8069
20901SOL    HW165595   1.857   6.541   7.800 -0.2368 -0.2531  0.8227
20901SOL    HW265596   1.976   6.513   7.889 -0.3403  0.8243  1.3243
20902SOL     OW65597   1.770   4.366   8.310 -0.0282 -0.6583 -0.0495
20902SOL    HW165598   1.812   4.322   8.236 -0.0037 -0.9248  0.1180
20902SOL    HW265599   1.838   4.368   8.378  0.3894  0.7759 -0.4731
20903SOL     OW65600   0.116   4.526   6.788  0.2951  0.2835  0.8494
20903SOL    HW165601   0.089   4.574   6.866  0.7765  1.2567  0.4453
20903SOL    HW265602   0.043   4.538   6.727  1.1852  2.1773  0.0676
20904SOL     OW65603   0.112   7.510   2.332 -0.2090 -0.0527  0.3818
20904SOL    HW165604   0.207   7.512   2.342  0.2093  2.7049 -2.3024
20904SOL    HW265605   0.078   7.530   2.419  1.7046 -0.0846  1.1873
20905SOL     OW65606   3.012   6.914   1.533  0.2622 -0.1216 -0.2812
20905SOL    HW165607   2.949   6.970   1.580 -0.9056 -1.6992  0.1152
20905SOL    HW265608   3.039   6.967   1.458 -0.9053  0.9319 -0.0005
20906SOL     OW65609   7.268   6.061   6.934  0.4543 -0.0773 -0.1809
20906SOL    HW165610   7.313   5.995   6.881  1.3318  0.5285 -0.2010
20906SOL    HW265611   7.219   6.114   6.871 -0.7452 -1.0443 -0.1168
20907SOL     OW65612   6.248   7.460   8.144  0.0883  0.1516 -0.7065
20907SOL    HW165613   6.213   7.372   8.158  0.3609  0.3629  1.5970
20907SOL    HW265614   6.206   7.513   8.212  3.0258  0.9130  0.6678
20908SOL     OW65615   6.635   7.495   2.328  0.2659 -0.1544  0.5319
20908SOL    HW165616   6.688   7.541   2.263  0.0509 -0.7172 -0.0540
20908SOL    HW265617   6.695   7.432   2.368  0.1515 -0.4827  0.1860
20909SOL     OW65618   1.968   9.348   6.301 -0.3803  0.7833  0.3552
20909SOL    HW165619   2.042   9.385   6.253 -1.3600  0.1279 -1.7629
20909SOL    HW265620   1.895   9.406   6.282 -0.8568  0.3835  0.8967
20910SOL     OW65621   6.133   4.886   3.138 -0.2353  0.0860  0.2244
20910SOL    HW165622   6.145   4.981   3.148 -0.9121  0.2938 -0.8534
20910SOL    HW265623   6.178   4.865   3.056  1.3570 -0.8332  1.2674
20911SOL     OW65624   3.437   5.084   4.485  0.3574  0.2267 -0.3240
20911SOL    HW165625   3.409   5.175   4.489  2.1706  0.8088  0.0143
20911SOL    HW265626   3.408   5.046   4.567 -1.1347  0.2372 -0.8071
20912SOL     OW65627   8.093   2.451   6.118  0.2170 -0.4864 -0.1154
20912SOL    HW165628   8.079   2.539   6.155  1.8909 -0.5405  0.7794
20912SOL    HW265629   8.022   2.398   6.155 -1.2670  0.6255 -1.2718
20913SOL     OW65630   3.425   4.040   6.650  0.3782  0.5012 -0.0178
20913SOL    HW165631   3.393   4.113   6.702  0.5100 -1.4984  3.1804
20913SOL    HW265632   3.367   3.967   6.674  2.2727 -1.2269 -0.3864
20914SOL     OW65633   0.976   2.557   8.796  0.2857 -0.3157  0.0254
20914SOL    HW165634   1.022   2.573   8.714 -1.3187 -0.9958 -1.0719
20914SOL    HW265635   1.038   2.509   8.850  1.6798  0.8993 -0.4281
20915SOL     OW65636   6.707   3.338   4.579 -0.5522  0.0112  0.3200
20915SOL    HW165637   6.654   3.270   4.537  0.4366 -0.6186  0.0641
20915SOL    HW265638   6.695   3.415   4.523  0.7312 -0.8078 -1.1561
20916SOL     OW65639   7.569   7.832   3.102 -0.5531  0.2960  0.0337
20916SOL    HW165640   7.503   7.783   3.151 -0.5121  1.5301  1.3804
20916SOL    HW265641   7.652   7.809   3.143  0.1434 -2.3585 -2.5457
20917SOL     OW65642   8.785   6.457   3.356 -0.5295  0.4183  0.4723
20917SOL    HW165643   8.878   6.472   3.369 -0.2405 -1.8971  1.5380
20917SOL    HW265644   8.758   6.407   3.433 -1.8681 -1.9403 -1.4125
20918SOL     OW65645   8.839   3.457   6.252 -0.0331 -0.6872 -0.3658
20918SOL    HW165646   8.857   3.535   6.200  1.9030 -0.3002  0.7734
20918SOL    HW265647   8.822   3.388   6.187 -1.6081  0.5928 -1.3901
20919SOL     OW65648   2.122   2.316   2.521  0.2827  0.4320 -0.8090
20919SOL    HW165649   2.088   2.232   2.553  0.5022  0.1985 -1.1808
20919SOL    HW265650   2.121   2.373   2.597 -0.6666  0.3424 -0.7363
20920SOL     OW65651   6.966   2.083   8.267 -0.6639  0.1393  0.0871
20920SOL    HW165652   6.884   2.118   8.233  0.0695 -0.9718 -3.2101
20920SOL    HW265653   6.986   2.009   8.210  1.2444 -1.4231  2.5582
20921SOL     OW65654   4.300   2.028   7.878 -0.3569 -0.0460  0.7868
20921SOL    HW165655   4.208   2.003   7.866 -0.3325 -0.2338  0.9855
20921SOL    HW265656   4.340   1.952   7.920 -0.1185  0.0521  0.7378
20922SOL     OW65657   5.143   0.539   6.579 -0.2055  0.3109 -0.3591
20922SOL    HW165658   5.235   0.515   6.569 -0.1261  0.5216 -0.1565
20922SOL    HW265659   5.099   0.499   6.504 -0.8030 -4.1436  1.9809
20923SOL     OW65660   1.913   7.703   1.357  0.2094 -0.3018  0.5824
20923SOL    HW165661   1.921   7.608   1.370  0.2277 -0.1829  1.5508
20923SOL    HW265662   1.861   7.733   1.432 -1.2531  0.2423 -0.6049
20924SOL     OW65663   8.714   1.463   1.613  0.4370 -0.2087  0.2161
20924SOL    HW165664   8.652   1.456   1.685  0.0779  0.1576 -0.0509
20924SOL    HW265665   8.730   1.372   1.587 -0.1852 -0.3010  0.1266
20925SOL     OW65666   4.617   6.582   6.698 -0.5904 -0.0241  0.0165
20925SOL    HW165667   4.687   6.543   6.750 -1.1848 -1.3064 -0.0941
20925SOL    HW265668   4.552   6.611   6.762 -1.1434 -1.2462  0.0342
20926SOL     OW65669   7.586   1.874   1.206 -0.5120 -0.3360  0.1811
20926SOL    HW165670   7.494   1.883   1.181 -0.1429 -0.3822 -1.3434
20926SOL    HW265671   7.596   1.930   1.283 -1.8672 -0.5426  0.5243
20927SOL     OW65672   7.576   9.049   8.415  0.3248  0.2664 -0.1251
20927SOL    HW165673   7.503   9.061   8.476  0.2606  0.3420 -0.2152
20927SOL    HW265674   7.561   8.963   8.377  0.1868  0.3544 -0.2708
20928SOL     OW65675   1.555   4.459   2.642 -0.0222  0.5759 -0.4772
20928SOL    HW165676   1.588   4.530   2.586 -1.6095  1.2275 -0.6192
20928SOL    HW265677   1.460   4.468   2.638 -0.1886 -0.1223  1.3892
20929SOL     OW65678   3.339   5.146   3.676  0.2499 -0.1510  0.4447
20929SOL    HW165679   3.361   5.139   3.583  1.4914  1.3843  0.5608
20929SOL    HW265680   3.273   5.079   3.691  1.3215 -1.6552 -1.1337
20930SOL     OW65681   7.584   4.919   8.651 -0.5691 -0.5180  0.0649
20930SOL    HW165682   7.563   4.861   8.578 -1.1199 -0.8857  0.5061
20930SOL    HW265683   7.540   4.879   8.727  2.3621 -1.8363  1.2537
20931SOL     OW65684   1.366   3.945   3.232 -0.6679  0.2412 -0.3967
20931SOL    HW165685   1.394   4.037   3.230  1.6627 -0.4139 -0.7020
20931SOL    HW265686   1.388   3.912   3.145 -3.5639 -0.1263 -1.1093
20932SOL     OW65687   3.713   7.458   0.445  0.0407 -0.3130 -0.0400
20932SOL    HW165688   3.721   7.553   0.438  1.5643 -0.5260 -1.7351
20932SOL    HW265689   3.655   7.445   0.521 -1.4277  1.9707 -0.6536
20933SOL     OW65690   0.800   9.565   8.260 -0.0234 -0.4461  0.8843
20933SOL    HW165691   0.743   9.530   8.329  0.6862 -0.3616  1.5380
20933SOL    HW265692   0.771   9.655   8.247 -2.1282 -1.3293 -1.0934
20934SOL     OW65693   6.691   0.737   4.856 -0.3000 -0.1611 -0.8315
20934SOL    HW165694   6.682   0.653   4.901  1.5429 -1.0272 -1.9064
20934SOL    HW265695   6.698   0.802   4.926  2.0955 -1.4066  0.1999
20935SOL     OW65696   7.485   1.437   4.233 -0.0756  0.1562  0.1248
20935SOL    HW165697   7.561   1.380   4.246 -0.1126 -0.0653 -0.5672
20935SOL    HW265698   7.499   1.510   4.293  0.4074 -0.1547  0.3987
20936SOL     OW65699   0.108   6.166   8.556  0.6484  0.3285  0.9626
20936SOL    HW165700   0.117   6.118   8.639 -0.2994  0.0140  0.9005
20936SOL    HW265701   0.013   6.167   8.540  0.6306  2.3383  1.0175
20937SOL     OW65702   5.533   6.580   8.544 -0.1789 -0.1281 -0.5612
20937SOL    HW165703   5.500   6.666   8.569 -0.2273  0.1538 -1.5409
20937SOL    HW265704   5.597   6.557   8.612 -1.9547 -0.4500  1.0818
20938SOL     OW65705   2.900   4.067   4.723  0.2582 -1.0493 -0.1079
20938SOL    HW165706   2.986   4.026   4.736  1.9741  2.5957  1.5932
20938SOL    HW265707   2.857   4.059   4.808  0.0099 -0.5751 -0.1875
20939SOL     OW65708   4.720   7.436   3.109 -0.1667  0.1564  0.1408
20939SOL    HW165709   4.684   7.404   3.027  0.0628 -1.3571  0.6048
20939SOL    HW265710   4.645   7.474   3.156 -1.3834 -3.3199  1.2791
20940SOL     OW65711   8.850   6.731   2.338  0.0081 -0.3413  0.1476
20940SOL    HW165712   8.941   6.714   2.365  0.1605 -1.6288 -1.0907
20940SOL    HW265713   8.803   6.651   2.361 -0.5294 -0.2161 -0.4974
20941SOL     OW65714   3.535   8.647   3.472 -0.0252  0.4850  0.4866
20941SOL    HW165715   3.492   8.688   3.547  1.6583  0.5108  1.5062
20941SOL    HW265716   3.501   8.558   3.470 -1.2123  0.9335  0.3396
20942SOL     OW65717   7.077   5.707   6.368  0.0617 -0.2421 -0.1945
20942SOL    HW165718   7.061   5.612   6.365 -0.5977 -0.1569  0.3295
20942SOL    HW265719   7.142   5.723   6.300  1.5330 -1.3250  0.8817
20943SOL     OW65720   9.093   6.319   7.446 -0.1086  0.1980 -0.0946
20943SOL    HW165721   9.120   6.227   7.438 -1.0224 -0.1894  0.9464
20943SOL    HW265722   9.143   6.351   7.522  0.7128  0.7734 -0.8616
20944SOL     OW65723   9.525   4.248   8.071 -0.0895  0.1034  0.3165
20944SOL    HW165724   9.570   4.180   8.021 -1.6628  0.2529 -1.4132
20944SOL    HW265725   9.547   4.229   8.162  1.2719 -1.3918 -0.2750
20945SOL     OW65726   8.035   2.188   5.890 -0.5709 -0.0372 -0.7472
20945SOL    HW165727   7.967   2.250   5.865 -0.4662  0.5552  0.3741
20945SOL    HW265728   8.102   2.197   5.822 -1.4045 -0.3271 -1.6365
20946SOL     OW65729   7.142   2.606   7.878 -0.0505 -0.0946 -0.3318
20946SOL    HW165730   7.134   2.599   7.973 -1.0060 -1.8697 -0.5128
20946SOL    HW265731   7.234   2.586   7.861 -0.1783 -1.1493  0.1342
20947SOL     OW65732   1.013   1.329   7.174 -0.3388 -0.6976 -0.2014
20947SOL    HW165733   0.920   1.309   7.162 -0.1970 -1.2084 -0.4591
20947SOL    HW265734   1.053   1.244   7.193  0.0950 -0.4943 -0.2079
20948SOL     OW65735   8.846   9.033   7.242 -0.3120  0.5830  0.1491
20948SOL    HW165736   8.862   9.090   7.168 -2.0608  1.3754  0.3310
20948SOL    HW265737   8.827   8.947   7.203 -2.0073  1.1769 -0.4040
20949SOL     OW65738   5.424   0.944   2.552 -0.3266 -0.7109 -0.4716
20949SOL    HW165739   5.424   0.881   2.623 -0.1900 -0.7986 -0.5490
20949SOL    HW265740   5.516   0.967   2.539 -0.5242  1.5555  1.3598
20950SOL     OW65741   1.233   0.877   1.585  0.0444  0.0262 -0.1267
20950SOL    HW165742   1.206   0.961   1.548  0.5534 -0.2915 -1.2645
20950SOL    HW265743   1.204   0.813   1.521  0.9337 -0.5537  0.0367
20951SOL     OW65744   3.514   1.310   8.962  0.2339  0.5067  0.2154
20951SOL    HW165745   3.560   1.255   8.898  0.0293  0.9558 -0.3231
20951SOL    HW265746   3.558   1.291   9.045 -0.6198 -1.4223  0.2912
20952SOL     OW65747   8.591   9.274   5.534 -0.1560 -0.3214 -0.3094
20952SOL    HW165748   8.592   9.179   5.532 -0.7874 -0.4428  1.9858
20952SOL    HW265749   8.684   9.299   5.541 -0.0392 -1.1236  3.9683
20953SOL     OW65750   5.251   4.649   1.795  0.4043 -0.2834 -0.1726
20953SOL    HW165751   5.190   4.703   1.845 -0.2736 -2.6124  1.7214
20953SOL    HW265752   5.224   4.659   1.704  0.1260  2.2068  0.1099
20954SOL     OW65753   0.649   9.618   4.405  0.5966  0.3675 -0.1112
20954SOL    HW165754   0.657   9.577   4.318  0.3855  1.7711 -0.8165
20954SOL    HW265755   0.575   9.573   4.446  0.0046  0.4315 -1.0862
20955SOL     OW65756   1.792   7.687   0.435  0.2886 -0.4575 -0.5261
20955SOL    HW165757   1.799   7.602   0.477  2.3758  0.3839  0.9836
20955SOL    HW265758   1.851   7.682   0.359 -1.1424 -0.9714 -1.6487
20956SOL     OW65759   6.567   4.645   2.823  0.2261 -0.1609 -0.2596
20956SOL    HW165760   6.502   4.606   2.882  0.7458  1.4879  1.5160
20956SOL    HW265761   6.518   4.668   2.744 -1.2583  0.5410  0.8255
20957SOL     OW65762   1.404   4.217   0.703  0.4011  0.0880  0.5813
20957SOL    HW165763   1.404   4.299   0.652 -0.1432  0.8031  1.6958
20957SOL    HW265764   1.311   4.194   0.710  0.5745 -1.0011 -0.2553
20958SOL     OW65765   9.337   0.821   4.246  0.4649 -0.0796 -0.2190
20958SOL    HW165766   9.336   0.879   4.323  0.0480  1.5535 -1.4033
20958SOL    HW265767   9.297   0.740   4.278  0.9973  0.2694  1.4780
20959SOL     OW65768   1.111   4.906   6.575 -0.4843 -0.2476  0.1632
20959SOL    HW165769   1.188   4.892   6.518 -0.8358 -0.8528 -0.1753
20959SOL    HW265770   1.082   4.817   6.597 -0.5044 -0.0133  1.0869
20960SOL     OW65771   7.221   1.965   2.803  0.5400 -0.0672 -0.5409
20960SOL    HW165772   7.248   1.911   2.877 -1.8385  0.8559  1.1577
20960SOL    HW265773   7.285   2.036   2.799  1.3666 -0.7783 -0.1715
20961SOL     OW65774   0.050   7.999   3.586 -0.4765 -0.2486 -0.3290
20961SOL    HW165775   0.046   8.032   3.496  0.1699 -0.2144 -0.3499
20961SOL    HW265776  -0.041   7.983   3.610 -0.5875 -1.1601 -1.3175
20962SOL     OW65777   8.011   5.212   6.653  0.2170 -0.1213  0.5017
20962SOL    HW165778   7.949   5.257   6.595 -1.1215  0.9053  2.5792
20962SOL    HW265779   7.959   5.142   6.692  0.6886  0.0379  1.4263
20963SOL     OW65780   7.593   0.167   0.578 -0.0382 -0.2791  0.3898
20963SOL    HW165781   7.595   0.183   0.484 -2.3030 -0.0699  0.3200
20963SOL    HW265782   7.680   0.134   0.599  0.6264  0.0104 -1.7010
20964SOL     OW65783   9.295   6.898   7.006  0.2831  0.4734 -0.6843
20964SOL    HW165784   9.277   6.992   7.006  1.3468  0.6816 -1.0940
20964SOL    HW265785   9.236   6.862   6.940 -0.5093  0.7657 -0.1538
20965SOL     OW65786   8.743   4.930   8.528  0.4108 -0.0947  0.5576
20965SOL    HW165787   8.806   4.917   8.457  0.5452 -0.8261  0.7980
20965SOL    HW265788   8.763   5.017   8.563 -0.1805  0.6234 -0.8096
20966SOL     OW65789   7.954   2.874   0.197  0.0707 -0.0249  0.4437
20966SOL    HW165790   7.962   2.841   0.287  0.6423  0.9642  0.7752
20966SOL    HW265791   7.951   2.795   0.143 -1.8522 -0.6874  1.4248
20967SOL     OW65792   0.101   9.308   5.487 -0.5886  0.2030  0.0794
20967SOL    HW165793   0.045   9.299   5.563 -1.2843  0.2496 -0.4178
20967SOL    HW265794   0.042   9.334   5.416  0.3699  2.4453  0.0273
20968SOL     OW65795   8.474   6.758   7.619  0.2894  0.5586 -0.4765
20968SOL    HW165796   8.427   6.821   7.673  0.3049  0.3798 -0.2521
20968SOL    HW265797   8.502   6.689   7.681  1.0063  0.7579 -0.5653
20969SOL     OW65798   9.528   1.840   0.267 -0.1493  0.2574 -0.3202
20969SOL    HW165799   9.472   1.883   0.202 -1.1965  0.7399  0.8547
20969SOL    HW265800   9.477   1.844   0.348  1.1629 -0.2562  0.5532
20970SOL     OW65801   2.539   8.505   6.723 -0.4662  0.3816  1.0530
20970SOL    HW165802   2.583   8.437   6.775  0.6369  1.0345  1.0208
20970SOL    HW265803   2.456   8.520   6.768 -0.3075 -0.3179  1.6030
20971SOL     OW65804   8.941   5.927   7.048 -0.5503  0.2466  0.0223
20971SOL    HW165805   8.901   5.941   7.134 -0.0963  0.7485  0.1594
20971SOL    HW265806   8.923   5.835   7.028  0.4858 -0.2612  1.2644
20972SOL     OW65807   9.355   3.997   6.493  0.2557  0.2400  0.6571
20972SOL    HW165808   9.412   4.072   6.475 -3.4849  3.5313  1.0467
20972SOL    HW265809   9.383   3.966   6.579  1.4467  1.6794  0.8356
20973SOL     OW65810   3.363   8.039   9.067  0.0907  0.1686  0.2386
20973SOL    HW165811   3.354   8.025   8.972 -1.5870 -1.1486  0.5332
20973SOL    HW265812   3.374   8.134   9.076 -1.0072  0.4810 -1.2286
20974SOL     OW65813   0.040   8.960   2.838 -0.2121 -0.7801 -0.3688
20974SOL    HW165814   0.073   9.047   2.815  0.4647 -0.7018  0.8059
20974SOL    HW265815  -0.041   8.976   2.886 -0.3506 -0.8310 -0.5817
20975SOL     OW65816   0.749   1.007   5.609  0.0034  0.0142  0.0303
20975SOL    HW165817   0.807   0.933   5.589  0.6439 -0.1013  2.0429
20975SOL    HW265818   0.696   0.976   5.682  0.2727  1.5265  0.8953
20976SOL     OW65819   2.228   2.457   5.842 -0.3049  0.2692  0.3377
20976SOL    HW165820   2.209   2.483   5.752 -0.3736  2.6033  0.9660
20976SOL    HW265821   2.316   2.420   5.839 -0.9687 -1.3212 -0.9336
20977SOL     OW65822   2.516   1.948   6.093  0.0944 -0.4188  0.2256
20977SOL    HW165823   2.566   2.021   6.055  0.2126 -0.9728 -0.7188
20977SOL    HW265824   2.464   1.914   6.019 -0.0123 -1.2437  0.6743
20978SOL     OW65825   7.770   4.907   8.905 -0.0623 -0.2418 -0.5873
20978SOL    HW165826   7.711   4.948   8.968 -0.0956 -0.7266 -0.2999
20978SOL    HW265827   7.852   4.895   8.953  0.8118  1.8824 -1.4469
20979SOL     OW65828   7.061   5.860   5.955 -0.2738  0.3897  0.0737
20979SOL    HW165829   7.152   5.833   5.944  0.7697  2.5106  2.4047
20979SOL    HW265830   7.017   5.832   5.875  2.6710  0.3065 -1.6470
20980SOL     OW65831   8.189   3.297   4.135  0.5402 -0.1949  0.0415
20980SOL    HW165832   8.173   3.211   4.174 -2.2484 -0.1307 -0.7626
20980SOL    HW265833   8.220   3.278   4.046  0.5413 -0.3406  0.0737
20981SOL     OW65834   7.846   5.091   5.686 -0.3525 -0.2261 -0.5027
20981SOL    HW165835   7.927   5.067   5.729  1.3897  3.4873 -1.3038
20981SOL    HW265836   7.809   5.161   5.740 -4.0346 -2.8218  0.7151
20982SOL     OW65837   0.768   8.765   5.230  0.1545 -0.2612  0.8617
20982SOL    HW165838   0.724   8.692   5.186 -0.5786  1.1203 -0.8218
20982SOL    HW265839   0.821   8.805   5.161 -0.5676  1.6241  1.3454
20983SOL     OW65840   6.850   3.419   8.853 -0.4731  0.3878 -0.0518
20983SOL    HW165841   6.910   3.354   8.892  0.0670  1.3868  0.8441
20983SOL    HW265842   6.870   3.417   8.760  1.1607  0.8558  0.2521
20984SOL     OW65843   6.998   4.868   0.061  0.1679 -0.1032 -0.0346
20984SOL    HW165844   6.958   4.784   0.083  1.0671 -0.7924 -0.9575
20984SOL    HW265845   7.038   4.854  -0.024  0.7427  1.1342  0.0082
20985SOL     OW65846   2.671   4.696   4.918 -0.3600  0.1864 -0.3340
20985SOL    HW165847   2.628   4.746   4.987 -0.0496 -0.9421  0.7101
20985SOL    HW265848   2.598   4.658   4.868 -0.6653 -1.5553  1.3083
20986SOL     OW65849   3.175   8.049   0.667  0.0866  0.3791 -0.1075
20986SOL    HW165850   3.236   8.007   0.727  0.9526  0.0687 -1.1782
20986SOL    HW265851   3.138   8.122   0.717 -0.2277 -0.6588  1.2307
20987SOL     OW65852   3.244   7.913   6.250 -0.3871  0.1309  0.5274
20987SOL    HW165853   3.168   7.860   6.274 -1.9600  1.0828 -1.9176
20987SOL    HW265854   3.212   8.003   6.250  0.3370  0.4695 -1.6661
20988SOL     OW65855   2.784   9.082   3.812 -0.2382  0.4957  0.1656
20988SOL    HW165856   2.769   9.044   3.725 -1.7716  1.9404 -0.2505
20988SOL    HW265857   2.876   9.109   3.811 -0.3106  0.7533 -1.1316
20989SOL     OW65858   5.539   5.506   7.379 -0.1021  0.3901  0.1131
20989SOL    HW165859   5.521   5.420   7.416 -1.0118  0.9842  1.1004
20989SOL    HW265860   5.600   5.547   7.442  2.2291 -0.3495 -1.5077
20990SOL     OW65861   6.083   3.461   0.326 -0.0560  0.5749  0.2169
20990SOL    HW165862   6.065   3.446   0.419 -1.0468 -2.2143 -0.3388
20990SOL    HW265863   6.025   3.533   0.301 -2.5652 -1.0739  0.9851
20991SOL     OW65864   0.282   4.313   7.306 -0.2574  0.2190 -0.3515
20991SOL    HW165865   0.357   4.294   7.249  0.6128 -0.4368  0.9689
20991SOL    HW265866   0.275   4.408   7.306  0.5349  0.2803 -0.5456
20992SOL     OW65867   4.959   0.163   2.077  0.6933  0.0957  0.8727
20992SOL    HW165868   4.977   0.254   2.054 -0.2779  0.0115 -0.3622
20992SOL    HW265869   4.875   0.166   2.123 -0.0195 -0.2753 -0.3460
20993SOL     OW65870   6.592   3.482   8.968  0.5881  0.2672  0.0085
20993SOL    HW165871   6.676   3.436   8.968  0.4517 -0.0212  1.2718
20993SOL    HW265872   6.528   3.413   8.948  0.2375 -0.4880  3.2129
20994SOL     OW65873   8.503   9.221   3.141  0.3568 -0.5620 -0.5194
20994SOL    HW165874   8.421   9.199   3.096 -0.2173 -0.5115  0.4756
20994SOL    HW265875   8.476   9.282   3.210  1.5860  1.5114 -1.7558
20995SOL     OW65876   5.575   5.738   1.343 -0.1167  0.0791  0.9373
20995SOL    HW165877   5.511   5.768   1.407  1.0110  1.3432  1.5162
20995SOL    HW265878   5.645   5.700   1.395 -0.0021 -0.5495  0.3483
20996SOL     OW65879   8.254   8.709   7.421  0.3871 -0.4718  0.2506
20996SOL    HW165880   8.188   8.657   7.466  1.5636 -1.3443  1.0526
20996SOL    HW265881   8.209   8.748   7.346 -1.0232 -0.9841  0.8175
20997SOL     OW65882   9.227   7.055   3.361  0.4667  0.3050 -0.4164
20997SOL    HW165883   9.230   7.150   3.370  1.8637  0.2641 -0.2477
20997SOL    HW265884   9.139   7.031   3.389  0.3614  1.4768  0.3169
20998SOL     OW65885   8.775   0.912   9.151 -0.1331 -0.3281 -0.3909
20998SOL    HW165886   8.859   0.873   9.178  0.5317 -0.0354 -1.9352
20998SOL    HW265887   8.777   1.000   9.189 -0.3055 -0.7341  0.5996
20999SOL     OW65888   0.087   1.670   2.898  0.2381 -0.8934 -0.1235
20999SOL    HW165889   0.109   1.593   2.846  0.2679 -1.1018  0.1888
20999SOL    HW265890   0.167   1.692   2.944  0.6208  0.1819 -1.2660
21000SOL     OW65891   6.586   9.458   5.818 -0.1821 -0.0724 -0.1956
21000SOL    HW165892   6.534   9.391   5.863  1.0549 -0.9233  0.0213
21000SOL    HW265893   6.674   9.450   5.856  0.5240  0.2025 -1.7020
21001SOL     OW65894   7.782   8.973   5.533  0.1328 -0.0182 -0.6064
21001SOL    HW165895   7.696   8.933   5.549  0.1219  0.4732  0.5910
21001SOL    HW265896   7.843   8.918   5.582  0.3903  0.1828 -0.7024
21002SOL     OW65897   9.351   0.413   0.323  0.0995 -0.0687 -0.1859
21002SOL    HW165898   9.281   0.362   0.365 -1.5835 -0.0868 -2.8313
21002SOL    HW265899   9.352   0.496   0.371 -0.2202 -0.8661  1.2667
21003SOL     OW65900   2.626   8.995   2.123  0.5114  0.1041  0.3837
21003SOL    HW165901   2.603   8.903   2.112 -1.0472  0.7038 -2.1637
21003SOL    HW265902   2.550   9.033   2.169 -1.2108  0.9518 -2.8731
21004SOL     OW65903   8.134   5.925   3.057  0.0978  0.2701  0.1608
21004SOL    HW165904   8.186   5.983   3.113  0.2102 -0.2597  0.6187
21004SOL    HW265905   8.057   5.904   3.110 -1.4818  2.3916 -1.1198
21005SOL     OW65906   6.941   6.622   8.338 -0.3054 -0.0977  0.1723
21005SOL    HW165907   6.922   6.612   8.245  0.3758 -0.2852  0.0492
21005SOL    HW265908   6.899   6.546   8.378  0.0297 -0.4195 -0.0775
21006SOL     OW65909   3.716   6.640   7.562  0.2212 -0.1000 -0.2946
21006SOL    HW165910   3.668   6.682   7.491 -1.0546  0.1836  0.7120
21006SOL    HW265911   3.775   6.708   7.595 -0.2788  0.2373 -0.0917
21007SOL     OW65912   8.056   6.848   8.462  0.1563  0.2192 -0.1205
21007SOL    HW165913   8.109   6.874   8.537 -1.9330 -1.2339  1.9774
21007SOL    HW265914   8.119   6.809   8.401  1.6231 -0.8282  1.9569
21008SOL     OW65915   9.042   7.800   3.430  0.0640 -0.5708  0.2523
21008SOL    HW165916   9.136   7.815   3.424  0.1243 -1.5155 -2.7358
21008SOL    HW265917   9.034   7.721   3.484  0.8462  0.1272  1.4487
21009SOL     OW65918   1.791   5.425   4.503  0.0828  0.4858  0.0958
21009SOL    HW165919   1.845   5.371   4.446  0.5208  0.6710  0.3287
21009SOL    HW265920   1.762   5.365   4.572  0.8827  0.6240  0.5652
21010SOL     OW65921   7.931   1.785   6.908  0.0099 -0.5146 -0.5956
21010SOL    HW165922   7.944   1.732   6.829 -0.7329  0.2703 -1.2658
21010SOL    HW265923   7.869   1.735   6.961  1.0986 -1.4167 -0.1193
21011SOL     OW65924   4.238   7.193   0.060 -0.3669  0.5416 -0.1763
21011SOL    HW165925   4.243   7.247   0.139  1.9087  0.1412  0.0250
21011SOL    HW265926   4.323   7.148   0.057 -1.4928 -1.6464 -1.3125
21012SOL     OW65927   4.086   5.216   7.381  0.3426  0.1693  0.2843
21012SOL    HW165928   4.113   5.217   7.473  1.6453  2.3926 -0.0614
21012SOL    HW265929   4.155   5.166   7.337 -0.3335 -0.9827  0.4895
21013SOL     OW65930   7.274   3.251   6.070  0.5613 -0.3408  0.3567
21013SOL    HW165931   7.344   3.258   6.136 -0.1437  0.7139  1.0204
21013SOL    HW265932   7.195   3.231   6.121  0.1204 -0.1218 -0.2313
21014SOL     OW65933   9.311   9.092   1.528 -0.5643  0.3764 -0.2759
21014SOL    HW165934   9.223   9.055   1.533 -0.6834  0.6701 -0.1368
21014SOL    HW265935   9.297   9.187   1.523 -0.2442  0.4649  0.3637
21015SOL     OW65936   5.602   3.153   3.603 -0.5413  0.2915  0.2155
21015SOL    HW165937   5.655   3.117   3.532 -0.1780 -0.1948  0.7293
21015SOL    HW265938   5.526   3.192   3.558  0.3794  1.2512 -0.5412
21016SOL     OW65939   8.745   8.530   3.164  0.1092 -0.4183 -0.2782
21016SOL    HW165940   8.671   8.558   3.218  0.0809 -1.9175  0.5277
21016SOL    HW265941   8.794   8.610   3.146  0.4711  0.1045  2.5199
21017SOL     OW65942   0.614   7.548   1.016  0.3131 -0.9243 -1.1250
21017SOL    HW165943   0.608   7.641   1.039  1.3987 -0.1504 -3.6427
21017SOL    HW265944   0.693   7.518   1.060 -0.8148 -1.1372  0.9183
21018SOL     OW65945   5.040   0.610   5.294  0.3561 -0.0147  0.3153
21018SOL    HW165946   4.991   0.690   5.313 -1.8666 -0.8030 -1.5424
21018SOL    HW265947   4.984   0.562   5.234  2.1490 -2.4562  0.4455
21019SOL     OW65948   3.955   6.133   5.914  0.2520 -0.1817 -0.1942
21019SOL    HW165949   4.015   6.208   5.914  0.2126 -0.1274  0.9869
21019SOL    HW265950   4.012   6.057   5.905  0.2878 -0.0291 -1.4559
21020SOL     OW65951   7.470   4.110   3.115  0.6307 -0.0904  0.3344
21020SOL    HW165952   7.451   4.192   3.069  0.1441 -0.6879 -0.5733
21020SOL    HW265953   7.449   4.128   3.206  1.2043  1.0002  0.2591
21021SOL     OW65954   1.500   1.588   5.412  0.0701  0.2589 -0.3212
21021SOL    HW165955   1.462   1.620   5.330 -0.7921  0.0473 -0.0139
21021SOL    HW265956   1.569   1.650   5.432  0.4545  0.1739 -1.3384
21022SOL     OW65957   4.555   6.044   7.284 -0.0100  0.1926  0.9821
21022SOL    HW165958   4.577   6.137   7.287 -0.0894  0.4327 -2.2616
21022SOL    HW265959   4.460   6.042   7.298 -0.4562  0.9607 -1.4553
21023SOL     OW65960   8.314   5.032   1.196  0.2552  0.6110 -0.3751
21023SOL    HW165961   8.296   5.036   1.102  0.2627 -1.0878 -0.4889
21023SOL    HW265962   8.358   4.948   1.208 -2.3342 -0.6211  1.5245
21024SOL     OW65963   0.663   2.677   4.863  0.5338  0.0678 -0.4106
21024SOL    HW165964   0.582   2.628   4.876  0.3363 -0.1200 -2.0703
21024SOL    HW265965   0.685   2.712   4.950 -0.1800 -1.5977  0.4724
21025SOL     OW65966   0.402   8.497   3.868  0.2207 -0.3493  0.5543
21025SOL    HW165967   0.364   8.550   3.939 -1.0882 -0.4978  0.0029
21025SOL    HW265968   0.390   8.551   3.790 -0.9230 -1.3438  0.0183
21026SOL     OW65969   9.299   8.235   6.557 -0.8038 -0.2262 -0.1287
21026SOL    HW165970   9.251   8.165   6.602 -1.4745 -0.2290 -0.8366
21026SOL    HW265971   9.382   8.240   6.604 -1.8434  0.4232  1.7354
21027SOL     OW65972   4.743   8.961   4.410 -0.1509 -0.2369 -0.4536
21027SOL    HW165973   4.748   9.000   4.323  1.2090  0.5170 -0.0718
21027SOL    HW265974   4.757   9.034   4.470 -0.9144 -0.7691  0.4058
21028SOL     OW65975   7.134   4.983   8.382  0.0222 -0.0497 -0.1530
21028SOL    HW165976   7.145   5.049   8.313 -0.2130  0.7663  0.5755
21028SOL    HW265977   7.086   5.028   8.451 -2.5561 -1.6998 -0.7133
21029SOL     OW65978   0.092   2.415   3.925 -0.1271 -0.1776  0.2001
21029SOL    HW165979   0.179   2.454   3.919 -0.0661  0.1998  2.5639
21029SOL    HW265980   0.084   2.360   3.846  1.3422  1.4786 -1.1877
21030SOL     OW65981   9.265   8.160   0.039  0.2634  0.0768 -0.2808
21030SOL    HW165982   9.178   8.194   0.020  0.1163 -0.3658 -0.4045
21030SOL    HW265983   9.271   8.080  -0.012  0.2429 -0.5990  0.7493
21031SOL     OW65984   6.848   6.786   6.058  0.3621 -0.1256  0.1150
21031SOL    HW165985   6.935   6.751   6.075 -0.4184 -2.3586 -0.1083
21031SOL    HW265986   6.811   6.728   5.991 -1.3169  0.7064  0.2619
21032SOL     OW65987   1.990   0.055   9.545 -0.8814 -0.1175 -0.3850
21032SOL    HW165988   2.024   0.131   9.592 -0.5050 -0.0244 -0.7961
21032SOL    HW265989   2.039   0.054   9.463 -2.7955  0.8115 -1.6153
21033SOL     OW65990   9.167   2.527   8.496 -0.7946 -0.1591 -0.3427
21033SOL    HW165991   9.076   2.545   8.518 -0.5878  1.3683 -0.5978
21033SOL    HW265992   9.184   2.582   8.419  0.4329 -0.1738 -0.1020
21034SOL     OW65993   6.798   9.129   0.071  0.3627  0.3752 -0.1382
21034SOL    HW165994   6.890   9.142   0.094  0.1070  0.4516  0.8991
21034SOL    HW265995   6.755   9.107   0.154 -0.5713  0.4135 -0.5932
21035SOL     OW65996   3.938   0.078   6.176  0.2064  0.4196 -0.1959
21035SOL    HW165997   3.991   0.002   6.202  1.0550  1.1128  0.1315
21035SOL    HW265998   3.946   0.139   6.249  1.5821  1.8754 -1.5135
21036SOL     OW65999   1.626   9.310   3.802  0.1297 -0.2765  0.6209
21036SOL    HW166000   1.711   9.274   3.824 -0.4032 -1.4203  0.8993
21036SOL    HW266001   1.641   9.361   3.722  0.8776 -1.3972  0.0137
21037SOL     OW66002   8.597   0.854   6.772  0.3810  0.1720 -0.7178
21037SOL    HW166003   8.666   0.866   6.707  0.6430 -2.4871 -1.0753
21037SOL    HW266004   8.526   0.812   6.723  0.2661 -1.1399  0.5082
21038SOL     OW66005   1.490   6.544   5.973 -0.2545  0.2122 -0.1582
21038SOL    HW166006   1.469   6.454   5.948 -0.4358  0.1831  0.0910
21038SOL    HW266007   1.408   6.592   5.962 -0.0496  0.4459 -0.7188
21039SOL     OW66008   5.163   0.629   1.520  0.1126  0.6524  0.5977
21039SOL    HW166009   5.133   0.634   1.430  0.0092 -0.3142  0.5694
21039SOL    HW266010   5.097   0.577   1.565 -1.3604  3.4334  1.9184
21040SOL     OW66011   6.969   2.800   5.751  0.3866 -0.3574 -0.2232
21040SOL    HW166012   6.889   2.768   5.710  0.3653 -1.8178  0.8966
21040SOL    HW266013   6.962   2.773   5.842  1.8708  0.0277  0.0256
21041SOL     OW66014   5.832   8.897   3.165  0.3564 -0.2986  0.1286
21041SOL    HW166015   5.853   8.990   3.176 -0.1604 -0.2284  0.5912
21041SOL    HW266016   5.810   8.888   3.072  1.6290 -0.2246 -0.2063
21042SOL     OW66017   3.592   6.680   3.157  0.1124  0.1944 -1.1817
21042SOL    HW166018   3.583   6.633   3.074 -1.2240  0.1360 -1.0104
21042SOL    HW266019   3.503   6.700   3.184  0.4105 -1.0085  0.9373
21043SOL     OW66020   0.653   1.374   6.848  0.2872 -0.0755  0.0157
21043SOL    HW166021   0.589   1.425   6.798 -0.1942 -0.3115  0.3928
21043SOL    HW266022   0.707   1.440   6.892 -0.1274  0.1149  0.2387
21044SOL     OW66023   2.943   3.518   8.696 -0.1520  0.6122  0.0942
21044SOL    HW166024   2.862   3.507   8.746 -0.9267 -1.0519 -1.3982
21044SOL    HW266025   2.917   3.569   8.619 -0.3596 -1.6900 -1.4700
21045SOL     OW66026   7.463   0.425   1.964 -0.3758 -0.8683 -0.4871
21045SOL    HW166027   7.496   0.514   1.976 -3.0827  0.1708 -0.0486
21045SOL    HW266028   7.448   0.418   1.870 -1.8199 -0.1584 -0.3386
21046SOL     OW66029   3.213   7.630   0.586 -0.1011 -0.4694  0.5440
21046SOL    HW166030   3.247   7.554   0.539  0.8687  0.2805 -0.0089
21046SOL    HW266031   3.118   7.616   0.589  0.1095 -2.0979  1.1834
21047SOL     OW66032   7.762   1.921   1.755  0.4573 -0.0969 -0.0587
21047SOL    HW166033   7.840   1.873   1.726 -0.5241 -1.4924 -0.4649
21047SOL    HW266034   7.725   1.866   1.825 -0.4177  0.3139 -0.1866
21048SOL     OW66035   4.748   3.238   7.169 -0.3388 -0.0661  0.1253
21048SOL    HW166036   4.730   3.254   7.262  0.6711  0.4227  0.2456
21048SOL    HW266037   4.765   3.144   7.164 -0.3037 -0.0796  0.4523
21049SOL     OW66038   8.869   6.655   8.139 -0.0693  0.2761  0.1821
21049SOL    HW166039   8.909   6.724   8.191  0.6983 -0.4357  0.5505
21049SOL    HW266040   8.931   6.640   8.067  0.4541 -0.9605  0.8584
21050SOL     OW66041   6.778   4.163   8.576  0.1003  0.6824 -0.1597
21050SOL    HW166042   6.861   4.175   8.622  1.8671 -1.4739 -2.4602
21050SOL    HW266043   6.743   4.081   8.612  0.7936 -0.2681 -1.5589
21051SOL     OW66044   6.844   7.086   6.477  0.3132 -0.1133 -0.1508
21051SOL    HW166045   6.790   7.075   6.399  0.1800  1.2072 -0.2609
21051SOL    HW266046   6.785   7.066   6.550 -0.0154  0.2284 -0.3195
21052SOL     OW66047   6.791   2.473   2.346 -0.3291  0.5063  0.5711
21052SOL    HW166048   6.821   2.407   2.408 -0.1750 -0.2195 -0.2680
21052SOL    HW266049   6.788   2.554   2.397  1.0065  0.1757  1.2242
21053SOL     OW66050   4.537   2.933   3.293  0.5806  0.0085 -0.2059
21053SOL    HW166051   4.449   2.962   3.271  1.2526  0.4281 -2.6313
21053SOL    HW266052   4.532   2.838   3.294  0.0391  0.0321  0.1009
21054SOL     OW66053   0.919   0.327   7.044  0.4447  0.4740  0.2685
21054SOL    HW166054   1.001   0.354   7.085 -0.3829  0.5301  2.0127
21054SOL    HW266055   0.867   0.407   7.040  0.3060  0.3542 -0.4075
21055SOL     OW66056   4.869   1.333   2.899  0.0828 -0.6592  0.2583
21055SOL    HW166057   4.924   1.263   2.933  1.3647  0.1000 -0.1452
21055SOL    HW266058   4.794   1.337   2.959  0.3738 -1.8376  0.7288
21056SOL     OW66059   7.325   0.459   9.173 -0.5401  0.0258 -0.2878
21056SOL    HW166060   7.293   0.371   9.155 -0.5424  0.2310 -1.3491
21056SOL    HW266061   7.248   0.507   9.203 -0.9642  0.1644 -1.5482
21057SOL     OW66062   5.583   6.259   4.108  0.3049 -0.5607 -0.0769
21057SOL    HW166063   5.529   6.279   4.032 -0.7057  0.1676  0.7981
21057SOL    HW266064   5.661   6.218   4.072 -1.3753 -2.8930 -1.2843
21058SOL     OW66065   1.868   5.180   2.209  0.1499  0.2077 -0.1691
21058SOL    HW166066   1.778   5.150   2.195  0.6758 -2.3700  1.2198
21058SOL    HW266067   1.909   5.171   2.123 -0.3879 -0.7792 -0.3442
21059SOL     OW66068   9.528   4.452   0.198 -0.2981 -0.2491 -0.0384
21059SOL    HW166069   9.555   4.382   0.257  1.4269  1.0250  0.7986
21059SOL    HW266070   9.535   4.414   0.111 -0.2383 -1.3618  0.4372
21060SOL     OW66071   7.717   2.127   4.272 -0.0908 -0.1977 -0.0154
21060SOL    HW166072   7.704   2.209   4.318 -1.1702 -0.5495  0.3187
21060SOL    HW266073   7.629   2.094   4.254  0.2790 -2.0664  1.2671
21061SOL     OW66074   7.007   8.409   1.670 -0.7639  0.8677  0.3776
21061SOL    HW166075   7.039   8.484   1.620  0.1833  0.8453  0.9295
21061SOL    HW266076   7.028   8.430   1.761 -0.0948 -0.2360  0.4984
21062SOL     OW66077   7.767   7.255   7.681  0.2554  0.1535  0.4442
21062SOL    HW166078   7.837   7.194   7.702  0.7212  0.0807 -1.1738
21062SOL    HW266079   7.809   7.341   7.684  0.8113  0.0347 -1.7271
21063SOL     OW66080   7.503   5.966   5.229  0.2147 -0.5667 -0.3330
21063SOL    HW166081   7.489   5.890   5.285  2.3969 -0.8266 -0.0329
21063SOL    HW266082   7.546   6.030   5.285 -1.0531  0.6976 -0.7443
21064SOL     OW66083   1.962   8.414   9.611 -0.0070  0.3430  0.1574
21064SOL    HW166084   2.044   8.424   9.562  0.5783  0.2428  1.0811
21064SOL    HW266085   1.917   8.498   9.600  0.1056  0.3155 -0.5489
21065SOL     OW66086   8.370   0.062   9.008  0.1253  0.0148  0.2824
21065SOL    HW166087   8.294   0.032   8.957 -0.1868  0.2107  0.6221
21065SOL    HW266088   8.371   0.004   9.085  1.8068 -1.6217 -0.9085
21066SOL     OW66089   8.676   4.243   3.770 -0.6238  0.3849  0.0036
21066SOL    HW166090   8.714   4.277   3.851 -0.9984  0.9322 -0.0431
21066SOL    HW266091   8.740   4.265   3.702  1.1728 -2.7060  0.4972
21067SOL     OW66092   4.733   6.088   8.792 -0.0475 -0.2063 -0.1299
21067SOL    HW166093   4.773   6.125   8.870  1.7160 -0.9385 -0.6352
21067SOL    HW266094   4.660   6.036   8.825  0.2912 -0.0101  0.9729
21068SOL     OW66095   6.999   7.973   7.501  0.2576 -0.0729 -0.2047
21068SOL    HW166096   6.920   8.025   7.487  0.7245  1.2797  1.7467
21068SOL    HW266097   7.053   7.989   7.424 -0.6775  0.2928 -0.8009
21069SOL     OW66098   7.355   5.761   9.236  0.0204  0.5961  0.0015
21069SOL    HW166099   7.374   5.674   9.201 -1.1943  0.1384  0.4351
21069SOL    HW266100   7.291   5.798   9.175  0.0736  0.9392  0.1508
21070SOL     OW66101   9.429   0.505   9.217  0.1105  0.3028 -0.1989
21070SOL    HW166102   9.356   0.500   9.279  0.5780  0.2407  0.3496
21070SOL    HW266103   9.477   0.422   9.229  1.1189  0.9701  0.5015
21071SOL     OW66104   2.209   8.266   5.283  0.7433  0.7686 -0.2839
21071SOL    HW166105   2.226   8.252   5.377  1.2840  0.5008 -0.4172
21071SOL    HW266106   2.246   8.353   5.265  1.3310  0.4975 -0.4122
21072SOL     OW66107   7.579   4.118   5.235 -0.1866  0.2394  0.0480
21072SOL    HW166108   7.485   4.105   5.226 -0.4371  0.7323  1.6079
21072SOL    HW266109   7.609   4.043   5.287 -0.1369  1.2307  1.5076
21073SOL     OW66110   4.146   8.159   0.551  0.5453  0.7790 -0.0897
21073SOL    HW166111   4.186   8.122   0.630 -1.1834 -0.4077  0.2929
21073SOL    HW266112   4.200   8.235   0.530  1.2724  0.9144  2.0203
21074SOL     OW66113   4.978   9.622   6.097 -0.0840  0.4280  0.7780
21074SOL    HW166114   4.919   9.627   6.022 -0.3491  0.6382  0.9994
21074SOL    HW266115   5.066   9.622   6.059 -0.2038 -2.0975  0.2759
21075SOL     OW66116   0.186   2.569   8.646 -0.1676 -0.5353  0.2599
21075SOL    HW166117   0.209   2.645   8.699  2.4708 -1.6524  0.8862
21075SOL    HW266118   0.155   2.605   8.563  0.4268  1.2169  0.7654
21076SOL     OW66119   1.031   9.334   3.392  0.1230  1.3244  0.5892
21076SOL    HW166120   1.111   9.307   3.437  1.3644  0.6519 -1.8435
21076SOL    HW266121   0.969   9.263   3.407  0.9691  0.4745  0.1478
21077SOL     OW66122   5.165   3.367   0.416  0.1144  0.3349  0.5006
21077SOL    HW166123   5.182   3.346   0.508 -0.3436 -0.9218  0.3167
21077SOL    HW266124   5.131   3.456   0.418  0.0474  0.3012  1.5601
21078SOL     OW66125   9.205   1.559   4.824  0.5199  0.0232  0.2933
21078SOL    HW166126   9.298   1.555   4.847  0.8410 -0.6762 -1.0177
21078SOL    HW266127   9.203   1.604   4.740 -0.1382 -1.5119 -0.5531
21079SOL     OW66128   2.800   6.792   5.532  0.0239  0.0667  0.0313
21079SOL    HW166129   2.830   6.763   5.618  1.5043 -1.5321 -0.9509
21079SOL    HW266130   2.864   6.755   5.471 -2.0240 -0.4550 -1.9225
21080SOL     OW66131   9.032   3.057   5.073  0.4923  0.3716 -0.2364
21080SOL    HW166132   9.024   2.971   5.034  2.2440 -0.1442  0.4263
21080SOL    HW266133   9.038   3.117   4.999 -0.4077 -0.0907 -0.6990
21081SOL     OW66134   8.004   3.910   2.162  0.0236 -0.1566  0.6910
21081SOL    HW166135   7.967   3.941   2.244 -1.0930 -0.8203  0.4709
21081SOL    HW266136   7.988   3.815   2.163 -1.6001  0.0255 -1.0172
21082SOL     OW66137   6.208   3.111   2.152 -0.4040  0.1687  0.3043
21082SOL    HW166138   6.210   3.203   2.175  0.7189  0.5207 -1.0603
21082SOL    HW266139   6.295   3.093   2.115 -1.3435 -0.8402 -1.5968
21083SOL     OW66140   1.889   4.521   3.407  0.3542  0.2652  0.5767
21083SOL    HW166141   1.849   4.542   3.322  1.7551 -0.9570 -0.4255
21083SOL    HW266142   1.935   4.601   3.432  0.8947  0.2665 -0.3857
21084SOL     OW66143   9.453   7.849   2.720 -0.5587 -0.2283 -0.0504
21084SOL    HW166144   9.433   7.874   2.810  1.9990  0.3505  0.4218
21084SOL    HW266145   9.395   7.904   2.667  0.6806  2.4156  1.1539
21085SOL     OW66146   8.283   0.175   0.418  0.1069  0.2793  0.0624
21085SOL    HW166147   8.332   0.251   0.386 -0.7907  0.5723 -0.6833
21085SOL    HW266148   8.340   0.100   0.401  0.7742  0.7239  0.2928
21086SOL     OW66149   4.610   9.560   4.290  0.2494  0.1195  0.2392
21086SOL    HW166150   4.685   9.568   4.349  1.0643 -0.4561 -0.6864
21086SOL    HW266151   4.594   9.466   4.284  0.6861  0.1039 -1.0541
21087SOL     OW66152   7.520   2.087   6.267  0.1730  0.1950 -0.6550
21087SOL    HW166153   7.462   2.138   6.323  0.7721  0.6238 -0.4053
21087SOL    HW266154   7.598   2.073   6.321 -0.9280 -3.2297  0.2701
21088SOL     OW66155   5.602   0.322   4.065 -0.2727  0.1071 -0.3080
21088SOL    HW166156   5.570   0.404   4.028  0.9870  0.3509 -0.9045
21088SOL    HW266157   5.691   0.313   4.032 -1.4567 -3.2978 -3.2714
21089SOL     OW66158   7.587   4.006   3.558 -0.3452  0.4708  0.0439
21089SOL    HW166159   7.663   4.031   3.505 -0.6111 -0.8360 -0.9952
21089SOL    HW266160   7.550   3.930   3.513 -2.6480  1.4377  0.1697
21090SOL     OW66161   2.373   1.280   2.002  0.0935 -0.6708 -0.2887
21090SOL    HW166162   2.310   1.208   2.002  1.0709 -1.5756 -1.0872
21090SOL    HW266163   2.453   1.241   1.964  0.5719  0.9006 -0.9788
21091SOL     OW66164   2.737   4.453   3.028 -0.4142  0.7019  0.0979
21091SOL    HW166165   2.822   4.455   3.072 -0.4320 -1.6163  0.3703
21091SOL    HW266166   2.673   4.470   3.097 -0.2001  2.5004 -0.1164
21092SOL     OW66167   3.781   3.641   6.789 -0.6575 -0.2107  0.7615
21092SOL    HW166168   3.820   3.578   6.729  1.9340  2.0566 -0.1531
21092SOL    HW266169   3.695   3.661   6.752 -0.5999 -1.5460 -0.1235
21093SOL     OW66170   4.924   4.720   4.916  0.7272 -0.1371 -0.6707
21093SOL    HW166171   4.930   4.654   4.985  2.5316  1.7369  1.0894
21093SOL    HW266172   5.012   4.721   4.877  0.9048  1.5724 -0.2883
21094SOL     OW66173   5.498   1.175   8.468  0.5165 -0.0037  0.3319
21094SOL    HW166174   5.410   1.152   8.497  0.7580  1.5415  2.6153
21094SOL    HW266175   5.486   1.252   8.412  0.3363 -0.6940 -0.6021
21095SOL     OW66176   0.188   5.176   1.058  0.4559 -0.4808 -0.2180
21095SOL    HW166177   0.269   5.147   1.018  2.3977  2.8100  0.9786
21095SOL    HW266178   0.201   5.162   1.152  0.0781  0.9741  0.0771
21096SOL     OW66179   7.320   9.002   7.944  0.2393  0.2108 -0.4335
21096SOL    HW166180   7.347   9.002   8.035  1.4492  2.3146 -0.7270
21096SOL    HW266181   7.226   8.985   7.947  0.7106 -2.6892  0.9424
21097SOL     OW66182   0.994   7.508   3.130 -0.0442  0.1912 -0.1808
21097SOL    HW166183   1.065   7.472   3.182 -0.9623 -0.2042  0.8472
21097SOL    HW266184   0.972   7.591   3.174 -0.5179  0.0863 -0.2197
21098SOL     OW66185   6.703   4.823   6.888  0.3953  0.1005 -0.0186
21098SOL    HW166186   6.620   4.778   6.903 -1.5044  2.9324 -1.2785
21098SOL    HW266187   6.743   4.829   6.975 -0.4913 -1.6357  0.5587
21099SOL     OW66188   3.910   6.762   2.535 -0.4898  0.8447 -0.5849
21099SOL    HW166189   3.929   6.802   2.449  0.4025 -1.1851 -1.3857
21099SOL    HW266190   3.951   6.676   2.531  0.0266  0.8884  2.1161
21100SOL     OW66191   2.818   0.486   1.263 -0.2814  0.1959  0.0925
21100SOL    HW166192   2.828   0.511   1.171  0.5392  0.6401  0.2920
21100SOL    HW266193   2.724   0.489   1.279 -0.2724  2.8376  0.0098
21101SOL     OW66194   4.917   3.046   2.842  0.0793  0.2287  0.3670
21101SOL    HW166195   4.875   3.133   2.843 -0.5712 -0.0785  0.2432
21101SOL    HW266196   4.932   3.026   2.935  1.5325  1.0795  0.3414
21102SOL     OW66197   8.351   8.058   6.299 -0.2808 -0.7675  0.3476
21102SOL    HW166198   8.342   8.131   6.361 -3.0991 -0.5417 -0.2145
21102SOL    HW266199   8.378   7.984   6.353 -1.7663 -0.3540  1.7319
21103SOL     OW66200   3.282   1.310   2.008  0.3981 -0.5527  0.0345
21103SOL    HW166201   3.361   1.284   1.960  2.2971  0.4535  2.3417
21103SOL    HW266202   3.276   1.247   2.079 -2.5660 -2.2515 -1.5734
21104SOL     OW66203   8.366   4.203   4.377  0.4058  0.1695 -0.5053
21104SOL    HW166204   8.328   4.289   4.396 -0.6684 -0.2299 -0.7485
21104SOL    HW266205   8.430   4.189   4.446 -1.5318 -0.1114  1.3407
21105SOL     OW66206   9.243   2.006   0.572 -0.1269  0.5678 -0.4221
21105SOL    HW166207   9.257   2.035   0.482  2.5639  2.3262  0.4328
21105SOL    HW266208   9.249   2.086   0.624 -1.7946 -0.3769  1.3542
21106SOL     OW66209   3.169   3.469   0.898 -0.3002  0.0091  0.5748
21106SOL    HW166210   3.179   3.377   0.875  1.0186  0.6214 -1.5824
21106SOL    HW266211   3.255   3.496   0.930 -0.8184  0.3783  1.6949
21107SOL     OW66212   1.604   5.307   3.344 -0.4365 -0.1649 -0.6295
21107SOL    HW166213   1.682   5.252   3.329 -0.4131 -0.1616 -0.5193
21107SOL    HW266214   1.541   5.276   3.279 -0.9499 -1.3382  0.3813
21108SOL     OW66215   2.632   3.165   3.543  0.0205 -0.2269 -0.7523
21108SOL    HW166216   2.586   3.249   3.549 -0.5062 -0.6051  2.4882
21108SOL    HW266217   2.723   3.185   3.564 -0.0318 -0.3949 -0.3503
21109SOL     OW66218   8.910   4.250   0.850  0.3603  0.1083 -0.2929
21109SOL    HW166219   8.867   4.328   0.815  0.3653 -0.1239 -0.8257
21109SOL    HW266220   8.888   4.251   0.943 -1.0269 -0.1369 -0.5840
21110SOL     OW66221   1.187   8.359   0.346 -0.1034  0.3905 -0.0432
21110SOL    HW166222   1.130   8.431   0.318 -1.3748 -0.1675  1.0190
21110SOL    HW266223   1.176   8.292   0.279 -0.2845  0.4882 -0.1095
21111SOL     OW66224   2.792   4.243   8.071 -0.2224 -0.1852  0.1469
21111SOL    HW166225   2.751   4.164   8.108  1.1164 -1.3731 -0.8200
21111SOL    HW266226   2.845   4.210   7.999 -0.2673  1.7237 -0.7944
21112SOL     OW66227   4.137   3.308   6.923 -0.1766 -0.0017  0.2620
21112SOL    HW166228   4.138   3.252   7.000  0.8468  0.5484  0.6608
21112SOL    HW266229   4.229   3.316   6.898 -0.1743  2.3544  0.8377
21113SOL     OW66230   1.369   3.396   1.450  0.3098 -0.3173 -0.2623
21113SOL    HW166231   1.337   3.486   1.458 -1.0966 -0.9233  1.6983
21113SOL    HW266232   1.432   3.386   1.521 -0.8375 -1.3290  0.6811
21114SOL     OW66233   4.482   7.407   4.742 -0.4083  0.0793  0.4393
21114SOL    HW166234   4.501   7.420   4.649 -0.5114  0.3012  0.4485
21114SOL    HW266235   4.422   7.332   4.743 -2.2091  1.4460  0.1311
21115SOL     OW66236   2.853   1.273   8.362 -0.1164  0.1255  0.5394
21115SOL    HW166237   2.916   1.296   8.294 -0.2915  0.6411  0.5452
21115SOL    HW266238   2.902   1.218   8.423  0.0478 -0.3198  0.0104
21116SOL     OW66239   1.196   5.770   7.755  0.0681 -0.7230  0.1355
21116SOL    HW166240   1.260   5.702   7.734 -0.0315 -0.8908  0.3779
21116SOL    HW266241   1.199   5.829   7.680  0.5275 -0.7145  0.1568
21117SOL     OW66242   8.067   2.692   6.424 -0.0440 -0.1496  0.5956
21117SOL    HW166243   8.078   2.703   6.518 -0.3797  2.0375  0.4263
21117SOL    HW266244   8.156   2.698   6.389  0.0751 -0.9157  0.7534
21118SOL     OW66245   6.516   1.419   3.801 -0.1463  0.5638  0.2405
21118SOL    HW166246   6.537   1.481   3.871  0.5351  0.2471  0.3221
21118SOL    HW266247   6.504   1.335   3.845 -0.7038  0.5571  0.0871
21119SOL     OW66248   1.851   7.963   5.282  0.7666 -0.0918 -0.2631
21119SOL    HW166249   1.941   7.987   5.261  1.6254 -2.4937  0.4141
21119SOL    HW266250   1.829   7.895   5.219  0.2809 -1.1784  1.0534
21120SOL     OW66251   5.820   9.504   7.750  0.0238 -0.2329  0.2579
21120SOL    HW166252   5.775   9.492   7.666 -1.1550 -0.5211  0.9038
21120SOL    HW266253   5.912   9.515   7.727 -0.2924 -0.2161 -1.0776
21121SOL     OW66254   4.413   8.682   7.795  0.1248 -0.9920  0.2623
21121SOL    HW166255   4.361   8.619   7.745  1.3179 -3.1579  1.6188
21121SOL    HW266256   4.499   8.680   7.752 -0.1381  0.6502 -0.4029
21122SOL     OW66257   7.681   2.329   0.234  0.6141  0.0288  0.3190
21122SOL    HW166258   7.680   2.264   0.163  1.4720 -0.1990  0.4964
21122SOL    HW266259   7.590   2.335   0.263  0.3038 -0.1057 -0.5945
21123SOL     OW66260   6.815   6.345   6.283  0.0112 -0.0391 -0.0658
21123SOL    HW166261   6.856   6.321   6.367  0.1500  0.0570 -0.1063
21123SOL    HW266262   6.721   6.349   6.303 -0.1461 -1.7631 -0.3247
21124SOL     OW66263   5.507   2.545   2.453  0.5476 -0.3704  0.1666
21124SOL    HW166264   5.523   2.467   2.507 -0.1133 -0.3839  0.3569
21124SOL    HW266265   5.529   2.518   2.364  0.3696 -0.7625  0.2388
21125SOL     OW66266   2.230   5.350   2.226  0.4623  0.3516  0.0473
21125SOL    HW166267   2.205   5.317   2.313 -1.6245 -0.3620 -0.7518
21125SOL    HW266268   2.288   5.424   2.244  0.1487  0.1641  2.0453
21126SOL     OW66269   8.901   5.012   4.239 -0.1224 -0.6496 -0.1496
21126SOL    HW166270   8.911   4.920   4.213  1.0697 -0.2915 -1.0655
21126SOL    HW266271   8.837   5.047   4.177  0.1843 -0.6238 -0.4571
21127SOL     OW66272   8.554   6.978   6.277  0.0209  0.3587 -0.0182
21127SOL    HW166273   8.486   7.032   6.318  0.2959  0.1764  0.6960
21127SOL    HW266274   8.506   6.904   6.238 -0.4438  1.4738 -1.6687
21128SOL     OW66275   4.273   2.421   7.795  0.0366 -0.3413 -0.0165
21128SOL    HW166276   4.268   2.515   7.783 -0.8799 -0.2504  0.9174
21128SOL    HW266277   4.283   2.409   7.890 -0.6885 -1.1953 -0.0349
21129SOL     OW66278   1.616   1.841   6.126  0.2976  0.0917 -0.1041
21129SOL    HW166279   1.551   1.802   6.067  1.1842 -0.8476 -0.4805
21129SOL    HW266280   1.612   1.787   6.205  1.1382 -0.4375 -0.4155
21130SOL     OW66281   4.150   0.164   1.450  0.3619  0.3066  0.3347
21130SOL    HW166282   4.103   0.184   1.530 -0.1286  1.5437 -0.2279
21130SOL    HW266283   4.144   0.069   1.440 -2.2938  0.4272  0.1395
21131SOL     OW66284   1.079   0.768   6.711 -0.2840  0.1800  0.5767
21131SOL    HW166285   1.089   0.857   6.676  0.3141 -0.2237 -0.3380
21131SOL    HW266286   1.043   0.780   6.798 -0.0315  1.3357  0.5395
21132SOL     OW66287   1.550   0.143   1.603  0.0114 -0.0161  0.0225
21132SOL    HW166288   1.494   0.092   1.544 -0.0504  0.0630  0.0125
21132SOL    HW266289   1.586   0.212   1.547  1.6598 -1.1835 -0.4671
21133SOL     OW66290   2.149   2.219   2.802 -0.3445  0.3376  0.3302
21133SOL    HW166291   2.067   2.191   2.843 -0.0475  0.8971  1.3421
21133SOL    HW266292   2.186   2.282   2.863  0.0439  1.3334 -0.8998
21134SOL     OW66293   9.221   7.061   5.868  0.3368  0.1783  0.3352
21134SOL    HW166294   9.198   7.091   5.780  0.0301 -1.3815 -0.1487
21134SOL    HW266295   9.250   6.971   5.856  2.3765  0.6236  1.5720
21135SOL     OW66296   2.895   6.739   7.197  0.0995 -0.1104  0.6849
21135SOL    HW166297   2.818   6.794   7.184 -0.2255 -0.5316  0.8273
21135SOL    HW266298   2.917   6.750   7.289  0.2486  0.0590  0.6301
21136SOL     OW66299   1.904   1.748   9.388  0.0420 -0.1440  0.5329
21136SOL    HW166300   1.980   1.802   9.408  0.2700 -0.9839  2.1445
21136SOL    HW266301   1.939   1.674   9.338  0.2953 -0.4800  1.1897
21137SOL     OW66302   8.970   8.990   9.214 -0.3940  0.0088  0.2859
21137SOL    HW166303   9.026   8.946   9.278 -0.4800  1.8615  1.7206
21137SOL    HW266304   9.006   9.078   9.206 -2.0083  0.6779 -0.1600
21138SOL     OW66305   5.925   5.547   7.104  0.6336 -0.9100  0.0417
21138SOL    HW166306   5.875   5.466   7.108 -1.3844  0.3127  0.8949
21138SOL    HW266307   5.961   5.558   7.192 -0.4298 -0.0973  0.3856
21139SOL     OW66308   6.438   0.754   5.128  0.6421 -0.1613  0.5532
21139SOL    HW166309   6.528   0.786   5.133 -0.0259  1.8056  0.8510
21139SOL    HW266310   6.393   0.798   5.200 -0.9141  0.1339 -0.5634
21140SOL     OW66311   1.694   5.089   3.013 -0.4926  0.3016  0.2289
21140SOL    HW166312   1.604   5.057   3.004 -0.9178  1.4868  0.1150
21140SOL    HW266313   1.718   5.119   2.926 -0.1517  0.4231  0.3619
21141SOL     OW66314   9.277   3.007   3.675 -0.4712 -0.5534  0.1591
21141SOL    HW166315   9.328   3.045   3.603 -1.1149  0.0120 -0.0097
21141SOL    HW266316   9.186   3.018   3.647 -0.7783  0.6714  1.5490
21142SOL     OW66317   6.385   5.926   5.521 -0.0281 -0.0575 -0.2324
21142SOL    HW166318   6.373   6.006   5.469  0.4283  0.7023  0.7820
21142SOL    HW266319   6.418   5.862   5.459  1.3685  1.0766 -0.7360
21143SOL     OW66320   2.265   4.171   8.750 -0.0812 -0.4677  0.2442
21143SOL    HW166321   2.330   4.126   8.804  1.7034  1.6970  0.0806
21143SOL    HW266322   2.252   4.255   8.794 -1.0578  0.0447 -0.9617
21144SOL     OW66323   3.185   3.020   2.800 -0.0503  0.4547  0.3799
21144SOL    HW166324   3.139   3.029   2.883  0.4410 -0.6430  0.7896
21144SOL    HW266325   3.122   3.046   2.734 -1.3239 -1.1193  0.9158
21145SOL     OW66326   5.051   2.126   4.100 -0.6496  0.2321 -0.6652
21145SOL    HW166327   4.973   2.090   4.058  0.3308  0.0005 -2.4124
21145SOL    HW266328   5.110   2.052   4.110 -0.7519  0.3357  0.9739
21146SOL     OW66329   5.124   6.846   0.793  0.5243 -0.2168  0.3147
21146SOL    HW166330   5.209   6.805   0.778  0.0427 -1.7274  1.4200
21146SOL    HW266331   5.133   6.892   0.876  0.8460  1.3650 -0.5735
21147SOL     OW66332   1.129   9.093   3.227  0.1783  0.0131 -0.0966
21147SOL    HW166333   1.043   9.051   3.230 -0.9315  2.1597 -0.3047
21147SOL    HW266334   1.150   9.110   3.319 -0.1408  0.4631 -0.1026
21148SOL     OW66335   7.513   5.718   0.812  0.0826 -0.5022 -0.0354
21148SOL    HW166336   7.429   5.753   0.840  0.4914  1.1123 -0.7355
21148SOL    HW266337   7.548   5.674   0.890 -1.4477 -1.3505  0.2153
21149SOL     OW66338   2.812   0.910   1.300 -0.3169 -0.7975  0.2243
21149SOL    HW166339   2.858   0.903   1.216 -0.6906 -0.3018 -0.0208
21149SOL    HW266340   2.840   0.994   1.336 -1.8090  0.0050 -0.4018
21150SOL     OW66341   4.216   1.494   7.956  0.7698 -0.3144  0.5578
21150SOL    HW166342   4.209   1.580   7.915  2.7607 -1.1425 -1.8024
21150SOL    HW266343   4.272   1.509   8.033  0.6450  0.5853  0.4856
21151SOL     OW66344   2.778   1.834   1.995  0.4979 -0.4058  0.4846
21151SOL    HW166345   2.791   1.899   2.065  1.1392  0.7960 -0.7166
21151SOL    HW266346   2.823   1.871   1.919  2.6801 -3.2274  0.2625
21152SOL     OW66347   2.670   4.061   8.230 -0.0372  0.0514 -0.1710
21152SOL    HW166348   2.761   4.042   8.254 -0.3059 -0.8130  0.2100
21152SOL    HW266349   2.620   3.988   8.267 -0.8980  0.5618 -0.3046
21153SOL     OW66350   2.503   5.671   2.084  0.3002 -0.0757 -0.1501
21153SOL    HW166351   2.437   5.631   2.141  1.1002  0.3514  1.1219
21153SOL    HW266352   2.553   5.596   2.050 -2.1061 -0.6206 -2.9222
21154SOL     OW66353   4.195   4.510   2.667 -0.2743 -0.5827 -0.3041
21154SOL    HW166354   4.170   4.497   2.576  0.8507  0.2035 -0.7493
21154SOL    HW266355   4.210   4.422   2.701 -1.2951 -0.9154 -0.6907
21155SOL     OW66356   1.403   4.942   3.535  0.3748  0.1294 -0.4681
21155SOL    HW166357   1.407   4.875   3.467  1.9241 -0.6368  0.3304
21155SOL    HW266358   1.422   4.896   3.616  0.3036  1.3316  0.2649
21156SOL     OW66359   7.891   2.174   0.852  0.1362  0.7878 -0.1302
21156SOL    HW166360   7.865   2.202   0.764 -1.6734  1.5530  0.5974
21156SOL    HW266361   7.953   2.241   0.881 -0.2287  1.2322 -0.3582
21157SOL     OW66362   6.928   5.665   9.028 -0.5265  0.1281 -0.0013
21157SOL    HW166363   6.977   5.688   9.107  1.0335 -2.1267 -0.2415
21157SOL    HW266364   6.863   5.601   9.057 -0.0699 -0.5704 -0.4962
21158SOL     OW66365   1.368   4.175   2.607 -0.0228 -0.5337  0.1730
21158SOL    HW166366   1.427   4.144   2.538  0.2457 -1.4036  0.7815
21158SOL    HW266367   1.345   4.264   2.580  0.4086 -0.7081 -0.8218
21159SOL     OW66368   4.568   7.560   5.647 -0.0136 -0.3238  0.0696
21159SOL    HW166369   4.575   7.640   5.699  0.2446 -0.0326 -0.4089
21159SOL    HW266370   4.575   7.589   5.556 -1.0067 -0.7664 -0.1670
21160SOL     OW66371   3.931   3.596   8.522  0.5026  0.2817  0.7707
21160SOL    HW166372   3.992   3.527   8.494 -0.3539  0.0128 -0.5640
21160SOL    HW266373   3.963   3.675   8.477  0.2645  0.2865  0.6101
21161SOL     OW66374   7.470   0.126   8.738 -0.2832  0.6050 -0.2221
21161SOL    HW166375   7.450   0.071   8.813 -1.3016  0.8425 -0.2963
21161SOL    HW266376   7.506   0.066   8.673  0.0473  0.2980  0.2387
21162SOL     OW66377   0.600   4.729   8.604 -0.2166  0.1333  0.0902
21162SOL    HW166378   0.666   4.787   8.568  0.5893 -0.8774 -0.0950
21162SOL    HW266379   0.517   4.763   8.571  0.3783  0.1351 -1.4550
21163SOL     OW66380   2.694   9.098   8.027 -0.1356  0.1853  0.0993
21163SOL    HW166381   2.698   9.005   8.004  0.3914 -0.0843  1.2399
21163SOL    HW266382   2.743   9.141   7.957 -1.9217 -0.1583 -1.4648
21164SOL     OW66383   3.409   8.519   9.290 -0.1433 -0.6632 -0.2503
21164SOL    HW166384   3.326   8.520   9.337 -0.4835  0.5050 -0.8245
21164SOL    HW266385   3.384   8.505   9.199  0.5487 -3.5728 -0.0855
21165SOL     OW66386   5.727   8.086   7.847  0.8099 -0.4317 -0.3446
21165SOL    HW166387   5.724   8.180   7.865  0.0663 -0.5210  0.0210
21165SOL    HW266388   5.686   8.075   7.762  0.0119 -0.5236  0.0432
21166SOL     OW66389   7.454   5.636   1.861  0.1664 -0.1675 -0.0161
21166SOL    HW166390   7.475   5.547   1.887  3.1697  0.5876  0.4783
21166SOL    HW266391   7.441   5.631   1.766  2.0650 -0.9221 -0.2842
21167SOL     OW66392   5.713   1.680   7.425  0.3273 -0.1049  0.3370
21167SOL    HW166393   5.803   1.681   7.393  1.1703  0.7682  2.5286
21167SOL    HW266394   5.702   1.592   7.461  0.1401 -0.3453 -0.2886
21168SOL     OW66395   5.578   5.873   3.664  0.2109 -0.2468 -0.1191
21168SOL    HW166396   5.630   5.944   3.626  0.0897  0.3312  0.7879
21168SOL    HW266397   5.590   5.882   3.758 -1.4447 -0.1632  0.1060
21169SOL     OW66398   4.987   4.810   6.502 -0.3128 -0.1653  0.1979
21169SOL    HW166399   5.000   4.727   6.456  1.0574 -0.6081  1.2983
21169SOL    HW266400   5.019   4.793   6.591 -2.3689  0.7959  1.2041
21170SOL     OW66401   3.075   8.199   3.534  1.1220  0.3673  0.7977
21170SOL    HW166402   3.138   8.171   3.468 -0.5018 -0.3629 -0.5149
21170SOL    HW266403   3.048   8.287   3.507 -2.2109 -1.2270 -1.7694
21171SOL     OW66404   7.800   3.867   2.752 -0.1445 -0.4372  0.2265
21171SOL    HW166405   7.760   3.805   2.812 -1.8710  0.0338 -0.3900
21171SOL    HW266406   7.728   3.901   2.699  0.8617  1.4497 -0.0525
21172SOL     OW66407   6.313   8.568   4.288  0.2670  0.1067 -0.1014
21172SOL    HW166408   6.326   8.651   4.242 -0.9648  0.3307 -0.0956
21172SOL    HW266409   6.381   8.566   4.355  0.8759  0.6811 -0.6905
21173SOL     OW66410   8.226   8.156   8.402 -0.0594  0.3762 -0.2127
21173SOL    HW166411   8.212   8.240   8.446 -1.5195 -0.6413  1.4352
21173SOL    HW266412   8.269   8.102   8.469 -1.1279 -0.8260 -0.4600
21174SOL     OW66413   6.404   0.864   7.339  0.0270 -0.1155  0.2316
21174SOL    HW166414   6.384   0.893   7.250 -1.9242 -2.3938 -0.1792
21174SOL    HW266415   6.323   0.823   7.370  1.8862 -3.2346  1.4255
21175SOL     OW66416   2.252   2.726   3.896  0.0714 -0.1899  0.0672
21175SOL    HW166417   2.230   2.634   3.882 -0.7989  0.1292 -0.8060
21175SOL    HW266418   2.347   2.729   3.896  0.1087 -0.9996 -0.5726
21176SOL     OW66419   4.074   8.971   6.224 -0.1323 -0.7340 -0.5309
21176SOL    HW166420   4.075   8.881   6.191 -1.7380 -1.1571  0.4260
21176SOL    HW266421   4.082   8.962   6.319  1.2977  0.2595 -0.5220
21177SOL     OW66422   9.484   6.786   3.704 -0.6440 -0.2207  0.1468
21177SOL    HW166423   9.536   6.802   3.625 -0.8248 -0.0790  0.0557
21177SOL    HW266424   9.548   6.784   3.775 -0.5905  0.6773  0.1344
21178SOL     OW66425   1.127   7.142   1.777  0.6629  0.2747 -0.3477
21178SOL    HW166426   1.188   7.132   1.850 -0.1506  0.6138  0.4060
21178SOL    HW266427   1.070   7.065   1.784 -0.9529  1.5173  0.9088
21179SOL     OW66428   7.725   8.691   5.850 -0.1333  0.3634  0.2045
21179SOL    HW166429   7.749   8.648   5.768  0.2688  1.5222 -0.3053
21179SOL    HW266430   7.704   8.619   5.910  1.1960 -0.5727 -0.4030
21180SOL     OW66431   2.657   3.057   3.867  0.0895  0.0653  0.9943
21180SOL    HW166432   2.743   3.015   3.874 -0.2359 -0.3826  3.2656
21180SOL    HW266433   2.669   3.145   3.903 -0.3923 -0.0260  1.4057
21181SOL     OW66434   5.770   8.195   0.506  0.9474 -0.5242  0.2871
21181SOL    HW166435   5.806   8.108   0.490 -0.7712 -1.0449 -1.1096
21181SOL    HW266436   5.681   8.191   0.470  1.2189  2.1663 -0.9398
21182SOL     OW66437   1.272   1.690   0.655 -0.3110 -0.1930 -0.1379
21182SOL    HW166438   1.301   1.648   0.736  0.3004  0.7479  0.1382
21182SOL    HW266439   1.195   1.741   0.681 -0.6862 -0.6372 -0.3523
21183SOL     OW66440   6.458   0.344   9.033 -0.3460 -0.3457  0.1081
21183SOL    HW166441   6.452   0.331   8.939 -2.3483 -0.1637  0.1510
21183SOL    HW266442   6.542   0.387   9.047 -0.8599  1.4081 -1.8186
21184SOL     OW66443   7.580   7.357   9.034  0.2154 -0.3965 -0.0596
21184SOL    HW166444   7.594   7.421   8.965 -0.6760 -0.1724 -0.0435
21184SOL    HW266445   7.623   7.395   9.111 -1.4038  0.8398  0.2971
21185SOL     OW66446   4.602   0.790   2.856  0.1257 -0.1936 -0.3192
21185SOL    HW166447   4.528   0.761   2.909  0.4621 -0.2493  0.1197
21185SOL    HW266448   4.666   0.823   2.919  0.2896  0.2899 -0.7245
21186SOL     OW66449   6.841   6.274   5.318  0.1981 -0.6958 -0.0915
21186SOL    HW166450   6.748   6.260   5.335  0.6400 -3.0219  0.7922
21186SOL    HW266451   6.885   6.240   5.396  1.7732  1.7972  0.2295
21187SOL     OW66452   5.341   0.696   3.929 -0.4023 -0.6630  0.3889
21187SOL    HW166453   5.270   0.705   3.865 -0.5744  3.7180  0.8962
21187SOL    HW266454   5.321   0.761   3.996  3.0092 -0.7548  1.6825
21188SOL     OW66455   2.588   1.589   3.139  0.0911  0.2129  0.4461
21188SOL    HW166456   2.607   1.496   3.148 -0.5715  0.0711  0.4314
21188SOL    HW266457   2.544   1.596   3.054 -0.6870  0.3973  0.8533
21189SOL     OW66458   6.871   9.613   8.049 -1.0326  0.0366  0.0076
21189SOL    HW166459   6.898   9.678   8.113 -0.3292 -0.2401 -0.0002
21189SOL    HW266460   6.931   9.540   8.063 -1.5650 -0.4573 -0.2433
21190SOL     OW66461   3.451   3.339   2.721 -0.0380  0.5727 -0.4295
21190SOL    HW166462   3.421   3.361   2.809  1.7656  0.0332  0.3736
21190SOL    HW266463   3.411   3.406   2.665 -0.0585  1.8398  1.0147
21191SOL     OW66464   5.228   5.616   0.543  0.0212 -0.2283 -0.1054
21191SOL    HW166465   5.166   5.543   0.551  0.0086 -0.5538 -2.4060
21191SOL    HW266466   5.173   5.691   0.523  0.2131 -0.0715 -0.0432
21192SOL     OW66467   4.199   8.326   9.146  0.1978 -0.3624  0.0309
21192SOL    HW166468   4.290   8.351   9.165 -0.2032  0.3447  1.0964
21192SOL    HW266469   4.146   8.390   9.194 -0.8789 -0.1567 -1.3509
21193SOL     OW66470   9.256   6.181   6.715 -0.5117  0.0051 -0.5302
21193SOL    HW166471   9.217   6.234   6.783  0.4137 -0.3833  0.3329
21193SOL    HW266472   9.292   6.244   6.653 -2.8570  0.3872 -1.6257
21194SOL     OW66473   7.359   6.735   0.718 -0.6213  0.0174 -0.0081
21194SOL    HW166474   7.422   6.806   0.732  0.4534 -1.3392  2.8382
21194SOL    HW266475   7.384   6.697   0.634 -0.9495  2.6374 -1.4081
21195SOL     OW66476   0.424   6.498   8.358  0.2839  0.0272 -0.1417
21195SOL    HW166477   0.355   6.497   8.424  1.4984  0.6569  1.1952
21195SOL    HW266478   0.379   6.477   8.276 -1.1135 -1.8177  1.0111
21196SOL     OW66479   1.031   0.013   2.666  0.2661  0.3348  0.3364
21196SOL    HW166480   0.937   0.018   2.654  0.4131 -0.4153 -1.4708
21196SOL    HW266481   1.049  -0.080   2.679  0.6151  0.6434  2.5861
21197SOL     OW66482   0.934   2.882   1.564  0.0847 -0.7139 -0.6696
21197SOL    HW166483   0.910   2.934   1.641 -0.2147 -2.7953  0.7302
21197SOL    HW266484   0.912   2.938   1.489  0.6119  1.4846  0.7141
21198SOL     OW66485   1.336   8.515   0.665  0.0553 -0.1604 -0.1466
21198SOL    HW166486   1.404   8.451   0.648  0.0373 -0.1828 -0.1361
21198SOL    HW266487   1.258   8.480   0.622  0.0976 -0.0438 -0.3185
21199SOL     OW66488   8.279   4.129   1.531  0.5416 -0.0720  0.0722
21199SOL    HW166489   8.264   4.216   1.569 -1.0568  0.7745 -2.2617
21199SOL    HW266490   8.339   4.146   1.458  1.4906 -1.2259  0.5529
21200SOL     OW66491   4.272   5.026   0.474  0.5982 -0.0785  0.0449
21200SOL    HW166492   4.278   4.939   0.512  0.6914  0.8194  2.2593
21200SOL    HW266493   4.362   5.058   0.473  0.1875  2.0660  4.8040
21201SOL     OW66494   3.545   6.447   6.641  0.3604 -0.3310 -0.3801
21201SOL    HW166495   3.537   6.533   6.600  1.2984 -0.5909 -1.1563
21201SOL    HW266496   3.487   6.390   6.590 -0.2264 -0.1710  0.1055
21202SOL     OW66497   3.119   7.675   6.881 -0.6357 -0.1097 -0.1425
21202SOL    HW166498   3.160   7.761   6.896 -0.6022 -0.1615  0.0649
21202SOL    HW266499   3.181   7.612   6.919  0.2053 -0.3667 -1.8514
21203SOL     OW66500   5.318   2.266   5.669 -0.3037  0.2238  0.4056
21203SOL    HW166501   5.301   2.352   5.632 -1.1239 -0.4472 -0.8637
21203SOL    HW266502   5.403   2.241   5.633 -1.0617 -0.3918 -1.0388
21204SOL     OW66503   6.559   0.537   2.067 -0.0251  0.5077 -0.2732
21204SOL    HW166504   6.523   0.475   2.131  0.9740 -0.8425 -0.9736
21204SOL    HW266505   6.543   0.623   2.106 -0.3203 -0.2352  1.3394
21205SOL     OW66506   1.641   4.148   3.277  0.6086  0.9141 -0.1505
21205SOL    HW166507   1.651   4.123   3.369 -0.7292 -1.0905 -0.4987
21205SOL    HW266508   1.551   4.178   3.270 -0.0580 -1.2097 -1.2612
21206SOL     OW66509   8.345   8.692   7.781  0.1785 -0.1208  0.2523
21206SOL    HW166510   8.398   8.745   7.721 -1.6545  2.4219  0.7016
21206SOL    HW266511   8.406   8.664   7.849  1.4011  0.7943 -0.4262
21207SOL     OW66512   0.075   7.090   6.385  0.3891 -0.2263 -0.5157
21207SOL    HW166513   0.043   7.075   6.474  2.5234  0.2501  0.3991
21207SOL    HW266514   0.150   7.149   6.396  0.7684 -0.2289 -2.6265
21208SOL     OW66515   7.264   2.469   5.973 -0.3746 -0.3349 -0.1562
21208SOL    HW166516   7.277   2.384   5.929 -2.5773 -0.4380 -0.7007
21208SOL    HW266517   7.316   2.530   5.922  1.1531 -1.3035  0.1629
21209SOL     OW66518   3.086   8.810   5.284  0.2178 -0.2858  0.2126
21209SOL    HW166519   3.101   8.777   5.195 -0.8481 -0.2194 -0.0059
21209SOL    HW266520   3.145   8.758   5.339 -0.3012 -1.4900 -0.3273
21210SOL     OW66521   6.769   5.603   6.645  0.2396  0.1295  0.5911
21210SOL    HW166522   6.794   5.694   6.657  1.9689  0.5303 -4.1570
21210SOL    HW266523   6.835   5.554   6.695  0.3058  1.3852  1.7954
21211SOL     OW66524   5.665   3.719   7.078 -0.1699 -0.0138 -0.2288
21211SOL    HW166525   5.583   3.674   7.099 -1.3092  1.2144 -1.8195
21211SOL    HW266526   5.668   3.721   6.982  0.7636  1.6340 -0.2072
21212SOL     OW66527   8.413   8.142   2.218  0.3227 -0.4684  0.2116
21212SOL    HW166528   8.355   8.205   2.260  0.3832 -1.1766  1.4294
21212SOL    HW266529   8.357   8.093   2.159 -0.0957 -0.4202  0.5657
21213SOL     OW66530   9.363   2.277   7.023  0.0803 -0.2962 -0.0210
21213SOL    HW166531   9.324   2.293   6.937  0.0165  0.5893  0.1625
21213SOL    HW266532   9.329   2.192   7.049  0.0132 -0.5283 -0.8245
21214SOL     OW66533   0.799   0.555   8.633  0.1865  0.1280  0.1501
21214SOL    HW166534   0.824   0.647   8.622 -1.2185  0.3967 -1.0701
21214SOL    HW266535   0.763   0.551   8.722 -1.4719  1.2230 -0.4146
21215SOL     OW66536   8.589   6.492   6.780 -0.2772  0.0298 -0.0475
21215SOL    HW166537   8.511   6.445   6.751 -1.2346  0.1652  2.1244
21215SOL    HW266538   8.651   6.424   6.804  0.0397 -0.0771 -1.1138
21216SOL     OW66539   4.119   4.209   4.298  0.1568  0.4144 -0.0270
21216SOL    HW166540   4.091   4.168   4.380 -1.8676  1.3431 -0.1771
21216SOL    HW266541   4.187   4.271   4.325 -0.9599  1.2099  1.0976
21217SOL     OW66542   4.341   2.848   7.522 -0.6966 -0.2782  0.1095
21217SOL    HW166543   4.280   2.895   7.465 -0.8091 -0.3408  0.1778
21217SOL    HW266544   4.312   2.871   7.611 -1.7387 -1.7148  0.1762
21218SOL     OW66545   8.226   3.010   2.078  0.6155 -0.3028  0.0405
21218SOL    HW166546   8.316   3.006   2.108  0.9017  0.5304 -0.6806
21218SOL    HW266547   8.223   3.085   2.019 -0.4722 -0.5124 -0.2002
21219SOL     OW66548   2.208   3.794   2.190  0.7219  0.3058  0.0583
21219SOL    HW166549   2.149   3.838   2.129  1.6786  1.3583 -0.1491
21219SOL    HW266550   2.282   3.766   2.135  0.3356 -1.1917  0.2704
21220SOL     OW66551   0.302   6.527   9.147 -0.6939 -0.0928  0.3895
21220SOL    HW166552   0.321   6.606   9.197 -2.2574  0.4238  0.1944
21220SOL    HW266553   0.367   6.528   9.077 -0.8706  1.1750  0.2155
21221SOL     OW66554   5.714   0.463   7.688  0.1109  0.1234 -0.1600
21221SOL    HW166555   5.800   0.484   7.724 -0.6914  2.4455  0.6011
21221SOL    HW266556   5.732   0.402   7.617  2.5177  1.4794 -0.8269
21222SOL     OW66557   3.530   0.112   6.135  0.4430  0.0792 -0.5656
21222SOL    HW166558   3.607   0.075   6.179  1.9304  1.5126 -1.8100
21222SOL    HW266559   3.523   0.201   6.171  0.4311  0.5526 -1.6878
21223SOL     OW66560   7.754   1.379   9.053  0.0657  0.2222  0.3761
21223SOL    HW166561   7.688   1.358   9.118  1.4604 -2.2448  1.1199
21223SOL    HW266562   7.709   1.371   8.969 -0.8774 -0.1584  0.9076
21224SOL     OW66563   8.907   5.785   3.528  0.2949 -0.5935  0.1169
21224SOL    HW166564   8.902   5.717   3.595  0.2671 -1.4735 -0.7574
21224SOL    HW266565   9.001   5.798   3.513  0.4084  1.5180  2.1886
21225SOL     OW66566   8.002   1.374   7.061 -0.2842 -0.2058  0.1615
21225SOL    HW166567   7.937   1.368   7.131  1.2348 -0.9926  1.5742
21225SOL    HW266568   7.950   1.368   6.980 -2.0993  0.8085  1.1799
21226SOL     OW66569   2.334   4.369   5.313 -0.3500 -0.3134 -0.1866
21226SOL    HW166570   2.379   4.350   5.395  2.3005  1.8900 -0.9752
21226SOL    HW266571   2.277   4.443   5.333  0.6568  0.5366 -0.3919
21227SOL     OW66572   8.138   3.799   6.015 -0.1052  0.4199 -0.3940
21227SOL    HW166573   8.075   3.727   6.019  0.3846 -0.1104 -1.5872
21227SOL    HW266574   8.201   3.772   5.947  1.4395  0.8919  0.7933
21228SOL     OW66575   4.129   4.587   6.420 -0.0305  0.0776  0.1201
21228SOL    HW166576   4.134   4.606   6.514 -1.3499  0.8296  0.0651
21228SOL    HW266577   4.050   4.533   6.410 -2.0549  2.9559 -0.9239
21229SOL     OW66578   3.510   7.430   4.473  0.2429 -0.4728 -0.0510
21229SOL    HW166579   3.510   7.419   4.378  0.4071  1.2438 -0.2844
21229SOL    HW266580   3.599   7.459   4.494 -0.0989  0.2278  0.4760
21230SOL     OW66581   6.719   6.117   0.350  0.2141 -0.2456 -0.4824
21230SOL    HW166582   6.679   6.121   0.263 -0.1543 -1.3628 -0.3808
21230SOL    HW266583   6.694   6.199   0.392 -1.2296 -0.5252 -0.7449
21231SOL     OW66584   6.327   4.237   8.665  0.4201 -0.2169 -0.0281
21231SOL    HW166585   6.378   4.248   8.585 -1.2067  0.2400 -1.0509
21231SOL    HW266586   6.239   4.215   8.635 -0.2723  0.0929  1.6391
21232SOL     OW66587   9.606   0.332   5.282  0.0238 -0.0481 -0.0565
21232SOL    HW166588   9.663   0.363   5.211  0.7994 -1.5146 -0.1228
21232SOL    HW266589   9.567   0.251   5.248 -1.3282  0.3997  0.3761
21233SOL     OW66590   4.666   0.143   4.914 -0.5390 -0.4231 -0.0551
21233SOL    HW166591   4.645   0.051   4.899  0.6710 -1.1634  2.2306
21233SOL    HW266592   4.760   0.150   4.896 -0.7397  0.5401 -0.8168
21234SOL     OW66593   2.145   8.399   5.835  0.2109 -0.5874 -0.6186
21234SOL    HW166594   2.120   8.329   5.896 -0.5534 -0.5280 -0.8558
21234SOL    HW266595   2.122   8.364   5.748  0.8296 -0.4721 -0.8340
21235SOL     OW66596   2.305   3.699   9.046 -0.6229 -0.1258 -0.2642
21235SOL    HW166597   2.271   3.788   9.036  2.2244  0.9694 -1.2982
21235SOL    HW266598   2.317   3.688   9.140  1.1050  1.5720 -0.2085
21236SOL     OW66599   0.972   9.418   7.418  0.0113  0.1637  0.2573
21236SOL    HW166600   1.065   9.441   7.425  0.9910 -3.2719  0.0786
21236SOL    HW266601   0.946   9.453   7.332  1.3248  0.5974  0.0124
21237SOL     OW66602   4.663   8.827   1.469 -0.1672 -0.2193  0.3946
21237SOL    HW166603   4.579   8.855   1.432  0.2045 -0.2371 -0.4682
21237SOL    HW266604   4.710   8.909   1.486 -0.1046 -0.2336  0.2863
21238SOL     OW66605   3.401   7.467   2.893 -0.0418 -0.0824  0.3018
21238SOL    HW166606   3.330   7.411   2.924  0.4255 -0.8300  0.0267
21238SOL    HW266607   3.467   7.407   2.859  0.5557  0.6239  0.1866
21239SOL     OW66608   5.622   5.063   9.415  0.5826 -0.4404  0.4122
21239SOL    HW166609   5.587   5.113   9.342 -1.9919  0.9582  2.4258
21239SOL    HW266610   5.681   5.123   9.460  0.0395 -0.3387  0.9990
21240SOL     OW66611   7.926   7.349   0.456 -0.2899 -0.0919  0.3377
21240SOL    HW166612   7.834   7.330   0.441 -0.4074 -0.2800  1.2084
21240SOL    HW266613   7.958   7.383   0.373 -0.7498 -1.5161 -0.4616
21241SOL     OW66614   2.523   8.046   0.213  0.0526  0.7299 -0.3403
21241SOL    HW166615   2.480   8.037   0.299 -0.0987 -0.6504 -0.5274
21241SOL    HW266616   2.452   8.034   0.150  0.5949 -1.3257 -0.6498
21242SOL     OW66617   0.574   8.089   4.478 -0.1573  0.0877 -0.5441
21242SOL    HW166618   0.653   8.055   4.520 -1.1985 -1.7471  0.0578
21242SOL    HW266619   0.593   8.088   4.384  0.4320 -0.6093 -0.4160
21243SOL     OW66620   2.008   5.279   7.176 -0.1605  0.7271  0.0425
21243SOL    HW166621   2.063   5.236   7.110  0.0934 -0.0142  0.7201
21243SOL    HW266622   1.939   5.215   7.193 -1.1057  1.5430 -0.6099
21244SOL     OW66623   7.736   4.645   2.245 -0.6845 -0.4071  0.6126
21244SOL    HW166624   7.776   4.575   2.192 -1.1761  0.4829 -1.0144
21244SOL    HW266625   7.791   4.651   2.322  1.1998 -0.5190 -0.6537
21245SOL     OW66626   4.216   3.685   9.620  0.1764 -0.1727  0.1612
21245SOL    HW166627   4.139   3.637   9.651 -0.5799 -0.6701 -2.2691
21245SOL    HW266628   4.232   3.751   9.687 -1.0646 -1.4176  1.7557
21246SOL     OW66629   4.526   5.280   1.853  0.1938  0.3373 -0.0350
21246SOL    HW166630   4.468   5.356   1.841  0.3583  0.2127 -1.9850
21246SOL    HW266631   4.556   5.259   1.764 -0.8900 -2.8406  0.2491
21247SOL     OW66632   9.320   7.793   6.640 -0.2958  0.6058 -0.9371
21247SOL    HW166633   9.244   7.801   6.582 -0.2162  2.7076 -0.8227
21247SOL    HW266634   9.299   7.720   6.697 -2.7795  1.8146 -0.1816
21248SOL     OW66635   5.055   2.067   6.078  0.4193 -0.2950  0.9258
21248SOL    HW166636   5.116   2.126   6.034  1.0418 -1.3156  0.3895
21248SOL    HW266637   4.975   2.071   6.025  0.4509  0.0651  0.9015
21249SOL     OW66638   9.040   0.277   6.966  0.1829 -0.1759  0.8542
21249SOL    HW166639   8.948   0.300   6.952  0.2394  0.3865  1.3560
21249SOL    HW266640   9.060   0.215   6.896  0.0204  1.3215 -0.5836
21250SOL     OW66641   7.723   6.411   5.127  0.6200 -0.2016 -0.2462
21250SOL    HW166642   7.679   6.337   5.085 -1.1964  0.5345  0.2912
21250SOL    HW266643   7.685   6.489   5.087  1.3530  0.4637  0.3141
21251SOL     OW66644   6.926   5.476   1.045 -0.1394  0.6515 -0.4242
21251SOL    HW166645   6.853   5.433   1.000 -0.1240  1.8308 -1.6327
21251SOL    HW266646   6.887   5.512   1.125 -0.6540  0.3794 -0.5508
21252SOL     OW66647   3.129   8.320   0.530  0.1857 -0.2012  0.3941
21252SOL    HW166648   3.189   8.246   0.517 -0.1181 -0.0950 -2.0978
21252SOL    HW266649   3.157   8.385   0.466 -0.4778  1.2702  1.5479
21253SOL     OW66650   4.969   3.783   8.386  0.2652 -0.0880  0.1770
21253SOL    HW166651   5.035   3.848   8.361  0.9420 -0.8712 -0.1391
21253SOL    HW266652   4.977   3.776   8.481  0.7010 -0.2435  0.1296
21254SOL     OW66653   1.157   0.151   6.550 -0.0461  0.2058 -0.4003
21254SOL    HW166654   1.136   0.071   6.501  0.4097  0.1764 -0.5570
21254SOL    HW266655   1.210   0.121   6.624 -1.8546  0.0898  0.9026
21255SOL     OW66656   2.728   0.921   2.852  0.2194  0.2063  0.5262
21255SOL    HW166657   2.688   0.849   2.804  0.5495  0.0079  0.5453
21255SOL    HW266658   2.654   0.974   2.883  0.0076  0.3382 -0.2044
21256SOL     OW66659   0.312   7.767   1.142 -0.0215 -0.2155  0.4319
21256SOL    HW166660   0.246   7.834   1.158 -1.0464 -1.1144  0.0879
21256SOL    HW266661   0.308   7.752   1.048  0.6444 -0.3214  0.4159
21257SOL     OW66662   5.351   0.678   2.643  0.0840 -0.2943 -0.0476
21257SOL    HW166663   5.325   0.690   2.552  0.3453  1.1490  0.0402
21257SOL    HW266664   5.367   0.584   2.652  1.5030 -0.2777 -1.8922
21258SOL     OW66665   9.266   1.348   5.603  0.5570  0.1514  0.1971
21258SOL    HW166666   9.294   1.333   5.512  0.4244  0.2431  0.1398
21258SOL    HW266667   9.330   1.408   5.639 -0.7974  2.1973 -0.6316
21259SOL     OW66668   1.989   2.864   0.193 -0.1164  0.0258  0.6816
21259SOL    HW166669   1.994   2.809   0.115  1.1842  2.6272 -1.2106
21259SOL    HW266670   2.080   2.886   0.213 -0.4340 -0.3430  2.8217
21260SOL     OW66671   2.325   0.604   1.165  0.4948 -0.4300 -0.1350
21260SOL    HW166672   2.369   0.550   1.231 -0.5197 -1.3366 -0.1703
21260SOL    HW266673   2.237   0.567   1.159  0.1298  0.5450 -0.9740
21261SOL     OW66674   5.403   2.900   9.346  0.2444 -0.3031 -0.5030
21261SOL    HW166675   5.454   2.936   9.274  0.1477 -0.9332 -0.8938
21261SOL    HW266676   5.378   2.812   9.317  0.2340 -0.5856  0.3112
21262SOL     OW66677   2.168   7.192   9.498  0.0283 -0.1617 -0.3795
21262SOL    HW166678   2.126   7.274   9.525 -0.0963 -1.0471  2.4946
21262SOL    HW266679   2.239   7.180   9.561  0.0785 -2.2125 -0.7567
21263SOL     OW66680   5.304   8.051   8.474 -0.4183 -0.4512 -0.4147
21263SOL    HW166681   5.211   8.034   8.490 -0.5356  0.7786  0.3337
21263SOL    HW266682   5.344   8.050   8.561  0.3152 -1.1160 -0.7444
21264SOL     OW66683   8.910   2.076   9.109  0.3890 -0.4358 -0.0833
21264SOL    HW166684   8.828   2.034   9.084  1.0754 -1.7830 -0.1793
21264SOL    HW266685   8.955   2.092   9.026 -0.0868  1.0291 -0.0890
21265SOL     OW66686   5.605   5.696   4.720  0.3154  0.6414  0.2730
21265SOL    HW166687   5.543   5.692   4.647 -0.0331  0.3964  0.5807
21265SOL    HW266688   5.640   5.785   4.717  2.2770 -0.1167 -1.8062
21266SOL     OW66689   3.065   7.348   0.339  0.9483 -0.0898 -0.1797
21266SOL    HW166690   3.079   7.429   0.290 -0.7066 -0.6288 -1.6676
21266SOL    HW266691   3.060   7.281   0.271 -3.6811 -0.5915  0.3614
21267SOL     OW66692   0.528   3.060   6.970 -0.2403  0.2475 -0.3170
21267SOL    HW166693   0.435   3.046   6.987 -0.0344 -0.7549  0.0618
21267SOL    HW266694   0.560   3.105   7.049  0.2592 -2.4261  1.1219
21268SOL     OW66695   4.960   4.764   3.698 -0.1289  0.3097  0.1096
21268SOL    HW166696   4.939   4.671   3.690  1.3990 -0.1793  1.3178
21268SOL    HW266697   4.880   4.809   3.670 -1.0905 -1.3557  0.0249
21269SOL     OW66698   3.593   2.240   4.157  0.1739  0.2193 -0.0822
21269SOL    HW166699   3.686   2.253   4.138  0.0998  0.1771 -0.4743
21269SOL    HW266700   3.551   2.242   4.072 -0.0585 -0.8283  0.0013
21270SOL     OW66701   6.484   2.439   8.215 -0.0149 -0.5244 -0.0775
21270SOL    HW166702   6.404   2.484   8.242  0.3037 -0.4054  0.7172
21270SOL    HW266703   6.547   2.509   8.199  0.7624 -0.6310  2.0491
21271SOL     OW66704   8.631   7.314   5.123 -0.2171  0.2150  0.4445
21271SOL    HW166705   8.670   7.279   5.043 -0.5906  1.9251 -0.5376
21271SOL    HW266706   8.705   7.337   5.179  0.2451  2.4922 -0.9865
21272SOL     OW66707   3.247   7.576   4.478 -0.5759 -0.0680  0.0028
21272SOL    HW166708   3.323   7.529   4.443  0.0145  0.7455  0.1528
21272SOL    HW266709   3.208   7.617   4.401  0.9962  2.1113  0.2586
21273SOL     OW66710   5.909   7.106   3.757  0.4479 -1.0670 -0.1729
21273SOL    HW166711   6.001   7.105   3.782  0.7659  0.5466 -1.1453
21273SOL    HW266712   5.864   7.060   3.828  1.7483 -0.0207  1.3949
21274SOL     OW66713   6.906   6.566   4.723 -0.3383 -0.2999 -0.3309
21274SOL    HW166714   6.956   6.496   4.683  1.0810 -0.3372  1.4113
21274SOL    HW266715   6.815   6.545   4.703  0.1196 -2.0707 -0.7211
21275SOL     OW66716   3.970   5.677   3.505  0.3317 -0.1236 -0.7260
21275SOL    HW166717   3.877   5.694   3.519  0.5957 -0.0251  1.2195
21275SOL    HW266718   3.982   5.682   3.411 -1.3998  1.0612 -0.9154
21276SOL     OW66719   1.431   6.694   1.378  0.2802 -0.1916  0.0411
21276SOL    HW166720   1.423   6.655   1.465  0.1016 -1.6274 -0.5831
21276SOL    HW266721   1.525   6.687   1.358  0.7206  2.1579  0.9674
21277SOL     OW66722   8.036   6.051   2.409 -0.4260 -0.4328 -0.4551
21277SOL    HW166723   7.969   6.067   2.476 -0.5643 -0.1159 -0.6680
21277SOL    HW266724   7.992   6.072   2.326 -0.0032 -0.0400 -0.5801
21278SOL     OW66725   3.007   2.118   9.429  0.2605 -0.3096 -0.0434
21278SOL    HW166726   3.007   2.050   9.496 -1.3419  0.2471  0.5754
21278SOL    HW266727   3.041   2.196   9.474  0.0343 -0.1587 -0.1338
21279SOL     OW66728   0.750   2.211   7.552 -0.5215 -0.4879 -0.3690
21279SOL    HW166729   0.730   2.296   7.513 -0.1170 -0.6082 -0.8464
21279SOL    HW266730   0.840   2.219   7.582 -0.2093 -1.0130 -1.1502
21280SOL     OW66731   2.456   2.228   7.291 -0.1043 -0.3086  0.1295
21280SOL    HW166732   2.551   2.240   7.287 -0.2547  1.3177  0.6920
21280SOL    HW266733   2.440   2.189   7.377  0.0874 -1.1109 -0.1915
21281SOL     OW66734   8.327   5.636   4.747  0.6759  0.6043 -0.2168
21281SOL    HW166735   8.247   5.583   4.751  0.2737  1.2039 -0.1721
21281SOL    HW266736   8.397   5.574   4.767  0.4128 -0.3316 -2.0051
21282SOL     OW66737   7.720   2.370   2.990 -0.1151  0.0755  0.3691
21282SOL    HW166738   7.761   2.456   3.003  0.5164  0.1637 -1.7901
21282SOL    HW266739   7.642   2.388   2.938 -0.3243 -0.5988  0.4354
21283SOL     OW66740   6.185   0.009   6.399  0.1941 -0.5630  0.3406
21283SOL    HW166741   6.238  -0.011   6.321  0.5220  2.7629 -0.4443
21283SOL    HW266742   6.100  -0.029   6.380  0.8069 -1.4591 -0.7759
21284SOL     OW66743   1.343   5.191   0.194 -0.5614 -0.1055  0.3386
21284SOL    HW166744   1.351   5.142   0.111 -1.4316  0.3943 -0.0573
21284SOL    HW266745   1.374   5.279   0.173 -0.1548 -0.1573  0.7237
21285SOL     OW66746   3.304   1.338   8.009  0.6235 -0.0193  0.5117
21285SOL    HW166747   3.331   1.327   8.100  1.8007  1.3359  0.3612
21285SOL    HW266748   3.303   1.433   7.996  0.2402 -0.1863 -0.8330
21286SOL     OW66749   8.687   5.527   5.631 -0.0108 -0.4167 -0.3256
21286SOL    HW166750   8.671   5.540   5.724  2.4065  0.6108  0.0261
21286SOL    HW266751   8.626   5.585   5.586  0.3248  0.7707  0.7221
21287SOL     OW66752   7.067   3.632   7.728  0.3333  0.2147  0.6092
21287SOL    HW166753   7.028   3.544   7.732 -0.2760  0.3826 -0.7742
21287SOL    HW266754   7.138   3.624   7.665 -0.9446  1.1060 -1.0242
21288SOL     OW66755   8.153   8.214   0.684  0.1572 -0.5872  0.0314
21288SOL    HW166756   8.162   8.121   0.663 -2.1712 -0.3830 -2.4757
21288SOL    HW266757   8.206   8.259   0.619  0.4141 -0.1147  0.5594
21289SOL     OW66758   0.462   5.320   9.578 -0.4361 -0.1246  0.3405
21289SOL    HW166759   0.550   5.320   9.614 -0.3174  0.1522  0.0566
21289SOL    HW266760   0.426   5.405   9.602 -0.4463 -0.0395  0.0273
21290SOL     OW66761   6.214   2.263   1.558  0.7616 -0.2667  0.3136
21290SOL    HW166762   6.162   2.341   1.541 -0.8073 -1.7555 -2.4521
21290SOL    HW266763   6.252   2.240   1.473  1.4902 -2.3071  1.1124
21291SOL     OW66764   8.242   0.410   5.001 -0.1178 -0.4118 -0.2942
21291SOL    HW166765   8.239   0.493   4.954 -2.7479 -0.2142  0.0570
21291SOL    HW266766   8.301   0.426   5.075 -0.1907  0.9798 -0.5094
21292SOL     OW66767   7.826   6.517   7.085  0.1795 -0.1020 -0.3775
21292SOL    HW166768   7.871   6.436   7.108  1.9756  0.6413 -1.0977
21292SOL    HW266769   7.753   6.522   7.147 -0.3230 -2.5256 -0.6869
21293SOL     OW66770   2.315   7.273   3.207  0.3646 -0.0750 -0.1555
21293SOL    HW166771   2.283   7.317   3.285 -1.8765 -0.1211 -0.9842
21293SOL    HW266772   2.294   7.180   3.221 -2.2063  0.1931 -1.7198
21294SOL     OW66773   6.745   4.764   4.464 -0.4330  0.6102  0.7065
21294SOL    HW166774   6.807   4.801   4.402 -0.1988 -2.4335 -1.0857
21294SOL    HW266775   6.683   4.835   4.482  0.1433  1.9798 -2.1364
21295SOL     OW66776   6.020   6.503   5.504 -0.1831  0.7478 -0.1840
21295SOL    HW166777   5.977   6.418   5.500  0.6648  0.3173 -0.2862
21295SOL    HW266778   5.949   6.565   5.523 -0.6168 -0.1268  1.1089
21296SOL     OW66779   6.075   7.982   3.700 -0.7167  0.1214  0.0216
21296SOL    HW166780   6.021   8.035   3.641  0.1697  1.7619  0.6176
21296SOL    HW266781   6.066   8.026   3.785  0.7431 -0.1732  0.3452
21297SOL     OW66782   7.785   9.226   2.555 -0.0592 -0.1450  0.3907
21297SOL    HW166783   7.740   9.234   2.470 -0.1023  0.0360  0.4291
21297SOL    HW266784   7.872   9.193   2.532  0.3240  0.9887  0.1570
21298SOL     OW66785   3.990   0.154   2.759 -0.1595  0.3845 -0.0187
21298SOL    HW166786   3.995   0.102   2.839  0.2287 -3.0918 -2.1246
21298SOL    HW266787   4.079   0.154   2.725 -0.6773  0.1604 -1.4204
21299SOL     OW66788   5.934   6.495   0.017  0.8750 -0.4137 -0.1728
21299SOL    HW166789   5.955   6.573  -0.034  1.7217  0.0120  0.7831
21299SOL    HW266790   6.007   6.435   0.001  0.7622 -0.5826 -0.0597
21300SOL     OW66791   4.769   8.209   2.090 -0.0470 -0.0450  0.4104
21300SOL    HW166792   4.676   8.188   2.093  0.2453 -1.3876  0.5305
21300SOL    HW266793   4.774   8.298   2.126 -1.2734  0.0433  0.4032
21301SOL     OW66794   6.095   7.470   9.083  0.2349  0.8938  0.0349
21301SOL    HW166795   6.125   7.560   9.096  0.0653  1.1970 -1.5321
21301SOL    HW266796   6.123   7.448   8.994 -1.5310  0.1190 -0.3621
21302SOL     OW66797   0.790   1.587   5.196 -0.0367  0.4512 -0.5832
21302SOL    HW166798   0.771   1.506   5.149  2.9008  1.2905 -3.6399
21302SOL    HW266799   0.855   1.562   5.261  0.5273  0.2166 -1.2187
21303SOL     OW66800   3.659   2.696   0.073  0.1803  0.0698 -0.1667
21303SOL    HW166801   3.679   2.609   0.038 -1.4171  0.1434 -1.3838
21303SOL    HW266802   3.704   2.698   0.157  1.5365 -1.3355 -0.7964
21304SOL     OW66803   6.925   7.703   3.197  0.0018 -0.0326  0.0184
21304SOL    HW166804   6.939   7.662   3.282  3.0130  0.4905 -0.1113
21304SOL    HW266805   6.999   7.674   3.144 -0.2948  1.8506 -1.5304
21305SOL     OW66806   4.011   1.108   2.594  0.6052  0.6412 -0.0444
21305SOL    HW166807   3.928   1.145   2.565  0.9042  1.1443 -0.2700
21305SOL    HW266808   3.986   1.044   2.661  0.0220  0.5985 -0.2932
21306SOL     OW66809   6.112   5.319   2.308  0.2912  0.4366  0.7374
21306SOL    HW166810   6.096   5.352   2.397  0.2084  2.3390  0.0589
21306SOL    HW266811   6.182   5.375   2.274  0.1815 -0.1407 -0.4623
21307SOL     OW66812   3.361   1.643   7.429 -0.0354  0.2593  0.1391
21307SOL    HW166813   3.452   1.637   7.458 -0.4810  0.5595  1.7136
21307SOL    HW266814   3.310   1.618   7.506 -1.3221  1.8767 -0.1264
21308SOL     OW66815   1.768   0.003   1.189 -0.1556  0.3169 -0.5060
21308SOL    HW166816   1.769  -0.088   1.217  0.7192 -0.4198 -2.7320
21308SOL    HW266817   1.800   0.001   1.099  0.4017  2.8905 -0.4408
21309SOL     OW66818   7.756   5.552   1.626  0.8993 -0.3359 -0.0421
21309SOL    HW166819   7.686   5.551   1.691  0.7105  0.9805 -0.2043
21309SOL    HW266820   7.734   5.482   1.565 -1.1386  1.0252 -0.9768
21310SOL     OW66821   6.288   4.160   1.627 -0.5408 -0.1084 -0.5597
21310SOL    HW166822   6.309   4.216   1.701  0.6739 -0.3950 -0.6762
21310SOL    HW266823   6.210   4.200   1.588 -1.1637  0.0853  0.8185
21311SOL     OW66824   3.419   1.537   5.518 -0.1287  0.3706  0.3124
21311SOL    HW166825   3.484   1.597   5.480 -0.6008  2.2923  2.3126
21311SOL    HW266826   3.362   1.514   5.445  2.2942 -0.7632 -1.3385
21312SOL     OW66827   1.040   3.074   5.775 -0.2686 -0.9346 -0.4543
21312SOL    HW166828   1.079   3.021   5.845  2.5228  0.6363 -0.6570
21312SOL    HW266829   1.006   3.151   5.820 -2.5801 -1.9041 -0.3926
21313SOL     OW66830   5.264   7.743   8.135 -0.3905 -0.1172  0.3248
21313SOL    HW166831   5.268   7.658   8.179 -2.0179 -0.1692  0.4194
21313SOL    HW266832   5.238   7.804   8.204  0.1734  0.3645  0.1186
21314SOL     OW66833   7.747   5.552   2.349 -0.0117  0.0039  0.3528
21314SOL    HW166834   7.669   5.565   2.296 -1.7122 -1.0827  2.4285
21314SOL    HW266835   7.816   5.599   2.303 -2.1028  1.8784 -1.0346
21315SOL     OW66836   0.625   7.276   2.374  0.5450  0.3510 -0.3711
21315SOL    HW166837   0.700   7.311   2.423  0.9377 -0.3997 -0.4256
21315SOL    HW266838   0.647   7.291   2.282  0.2552  0.8614 -0.3617
21316SOL     OW66839   3.111   3.127   4.340  0.2621 -0.4587  0.2825
21316SOL    HW166840   3.067   3.091   4.417  0.9119 -0.5419  0.6187
21316SOL    HW266841   3.197   3.155   4.372  0.4807 -0.3555 -0.3816
21317SOL     OW66842   3.517   7.212   5.007  0.4385  0.3834  0.1226
21317SOL    HW166843   3.422   7.198   5.009  0.5558 -0.4401  0.2694
21317SOL    HW266844   3.543   7.186   4.919  0.2370  2.7535 -0.7086
21318SOL     OW66845   8.462   6.299   2.104 -0.4687 -0.3197  0.0635
21318SOL    HW166846   8.427   6.269   2.020  0.7014 -0.4098 -0.4056
21318SOL    HW266847   8.427   6.236   2.168 -0.3175 -1.0283 -0.5337
21319SOL     OW66848   5.707   4.265   5.524  0.4595  0.6506  0.5636
21319SOL    HW166849   5.640   4.293   5.586  1.5725  2.2552  1.1075
21319SOL    HW266850   5.662   4.260   5.440 -0.0336  3.4065  0.5658
21320SOL     OW66851   7.193   0.974   2.581  0.2866  0.4805 -0.0683
21320SOL    HW166852   7.224   1.045   2.636  0.5913  0.3878 -0.1179
21320SOL    HW266853   7.197   0.896   2.637  3.1558 -0.1285 -0.9563
21321SOL     OW66854   7.346   9.138   5.840  0.0697  0.5055  0.2620
21321SOL    HW166855   7.291   9.207   5.878 -0.7043  1.3507 -2.2154
21321SOL    HW266856   7.422   9.133   5.899 -2.1985 -0.1799  3.3817
21322SOL     OW66857   8.871   8.010   5.442  0.5120 -0.0822 -0.0063
21322SOL    HW166858   8.929   8.001   5.367  0.9906 -1.3335  0.4941
21322SOL    HW266859   8.915   8.074   5.499  1.4689 -1.0710  0.4034
21323SOL     OW66860   2.711   2.901   3.615  0.2092 -0.1743 -0.4200
21323SOL    HW166861   2.704   2.848   3.536  0.5003  0.5492 -0.9455
21323SOL    HW266862   2.691   2.990   3.586  1.3529  0.2698  0.0912
21324SOL     OW66863   1.125   7.596   3.535 -0.8651  0.4280  0.0296
21324SOL    HW166864   1.200   7.593   3.594 -0.4395 -1.3201 -0.5384
21324SOL    HW266865   1.065   7.659   3.576 -0.6535 -0.8060  2.4048
21325SOL     OW66866   2.628   2.953   6.743  0.2006  0.2528 -0.1480
21325SOL    HW166867   2.647   2.861   6.759 -1.7797 -0.3797 -1.1881
21325SOL    HW266868   2.543   2.968   6.783  1.7323  2.4879  2.6675
21326SOL     OW66869   1.945   7.531   3.271  0.3629 -0.6317 -0.4020
21326SOL    HW166870   1.960   7.550   3.364 -0.2412 -1.2419 -0.1719
21326SOL    HW266871   2.033   7.529   3.233  0.6631 -0.9657  0.2816
21327SOL     OW66872   9.343   0.660   7.843 -0.0649 -0.2860 -0.0319
21327SOL    HW166873   9.383   0.599   7.782 -0.0013  0.8483 -1.1758
21327SOL    HW266874   9.413   0.720   7.869 -0.5500  0.5089 -0.4994
21328SOL     OW66875   0.820   3.776   6.032  0.3557 -0.0426 -0.6970
21328SOL    HW166876   0.792   3.854   5.985 -0.2879  0.1894  0.0625
21328SOL    HW266877   0.815   3.800   6.124 -1.8497 -1.6079 -0.3313
21329SOL     OW66878   7.118   8.501   1.942 -0.6055  0.1377  0.9179
21329SOL    HW166879   7.105   8.596   1.948 -1.7137 -0.0224  1.3196
21329SOL    HW266880   7.059   8.465   2.009 -0.5261 -0.8591  0.4632
21330SOL     OW66881   9.066   0.494   1.909 -0.1533 -0.3243  0.1307
21330SOL    HW166882   9.039   0.446   1.988  0.3421  1.2633  1.3353
21330SOL    HW266883   9.044   0.585   1.928  1.2725  0.2982 -0.9806
21331SOL     OW66884   0.816   6.981   8.941  0.2082  0.2239 -0.6218
21331SOL    HW166885   0.911   6.992   8.946  0.4416 -1.8107  2.9166
21331SOL    HW266886   0.804   6.897   8.897  0.0568  0.2097 -0.5524
21332SOL     OW66887   0.825   1.099   2.067 -0.2487 -0.0468 -0.0492
21332SOL    HW166888   0.825   1.045   2.147 -2.5977 -1.4054 -0.8589
21332SOL    HW266889   0.737   1.138   2.065 -0.1490  0.1710 -1.8153
21333SOL     OW66890   6.847   9.067   3.424  0.0621 -0.2197 -0.4813
21333SOL    HW166891   6.759   9.030   3.435  0.0048 -0.4729 -1.6369
21333SOL    HW266892   6.900   8.994   3.394  0.3352  0.2442 -1.1535
21334SOL     OW66893   5.573   4.432   4.262 -0.2004  0.4970 -0.3805
21334SOL    HW166894   5.531   4.391   4.338  0.0827  0.4468 -0.2504
21334SOL    HW266895   5.634   4.496   4.299  1.9698 -1.3895 -0.4209
21335SOL     OW66896   1.138   3.364   0.710  0.0687 -0.1341  0.3159
21335SOL    HW166897   1.147   3.453   0.678 -0.0061 -0.1169  0.3431
21335SOL    HW266898   1.142   3.371   0.805  0.0958 -0.1630  0.3169
21336SOL     OW66899   5.358   2.631   9.283  0.0561  0.1579  0.1576
21336SOL    HW166900   5.446   2.618   9.317 -0.1633 -0.0997  0.6397
21336SOL    HW266901   5.362   2.601   9.192  0.5636  0.5372  0.0492
21337SOL     OW66902   5.507   7.161   2.989 -0.5466 -0.2103  0.5663
21337SOL    HW166903   5.534   7.252   2.994 -1.3665  0.0804 -0.1758
21337SOL    HW266904   5.440   7.152   3.057 -0.7771 -0.1451  0.3492
21338SOL     OW66905   3.126   2.261   2.769 -0.4836  0.3351 -0.1481
21338SOL    HW166906   3.113   2.355   2.766  1.1265  0.6371  1.2477
21338SOL    HW266907   3.107   2.237   2.860  1.8780 -0.1948  0.2647
21339SOL     OW66908   3.022   1.671   2.280 -0.1231  0.5328 -0.3103
21339SOL    HW166909   3.108   1.641   2.311  0.4525  0.4853 -1.8681
21339SOL    HW266910   2.959   1.619   2.330  0.7953 -0.6483 -0.3412
21340SOL     OW66911   2.422   1.069   7.848 -0.4266 -0.1438 -0.6538
21340SOL    HW166912   2.460   1.128   7.783  0.1323 -0.2062 -0.3892
21340SOL    HW266913   2.487   1.066   7.919 -1.6134  0.9788  0.5296
21341SOL     OW66914   1.346   6.917   7.168 -0.4351  0.1365  0.3425
21341SOL    HW166915   1.319   6.904   7.077 -4.1059 -0.1951  1.3199
21341SOL    HW266916   1.307   6.843   7.215  0.5912  0.7822  2.3118
21342SOL     OW66917   1.059   0.133   6.860 -0.1692  0.0234  0.1682
21342SOL    HW166918   0.980   0.186   6.869  0.2499  0.9008 -0.8926
21342SOL    HW266919   1.063   0.080   6.939 -0.5412  1.7189  1.3813
21343SOL     OW66920   7.156   1.157   1.643 -0.8847 -0.1652  0.9159
21343SOL    HW166921   7.094   1.107   1.589  0.3346 -0.6998 -0.0367
21343SOL    HW266922   7.241   1.118   1.624  0.1612  2.3329  0.0107
21344SOL     OW66923   7.202   1.379   6.251 -0.3870 -0.0797  0.1554
21344SOL    HW166924   7.236   1.456   6.297  0.1101  0.4918 -1.1175
21344SOL    HW266925   7.266   1.310   6.269 -0.2242  0.1197  0.3498
21345SOL     OW66926   0.024   1.078   1.178  0.0648  0.1028  0.1640
21345SOL    HW166927   0.113   1.072   1.214  0.6504  0.6511 -1.1594
21345SOL    HW266928   0.010   0.994   1.135  0.4009  0.4536 -0.6412
21346SOL     OW66929   5.510   7.134   4.542 -0.0793 -0.5363 -0.2868
21346SOL    HW166930   5.454   7.140   4.464  1.1012 -0.6189 -1.1780
21346SOL    HW266931   5.586   7.083   4.512  0.2983 -0.7383  0.9886
21347SOL     OW66932   4.584   3.613   1.009 -0.0945  0.7808  0.2466
21347SOL    HW166933   4.516   3.594   0.945  0.7471  1.1983 -0.8053
21347SOL    HW266934   4.642   3.676   0.965  3.0640 -2.2607 -0.4026
21348SOL     OW66935   0.197   5.250   0.112 -0.4385  0.5432  0.3307
21348SOL    HW166936   0.135   5.190   0.070 -0.1676  1.1019 -0.9184
21348SOL    HW266937   0.278   5.240   0.062 -0.0929  1.2080  0.7364
21349SOL     OW66938   6.422   4.495   3.834  0.1718  0.5158 -0.0529
21349SOL    HW166939   6.460   4.425   3.781  2.4156 -0.3216  2.4228
21349SOL    HW266940   6.450   4.575   3.791  0.3811 -0.1004 -1.1090
21350SOL     OW66941   9.564   8.344   8.649 -0.0013 -0.3831  0.2917
21350SOL    HW166942   9.634   8.280   8.661 -0.1187 -0.3567  1.1803
21350SOL    HW266943   9.608   8.429   8.655 -0.2522 -0.3366  2.0895
21351SOL     OW66944   7.601   1.271   1.584 -0.2630 -0.1724 -0.2666
21351SOL    HW166945   7.568   1.324   1.512  1.4570  0.4429 -0.6380
21351SOL    HW266946   7.572   1.317   1.663 -1.0607 -0.1681 -0.5503
21352SOL     OW66947   9.618   0.832   0.259  0.6279 -0.1550 -0.1749
21352SOL    HW166948   9.626   0.760   0.197  0.7448 -1.6990  1.5310
21352SOL    HW266949   9.590   0.907   0.206  0.9597 -1.3193 -2.0912
21353SOL     OW66950   5.809   8.426   3.704 -0.1243  0.3956  0.4640
21353SOL    HW166951   5.738   8.407   3.643  0.4417 -0.7906  0.1334
21353SOL    HW266952   5.889   8.409   3.653  0.3816  0.8775  1.0806
21354SOL     OW66953   5.650   6.025   9.105  0.0726  0.7638 -0.0064
21354SOL    HW166954   5.642   6.000   9.197  0.1657  0.5516 -0.0559
21354SOL    HW266955   5.728   6.080   9.102  1.3856 -1.0178 -0.3191
21355SOL     OW66956   7.157   1.082   1.137  0.4242  0.3873  0.8167
21355SOL    HW166957   7.173   1.165   1.182 -1.3993  0.7822  0.8276
21355SOL    HW266958   7.123   1.108   1.051  2.3293 -0.3667 -0.2312
21356SOL     OW66959   2.309   8.981   8.422 -0.1053 -0.3752  0.0127
21356SOL    HW166960   2.297   9.043   8.494 -0.0047  0.4890 -0.6927
21356SOL    HW266961   2.390   8.935   8.443  0.8755  1.0938 -0.3841
21357SOL     OW66962   7.715   2.673   4.903 -0.0775  0.1289  0.6506
21357SOL    HW166963   7.810   2.673   4.913 -0.1509 -1.8880  1.7110
21357SOL    HW266964   7.681   2.677   4.992 -0.9440 -1.7121  0.4410
21358SOL     OW66965   7.449   1.042   5.030 -0.2242 -0.0564 -0.0820
21358SOL    HW166966   7.516   1.084   5.085 -0.1640  0.1323 -0.2995
21358SOL    HW266967   7.383   1.013   5.092 -0.0982  0.0498  0.1043
21359SOL     OW66968   0.060   0.500   5.479 -0.2695 -0.2835 -0.4444
21359SOL    HW166969  -0.013   0.489   5.540 -0.1566  0.7056 -0.1161
21359SOL    HW266970   0.038   0.444   5.405  0.3673 -2.8579  1.1844
21360SOL     OW66971   1.993   8.281   5.646  0.2215  0.2684 -0.1388
21360SOL    HW166972   1.913   8.265   5.596 -0.3221 -1.9676  1.3156
21360SOL    HW266973   1.963   8.296   5.736  1.4054 -1.0978  0.5315
21361SOL     OW66974   1.329   1.680   7.324  0.2394 -0.0936  0.3313
21361SOL    HW166975   1.375   1.764   7.315 -0.2803  0.2167  0.5248
21361SOL    HW266976   1.272   1.693   7.400  1.2898 -1.1414  1.3547
21362SOL     OW66977   4.783   2.442   2.616  0.6804 -0.0576  0.5879
21362SOL    HW166978   4.815   2.358   2.585 -0.0871 -0.8522  1.8815
21362SOL    HW266979   4.860   2.486   2.653  0.7716 -0.9124  1.4427
21363SOL     OW66980   1.655   3.095   8.636  0.2233  0.2934  0.1134
21363SOL    HW166981   1.743   3.112   8.602 -0.0685  0.2994 -0.6734
21363SOL    HW266982   1.596   3.131   8.569 -0.3756  0.1786  0.5686
21364SOL     OW66983   4.868   4.688   4.136  0.3577  0.4408  0.3541
21364SOL    HW166984   4.929   4.664   4.066 -1.9729  0.0183 -1.6669
21364SOL    HW266985   4.874   4.784   4.140  1.7821  0.3544  0.8460
21365SOL     OW66986   1.853   1.975   3.538  0.4567 -0.4480 -0.5023
21365SOL    HW166987   1.799   1.898   3.520 -0.0627 -0.2527  0.1751
21365SOL    HW266988   1.942   1.942   3.545  0.3459 -0.8650 -1.0189
21366SOL     OW66989   0.631   6.740   4.969  0.4609  0.9182 -0.1886
21366SOL    HW166990   0.608   6.649   4.988  1.8297  0.7920  1.0605
21366SOL    HW266991   0.548   6.781   4.944 -0.2436 -0.5647 -0.3968
21367SOL     OW66992   0.823   2.473   2.637 -0.3222  0.0577 -0.0277
21367SOL    HW166993   0.822   2.444   2.729 -0.5413 -1.5862 -0.5163
21367SOL    HW266994   0.916   2.485   2.617 -0.2601  0.2421  0.3551
21368SOL     OW66995   7.185   4.783   3.999  0.2153  0.4923 -0.3126
21368SOL    HW166996   7.145   4.858   4.044 -1.1002  0.1466 -0.8661
21368SOL    HW266997   7.126   4.710   4.017  1.4000 -0.3979  0.0814
21369SOL     OW66998   2.687   0.066   1.095 -0.0320 -0.1494  0.1960
21369SOL    HW166999   2.665   0.159   1.098 -1.2308 -0.4310  1.0675
21369SOL    HW267000   2.645   0.033   1.015  0.3844  0.0530 -0.1070
21370SOL     OW67001   4.519   3.395   3.326  0.4059  0.0141  0.1547
21370SOL    HW167002   4.559   3.466   3.376  0.6074 -1.1506  1.7591
21370SOL    HW267003   4.539   3.316   3.377 -0.0164 -1.1679 -1.4274
21371SOL     OW67004   6.133   2.697   0.677 -0.0156 -0.4549 -0.5089
21371SOL    HW167005   6.157   2.789   0.669 -0.5281 -0.3113 -0.4218
21371SOL    HW267006   6.209   2.649   0.643  0.1198  0.0027 -0.8577
21372SOL     OW67007   8.592   7.145   3.153  0.5181 -0.3998  0.4768
21372SOL    HW167008   8.656   7.085   3.113  0.9838  0.4734 -0.1110
21372SOL    HW267009   8.588   7.116   3.245 -0.3193 -2.2121 -0.0906
21373SOL     OW67010   6.686   4.326   1.876 -0.1730  0.2717 -0.2199
21373SOL    HW167011   6.609   4.278   1.907 -0.3625  0.4275 -0.4460
21373SOL    HW267012   6.753   4.308   1.941  0.6604 -2.6476 -1.7305
21374SOL     OW67013   9.587   9.527   6.415 -0.1316  0.2092  0.6325
21374SOL    HW167014   9.556   9.521   6.325 -0.1813 -1.3124  0.7295
21374SOL    HW267015   9.640   9.607   6.416 -0.3750  0.4170 -0.6623
21375SOL     OW67016   1.185   9.110   8.949 -0.3631  0.6609  0.0837
21375SOL    HW167017   1.243   9.049   8.994 -0.9438  1.2694  1.7437
21375SOL    HW267018   1.187   9.189   9.002 -0.2846  1.8163 -1.5627
21376SOL     OW67019   7.008   5.405   6.757  0.3273  0.2249  0.2414
21376SOL    HW167020   6.971   5.467   6.819  1.0182  2.0002 -1.0273
21376SOL    HW267021   7.015   5.323   6.806  0.0236  1.3003  2.1916
21377SOL     OW67022   0.155   8.227   0.664  0.2715  0.4946 -0.0838
21377SOL    HW167023   0.234   8.211   0.613 -0.4419  0.4370 -1.1912
21377SOL    HW267024   0.084   8.227   0.600 -0.9314 -1.6961  1.1366
21378SOL     OW67025   1.870   1.397   1.149 -0.7146  0.1124 -0.3951
21378SOL    HW167026   1.781   1.430   1.160 -0.3903  1.4941 -1.6746
21378SOL    HW267027   1.899   1.431   1.064  1.2046  0.1150  0.2036
21379SOL     OW67028   2.059   7.754   1.686 -0.1691 -0.0389  0.4624
21379SOL    HW167029   2.030   7.744   1.776 -0.7268 -0.8149  0.1976
21379SOL    HW267030   2.037   7.672   1.643 -1.6415  0.9837 -0.8608
21380SOL     OW67031   9.247   1.431   0.321 -0.1052 -0.3811  0.4595
21380SOL    HW167032   9.285   1.414   0.407 -1.7811  0.4725  1.4229
21380SOL    HW267033   9.180   1.364   0.311 -0.7362  0.2491  0.3794
21381SOL     OW67034   9.506   3.826   4.646  0.2098 -0.1407  0.1217
21381SOL    HW167035   9.575   3.890   4.633 -0.9146  1.1113  0.0256
21381SOL    HW267036   9.449   3.865   4.712 -0.7851 -0.7964 -0.3219
21382SOL     OW67037   7.002   2.942   9.303  0.3580 -0.6901 -0.4407
21382SOL    HW167038   6.964   2.854   9.308  0.2315 -0.6182 -0.1205
21382SOL    HW267039   6.927   3.001   9.303  0.4545 -0.4792  1.5830
21383SOL     OW67040   0.586   3.486   2.609  0.5132  0.3648 -0.5845
21383SOL    HW167041   0.608   3.412   2.552 -0.6148 -0.4696  0.0179
21383SOL    HW267042   0.505   3.459   2.653  0.0433  1.9935 -0.3913
21384SOL     OW67043   2.978   6.836   6.698  0.1737  0.4770  0.4453
21384SOL    HW167044   2.980   6.842   6.794  1.2819  0.8713  0.4120
21384SOL    HW267045   2.929   6.913   6.670 -0.8668 -0.0642  0.7091
21385SOL     OW67046   6.644   2.306   5.739  0.1570 -0.3079  0.0158
21385SOL    HW167047   6.598   2.225   5.719 -1.6666  0.6781 -0.0438
21385SOL    HW267048   6.580   2.375   5.720  1.2034  1.0747  1.2686
21386SOL     OW67049   2.549   1.195   4.198  0.6918 -0.3765 -0.0079
21386SOL    HW167050   2.507   1.238   4.272 -2.2180 -1.6283 -0.7852
21386SOL    HW267051   2.623   1.148   4.236 -0.9918 -1.3950  2.2450
21387SOL     OW67052   3.301   7.774   3.211  0.3021 -0.2302 -0.1679
21387SOL    HW167053   3.252   7.828   3.273  0.2256 -1.6068  1.0286
21387SOL    HW267054   3.240   7.705   3.186  1.0466 -0.9661 -0.0130
21388SOL     OW67055   7.483   7.509   3.601  0.4551 -0.1884  0.3887
21388SOL    HW167056   7.487   7.445   3.673 -1.9014 -0.6171  0.2044
21388SOL    HW267057   7.465   7.592   3.644  1.3385 -0.0081  0.4410
21389SOL     OW67058   3.530   9.611   1.641 -0.3125  0.2517  0.5064
21389SOL    HW167059   3.541   9.656   1.725  0.1455 -0.4596  0.8366
21389SOL    HW267060   3.619   9.599   1.608 -0.3194 -1.4417  0.9961
21390SOL     OW67061   7.366   8.051   0.763  0.1878  0.1780  0.0122
21390SOL    HW167062   7.291   8.001   0.733  0.4035  0.9007 -1.8411
21390SOL    HW267063   7.351   8.062   0.857 -0.7758 -1.7395  0.1325
21391SOL     OW67064   2.101   7.426   2.938  0.1657  0.2101 -0.1217
21391SOL    HW167065   2.083   7.516   2.962  0.9820  0.0251  1.3039
21391SOL    HW267066   2.015   7.389   2.917 -0.3239  1.0198  0.3971
21392SOL     OW67067   1.698   4.738   1.391  0.3410 -0.0780  0.3360
21392SOL    HW167068   1.701   4.758   1.485 -1.3110 -1.1367  0.6565
21392SOL    HW267069   1.789   4.718   1.368  0.7351 -0.0517  1.7735
21393SOL     OW67070   8.507   2.397   5.364 -0.3901 -0.0545  0.3885
21393SOL    HW167071   8.435   2.335   5.349 -1.5714  1.0300  1.3410
21393SOL    HW267072   8.470   2.482   5.340  1.8193  0.1889 -2.8735
21394SOL     OW67073   7.607   4.384   5.132 -0.6859  0.5768  0.3317
21394SOL    HW167074   7.512   4.399   5.137 -0.6393  0.7174  0.7915
21394SOL    HW267075   7.618   4.291   5.150 -0.9050  0.1083 -1.7214
21395SOL     OW67076   1.543   4.643   2.441 -0.7236  0.4763  0.1638
21395SOL    HW167077   1.508   4.566   2.397 -0.6584  0.1898  0.6067
21395SOL    HW267078   1.492   4.716   2.405  0.6948  0.5272 -1.8892
21396SOL     OW67079   8.324   6.827   1.799 -0.6216  0.5908 -0.3830
21396SOL    HW167080   8.367   6.765   1.740  0.3455 -0.4717  1.3494
21396SOL    HW267081   8.395   6.879   1.836 -1.2082  1.2715 -0.1917
21397SOL     OW67082   5.782   6.814   6.428 -0.0170 -0.1718 -1.0095
21397SOL    HW167083   5.778   6.907   6.447  0.6954  0.0257 -1.7545
21397SOL    HW267084   5.791   6.809   6.333  0.4606 -0.9797 -0.9377
21398SOL     OW67085   7.448   6.847   3.347 -0.1747  0.3007  0.0767
21398SOL    HW167086   7.426   6.757   3.322 -1.8914  0.1670  1.8168
21398SOL    HW267087   7.496   6.838   3.429 -1.4198  0.9814  0.9118
21399SOL     OW67088   5.097   7.259   1.172  0.0116  0.2447 -0.2681
21399SOL    HW167089   5.020   7.260   1.116  0.0672 -1.5285 -0.4571
21399SOL    HW267090   5.120   7.351   1.185 -1.7828  0.7766 -0.6740
21400SOL     OW67091   3.817   0.252   6.377 -0.0604 -0.6546  0.0810
21400SOL    HW167092   3.800   0.224   6.468 -0.9188  2.0488  0.8401
21400SOL    HW267093   3.732   0.281   6.345  0.4873 -0.4003 -1.1910
21401SOL     OW67094   2.587   5.073   1.165  0.4119 -0.3805 -0.1970
21401SOL    HW167095   2.610   5.123   1.087  0.3126 -1.7399 -1.1413
21401SOL    HW267096   2.662   5.016   1.179  0.3197 -0.3192  0.5558
21402SOL     OW67097   4.313   8.072   4.088  0.7102 -0.3483  0.0826
21402SOL    HW167098   4.320   8.010   4.160 -0.9520 -0.0482  0.5432
21402SOL    HW267099   4.219   8.088   4.078  0.8442 -0.5901 -2.3479
21403SOL     OW67100   4.055   2.746   7.203 -0.9706 -0.6193  0.1956
21403SOL    HW167101   4.037   2.677   7.267 -1.3948  0.4137  1.2247
21403SOL    HW267102   4.012   2.824   7.239 -0.0605  0.3128 -0.6666
21404SOL     OW67103   0.705   1.646   0.049  0.2271 -0.3725  0.2630
21404SOL    HW167104   0.798   1.663   0.040  0.0041  1.4097  0.9716
21404SOL    HW267105   0.662   1.721   0.010 -0.8406  0.3013  2.5423
21405SOL     OW67106   9.300   7.751   8.480 -0.4033  0.2088 -0.0128
21405SOL    HW167107   9.329   7.749   8.389  0.3493  2.0017  0.1368
21405SOL    HW267108   9.326   7.666   8.516  0.1366 -0.1533 -1.2185
21406SOL     OW67109   3.248   2.583   4.094 -0.0148 -0.1707 -0.0394
21406SOL    HW167110   3.316   2.611   4.155  0.6619  0.9861 -1.2853
21406SOL    HW267111   3.168   2.627   4.125  0.5067  1.1239 -0.4894
21407SOL     OW67112   0.422   3.943   3.155  0.5850  0.0012  0.6167
21407SOL    HW167113   0.426   3.849   3.174  0.7105 -0.5942 -1.9556
21407SOL    HW267114   0.328   3.961   3.144  0.6599 -0.2356 -0.5354
21408SOL     OW67115   6.824   8.204   2.732 -0.6022  0.1558  0.3400
21408SOL    HW167116   6.765   8.210   2.807 -1.4650 -0.3824 -0.2780
21408SOL    HW267117   6.767   8.211   2.656  0.2292  0.4203 -0.2723
21409SOL     OW67118   5.329   2.909   3.298  0.4714  0.3553  0.0280
21409SOL    HW167119   5.319   2.906   3.393  0.6529  0.3211  0.0467
21409SOL    HW267120   5.359   2.821   3.275 -1.5569 -0.3102 -0.2966
21410SOL     OW67121   3.640   3.666   7.043  0.0261 -0.0296 -0.0443
21410SOL    HW167122   3.727   3.706   7.035 -0.2228  1.1430  2.3679
21410SOL    HW267123   3.648   3.583   6.996  2.4882 -0.0134  0.2071
21411SOL     OW67124   7.089   4.287   8.980 -0.2805 -0.0125 -0.0975
21411SOL    HW167125   7.101   4.229   9.055 -0.5749 -0.7758 -0.6192
21411SOL    HW267126   7.140   4.365   9.000 -0.0339 -0.3785  0.7102
21412SOL     OW67127   3.423   2.682   7.088  0.2465  1.1385 -0.2951
21412SOL    HW167128   3.472   2.607   7.122 -0.7131  0.4189 -0.4706
21412SOL    HW267129   3.358   2.643   7.030  1.0324  2.2535 -1.9814
21413SOL     OW67130   5.946   0.195   4.986  0.3009 -1.1687  0.0520
21413SOL    HW167131   5.869   0.229   5.032  1.2403  0.6840  0.3665
21413SOL    HW267132   5.910   0.141   4.916 -1.3105  0.1531 -0.2039
21414SOL     OW67133   2.913   5.194   6.491 -0.4228  0.2302 -0.2075
21414SOL    HW167134   2.824   5.194   6.457 -1.0172 -1.5779  1.1978
21414SOL    HW267135   2.918   5.273   6.545 -2.2292 -1.1043  2.0849
21415SOL     OW67136   0.466   8.993   0.433 -0.1413 -0.2364  0.8894
21415SOL    HW167137   0.448   8.911   0.480 -1.4234 -0.2611  0.3984
21415SOL    HW267138   0.452   8.971   0.341 -0.5047  0.5402  0.7537
21416SOL     OW67139   8.025   5.072   3.720 -0.7425  0.1811  0.1349
21416SOL    HW167140   8.016   4.985   3.760 -1.1862 -0.3057 -0.9801
21416SOL    HW267141   8.082   5.059   3.645  1.4596  1.4094  1.4717
21417SOL     OW67142   5.405   8.334   1.869 -0.2741 -0.1324 -0.0612
21417SOL    HW167143   5.425   8.420   1.906  0.9450 -0.3000 -0.3151
21417SOL    HW267144   5.481   8.280   1.890 -0.8469 -1.0424 -0.2705
21418SOL     OW67145   2.485   7.331   2.684  0.0973 -0.3276 -0.4207
21418SOL    HW167146   2.461   7.243   2.653 -0.9183  0.0950 -0.8584
21418SOL    HW267147   2.496   7.382   2.603  3.3240 -0.6628 -0.3396
21419SOL     OW67148   3.754   7.914   8.681 -0.1497 -0.0468  0.1969
21419SOL    HW167149   3.733   7.884   8.592 -1.4386  0.4868  0.2999
21419SOL    HW267150   3.818   7.984   8.668 -0.8899  0.5516 -0.3886
21420SOL     OW67151   1.870   4.201   8.087  0.6502 -0.5772 -0.2616
21420SOL    HW167152   1.842   4.119   8.045 -0.4903 -0.4248  0.1705
21420SOL    HW267153   1.907   4.252   8.015 -1.1558 -0.3699 -1.1157
21421SOL     OW67154   8.460   5.085   4.942  0.0679 -0.0270 -0.2267
21421SOL    HW167155   8.466   5.102   5.036 -0.7472 -1.3017  0.0772
21421SOL    HW267156   8.480   4.992   4.933  0.9317  0.2469 -1.4203
21422SOL     OW67157   1.602   4.538   0.206 -0.1395 -0.2753  0.3306
21422SOL    HW167158   1.665   4.466   0.210  1.2042  0.7160 -1.1578
21422SOL    HW267159   1.548   4.518   0.129  0.9374  0.7682 -0.7444
21423SOL     OW67160   4.252   3.013   6.897  0.0564 -0.1285 -0.1709
21423SOL    HW167161   4.328   3.001   6.841 -1.2333  1.1416 -2.3668
21423SOL    HW267162   4.280   3.077   6.963  1.2236 -0.6461 -0.1455
21424SOL     OW67163   3.537   4.797   4.474 -0.4593  0.3016 -0.2700
21424SOL    HW167164   3.520   4.891   4.481  0.9553  0.5737 -0.2222
21424SOL    HW267165   3.632   4.788   4.487 -0.4229 -1.0306 -1.2015
21425SOL     OW67166   3.545   9.617   5.880  0.4589  0.0790  0.0103
21425SOL    HW167167   3.539   9.636   5.973 -1.2068 -2.6522  0.5598
21425SOL    HW267168   3.476   9.671   5.840 -1.0021 -1.0791  0.8597
21426SOL     OW67169   8.573   3.566   2.284 -0.1027  0.3779 -0.2474
21426SOL    HW167170   8.659   3.527   2.300 -0.7335  0.2369  3.6566
21426SOL    HW267171   8.582   3.656   2.313 -1.3070  0.3129  0.3576
21427SOL     OW67172   7.387   2.198   6.999 -0.0285 -0.0091  0.1712
21427SOL    HW167173   7.474   2.158   6.999 -0.0579 -0.0922 -0.5462
21427SOL    HW267174   7.340   2.156   7.071  0.9996  1.1203  1.5419
21428SOL     OW67175   8.619   7.462   0.370 -0.2952  0.0414  0.1339
21428SOL    HW167176   8.675   7.511   0.431  0.4342 -1.2732  0.5633
21428SOL    HW267177   8.549   7.523   0.348  1.6530  2.0137 -0.9949
21429SOL     OW67178   5.165   4.372   2.830 -0.1064 -0.2899  0.2183
21429SOL    HW167179   5.208   4.391   2.746 -0.6324 -1.5512 -0.3595
21429SOL    HW267180   5.078   4.411   2.821 -0.0427 -0.1229  0.3196
21430SOL     OW67181   6.909   7.266   8.812 -0.4401 -0.4101  0.4790
21430SOL    HW167182   6.824   7.223   8.801 -0.5911 -0.1115  0.4782
21430SOL    HW267183   6.971   7.206   8.770 -0.8451  0.0962 -0.8892
21431SOL     OW67184   1.702   6.798   2.538 -0.4336  0.5563 -0.0561
21431SOL    HW167185   1.740   6.790   2.451 -0.7277  0.5559 -0.1889
21431SOL    HW267186   1.775   6.790   2.598 -0.2982  0.0432 -0.2880
21432SOL     OW67187   6.316   8.502   0.769 -0.4350 -0.1372  0.0172
21432SOL    HW167188   6.387   8.543   0.719  0.8689 -2.3801 -0.0941
21432SOL    HW267189   6.323   8.540   0.856 -0.1085  0.7917 -0.3989
21433SOL     OW67190   4.433   6.626   8.200  0.3374  0.3962 -0.1055
21433SOL    HW167191   4.473   6.705   8.164  1.0956 -0.2928 -0.8139
21433SOL    HW267192   4.507   6.566   8.214 -0.1065  0.1436  1.3054
21434SOL     OW67193   0.940   0.029   1.929 -0.1685 -0.2469 -0.2629
21434SOL    HW167194   0.997  -0.031   1.881 -1.5782 -0.4752 -1.7750
21434SOL    HW267195   0.999   0.080   1.984  1.1627 -2.4383  0.4652
21435SOL     OW67196   6.842   3.128   4.694 -0.5101 -0.4115 -0.0379
21435SOL    HW167197   6.784   3.057   4.667 -0.2492 -0.1611 -1.3054
21435SOL    HW267198   6.796   3.208   4.667  0.6839 -0.2334 -1.6343
21436SOL     OW67199   6.196   4.755   2.472 -0.2359 -0.1789  0.5689
21436SOL    HW167200   6.160   4.724   2.389 -1.8721 -1.1913  1.5995
21436SOL    HW267201   6.211   4.849   2.458 -2.4892  0.1204 -0.2340
21437SOL     OW67202   4.099   5.885   4.313 -0.4908 -0.1996 -0.3401
21437SOL    HW167203   4.119   5.838   4.232  1.3129 -0.0898  0.0087
21437SOL    HW267204   4.053   5.963   4.284  0.3973 -0.0104 -1.3027
21438SOL     OW67205   0.155   4.112   3.636  0.0484  0.5472  0.0614
21438SOL    HW167206   0.204   4.189   3.608 -0.5770  0.7962 -0.3763
21438SOL    HW267207   0.063   4.139   3.629 -0.1789 -0.2846 -0.2425
21439SOL     OW67208   2.855   3.440   2.376  0.4847  0.2135 -0.1401
21439SOL    HW167209   2.827   3.531   2.367  0.1643  0.0104 -1.4173
21439SOL    HW267210   2.777   3.395   2.409  0.3890  0.2640 -0.2938
21440SOL     OW67211   3.046   4.893   2.213  0.1245 -0.4970  0.0973
21440SOL    HW167212   3.005   4.978   2.230  0.7638 -0.3461  0.9773
21440SOL    HW267213   3.109   4.909   2.143 -0.3459 -0.4393 -0.3202
21441SOL     OW67214   2.541   3.536   7.234 -0.2802  0.0064  0.1005
21441SOL    HW167215   2.589   3.599   7.288  0.5185 -0.1505 -0.4030
21441SOL    HW267216   2.482   3.590   7.182 -0.3822  0.2389  0.4530
21442SOL     OW67217   5.244   7.617   8.840  0.0123 -0.3151 -0.3119
21442SOL    HW167218   5.283   7.585   8.758  0.1665 -1.1109  0.0564
21442SOL    HW267219   5.188   7.545   8.869  2.3041 -1.3949  1.8533
21443SOL     OW67220   0.037   5.942   2.070 -0.1768 -0.0382 -0.0160
21443SOL    HW167221  -0.008   5.990   2.001 -1.8309 -0.6515  0.5696
21443SOL    HW267222  -0.014   5.861   2.080  1.6688 -1.2461  0.0259
21444SOL     OW67223   0.367   5.631   8.292 -0.0001 -0.3267  0.5995
21444SOL    HW167224   0.437   5.614   8.229 -1.1696  0.4329 -0.9597
21444SOL    HW267225   0.413   5.662   8.371  1.3603  2.2361 -1.0771
21445SOL     OW67226   8.734   0.567   1.709  0.0469 -0.0157  0.1818
21445SOL    HW167227   8.753   0.622   1.633 -2.1979 -0.0889 -0.5222
21445SOL    HW267228   8.742   0.477   1.676 -1.4592 -0.0512 -0.1936
21446SOL     OW67229   7.156   5.678   2.243 -0.4270  0.4184 -0.4896
21446SOL    HW167230   7.222   5.649   2.306  0.3452 -1.2007 -1.9574
21446SOL    HW267231   7.082   5.707   2.297  0.3372 -0.5618  1.1561
21447SOL     OW67232   0.046   2.486   7.158 -0.2386 -0.0392 -0.3100
21447SOL    HW167233  -0.024   2.551   7.153  2.0370  2.4931 -2.5070
21447SOL    HW267234   0.021   2.419   7.095 -0.5814  1.0493 -1.3849
21448SOL     OW67235   8.710   3.632   5.616  0.4201 -0.0796 -0.2600
21448SOL    HW167236   8.665   3.714   5.639  1.1554 -0.0889  1.3527
21448SOL    HW267237   8.643   3.580   5.571 -1.9141 -0.8418  3.5852
21449SOL     OW67238   6.731   0.242   6.298  0.2031  0.1659  0.3545
21449SOL    HW167239   6.815   0.255   6.342 -0.7226 -0.2895  2.3706
21449SOL    HW267240   6.665   0.269   6.362 -1.3056 -2.4973  0.0857
21450SOL     OW67241   0.084   0.504   2.020 -0.3929 -0.2680  0.1715
21450SOL    HW167242   0.018   0.570   2.040 -0.1751  0.2111 -0.6521
21450SOL    HW267243   0.033   0.429   1.988 -0.5536  0.0765 -0.3998
21451SOL     OW67244   3.722   6.933   3.574  0.3644 -0.5754  0.7897
21451SOL    HW167245   3.751   6.851   3.614 -0.2983 -1.2470 -0.0682
21451SOL    HW267246   3.651   6.964   3.630 -1.6986 -2.3677 -0.6665
21452SOL     OW67247   6.624   0.615   1.463 -0.3159  0.2319  0.7492
21452SOL    HW167248   6.651   0.645   1.550  1.4894  0.1871  0.2450
21452SOL    HW267249   6.614   0.521   1.472  1.5241 -0.0187  0.5535
21453SOL     OW67250   1.859   8.339   8.961  0.4850  0.3642 -0.0714
21453SOL    HW167251   1.877   8.422   9.005  1.9594  1.0693 -1.8742
21453SOL    HW267252   1.909   8.274   9.010 -0.6975  0.4831  1.3674
21454SOL     OW67253   2.120   5.071   7.637 -0.1309 -0.3448 -0.4674
21454SOL    HW167254   2.043   5.016   7.618  0.5711 -1.2742 -0.6685
21454SOL    HW267255   2.189   5.037   7.580  0.1330  1.2394 -1.1532
21455SOL     OW67256   0.667   3.113   3.566  0.0517 -0.0963  0.4466
21455SOL    HW167257   0.581   3.144   3.538  0.0262 -1.3219 -0.9829
21455SOL    HW267258   0.702   3.184   3.619 -1.5332  0.7300  0.4535
21456SOL     OW67259   8.310   1.632   4.167  0.5013 -0.4137 -0.1060
21456SOL    HW167260   8.276   1.571   4.102 -0.5518 -0.0918  0.1128
21456SOL    HW267261   8.403   1.641   4.146  0.1109  0.0032 -1.8318
21457SOL     OW67262   9.277   9.247   1.873 -0.6255 -0.0032  0.5102
21457SOL    HW167263   9.328   9.243   1.954  0.3344 -0.9427 -0.1206
21457SOL    HW267264   9.269   9.156   1.845  1.3208  0.4657 -1.8262
21458SOL     OW67265   6.117   3.324   3.713  0.4320 -0.2191  0.2092
21458SOL    HW167266   6.212   3.320   3.728  0.1824 -2.3661  1.7188
21458SOL    HW267267   6.094   3.236   3.683 -0.8864  0.7545 -1.8695
21459SOL     OW67268   9.014   0.384   4.969  0.0367  0.2742 -0.0152
21459SOL    HW167269   8.981   0.463   4.926  0.4551  1.2095  1.3212
21459SOL    HW267270   9.102   0.408   4.998 -0.0422 -0.4969  0.8954
21460SOL     OW67271   4.646   7.235   8.447  0.1602 -0.1277 -0.0208
21460SOL    HW167272   4.712   7.167   8.433 -0.2356 -0.5826  0.2854
21460SOL    HW267273   4.598   7.206   8.524  0.7865  1.1378  0.8878
21461SOL     OW67274   1.820   2.929   7.026 -0.3710 -0.1244  0.3139
21461SOL    HW167275   1.899   2.929   6.971 -0.7645  0.6505 -0.2772
21461SOL    HW267276   1.832   3.004   7.084 -0.2668 -0.5398  0.8298
21462SOL     OW67277   1.403   5.021   9.644 -0.1332  0.4926  1.3451
21462SOL    HW167278   1.455   4.949   9.681 -1.0062 -2.5569 -2.6284
21462SOL    HW267279   1.467   5.076   9.598  0.1118 -2.5084 -2.4079
21463SOL     OW67280   3.543   7.402   9.135  0.4108  0.4131  0.2091
21463SOL    HW167281   3.548   7.399   9.230  1.9246 -1.2129  0.1455
21463SOL    HW267282   3.449   7.398   9.115  0.0387  1.4875  1.6123
21464SOL     OW67283   0.093   2.879   2.670 -0.1321  0.3561 -0.0331
21464SOL    HW167284   0.001   2.854   2.677  0.1266 -0.7035 -0.2284
21464SOL    HW267285   0.139   2.797   2.649  0.4327  1.4296 -3.5329
21465SOL     OW67286   8.496   9.339   7.436  0.1417 -0.6221 -0.3197
21465SOL    HW167287   8.418   9.357   7.384 -0.2258 -1.3132 -0.0203
21465SOL    HW267288   8.493   9.404   7.507  0.5043  0.1482 -1.0000
21466SOL     OW67289   1.033   6.555   4.565  0.2448  0.4734 -0.0538
21466SOL    HW167290   0.981   6.563   4.645  1.6026  0.1681  0.9016
21466SOL    HW267291   1.068   6.466   4.568  1.3966  0.8935 -0.2658
21467SOL     OW67292   3.304   3.286   6.633  0.3113 -0.5963 -0.1690
21467SOL    HW167293   3.395   3.259   6.645  0.4571  0.5077  1.6326
21467SOL    HW267294   3.257   3.243   6.705 -0.4871 -0.6951 -0.7418
21468SOL     OW67295   7.564   4.427   1.883  0.0347  0.7982  0.8984
21468SOL    HW167296   7.613   4.364   1.935 -1.8973 -2.9367 -1.3709
21468SOL    HW267297   7.515   4.478   1.947 -0.8980 -2.3798  2.9575
21469SOL     OW67298   3.038   8.102   2.214 -0.8514  0.1257  0.0555
21469SOL    HW167299   3.068   8.041   2.280  1.1831  0.7510 -0.2193
21469SOL    HW267300   2.996   8.047   2.147  0.3540 -0.9156  0.1213
21470SOL     OW67301   4.468   2.390   1.704  0.0752 -0.1532  0.0519
21470SOL    HW167302   4.402   2.432   1.648 -0.2951  2.9119  2.4776
21470SOL    HW267303   4.416   2.335   1.764  0.2727 -1.6557 -1.0957
21471SOL     OW67304   9.046   5.530   5.930 -0.0250 -0.0274 -0.3245
21471SOL    HW167305   9.079   5.469   5.864  1.1439  0.5159 -0.2645
21471SOL    HW267306   9.125   5.563   5.973 -0.7180  0.5041  0.5561
21472SOL     OW67307   0.740   3.964   5.865 -0.5617 -0.0138  0.3638
21472SOL    HW167308   0.804   3.995   5.802  1.3996  1.6314  2.9408
21472SOL    HW267309   0.655   3.973   5.821  0.5688  2.4509 -1.4892
21473SOL     OW67310   0.565   5.978   3.872 -0.0029 -0.0558  0.0558
21473SOL    HW167311   0.589   6.071   3.876 -0.8650  0.1626  0.4217
21473SOL    HW267312   0.516   5.969   3.791  0.3802 -0.2666 -0.1526
21474SOL     OW67313   0.249   8.860   5.930  0.0786 -0.0933 -0.1180
21474SOL    HW167314   0.325   8.908   5.896  1.0831 -1.1071  0.6479
21474SOL    HW267315   0.234   8.898   6.017  0.5468 -0.7795  0.2716
21475SOL     OW67316   4.356   1.682   6.449 -0.9333  0.1200 -0.3349
21475SOL    HW167317   4.443   1.675   6.409 -0.5984  0.3511  0.3423
21475SOL    HW267318   4.364   1.633   6.531 -1.3082  0.5429 -0.0476
21476SOL     OW67319   7.197   0.259   4.359 -0.2783  0.1006 -0.6039
21476SOL    HW167320   7.171   0.350   4.365 -2.0422 -0.4210  0.3054
21476SOL    HW267321   7.227   0.236   4.447 -2.0351 -0.7749 -0.1878
21477SOL     OW67322   9.226   5.483   0.704  0.2320  0.6536 -0.2192
21477SOL    HW167323   9.321   5.483   0.720 -0.1402  1.3294  2.5259
21477SOL    HW267324   9.198   5.572   0.725 -1.3423 -0.2299  1.8168
21478SOL     OW67325   8.056   3.100   7.503  0.0075 -0.0659 -0.3975
21478SOL    HW167326   7.983   3.159   7.523  0.7653  0.6742  0.2463
21478SOL    HW267327   8.100   3.086   7.587 -1.2117 -3.0660 -0.1355
21479SOL     OW67328   6.904   9.430   4.153 -0.3362 -0.0121  0.1039
21479SOL    HW167329   6.998   9.446   4.154 -0.1272 -1.1470  0.6658
21479SOL    HW267330   6.885   9.392   4.239 -0.9330 -1.6143 -0.6839
21480SOL     OW67331   0.252   6.253   6.158  0.0123  0.5495  0.0834
21480SOL    HW167332   0.161   6.223   6.156 -0.7355  2.5838 -2.6557
21480SOL    HW267333   0.303   6.177   6.129 -1.0089 -0.1016 -0.0494
21481SOL     OW67334   5.547   0.982   0.600  0.4196 -0.0853  0.4008
21481SOL    HW167335   5.557   1.030   0.518 -0.0114  0.5416  0.7049
21481SOL    HW267336   5.614   0.914   0.596 -0.5729 -1.0500 -1.1524
21482SOL     OW67337   1.098   8.479   3.156 -0.3863 -0.0391  0.2891
21482SOL    HW167338   1.070   8.434   3.236 -3.3082  1.3438  0.1828
21482SOL    HW267339   1.020   8.481   3.101  1.0049  0.8262 -1.7688
21483SOL     OW67340   1.817   0.559   8.453  0.2909 -0.0083 -0.1805
21483SOL    HW167341   1.758   0.624   8.415  1.8473  1.3112 -0.4427
21483SOL    HW267342   1.840   0.501   8.380 -0.5034 -0.3988 -0.1230
21484SOL     OW67343   8.680   9.438   4.457  0.2173 -0.7550 -0.2627
21484SOL    HW167344   8.730   9.375   4.405  2.1895  1.6435 -1.4683
21484SOL    HW267345   8.723   9.437   4.543  2.0990  0.8355 -1.1066
21485SOL     OW67346   5.243   0.880   5.781 -0.4217  0.0296 -0.2374
21485SOL    HW167347   5.174   0.927   5.828  1.6180  0.6870  2.3333
21485SOL    HW267348   5.317   0.942   5.779  1.0746 -1.6630 -0.2232
21486SOL     OW67349   9.247   0.558   5.066 -0.0479 -0.5357  0.0081
21486SOL    HW167350   9.332   0.543   5.024  0.3644  0.7676  0.3332
21486SOL    HW267351   9.202   0.621   5.008  0.0208  0.3060  0.8443
21487SOL     OW67352   0.817   7.140   0.698  0.0249  0.9898 -0.1475
21487SOL    HW167353   0.742   7.171   0.647  2.1614  0.9938 -3.6025
21487SOL    HW267354   0.874   7.217   0.705  0.1782  0.7618  1.6845
21488SOL     OW67355   6.826   3.623   4.451  0.0250 -0.6643 -0.0081
21488SOL    HW167356   6.840   3.674   4.371 -0.0997 -0.3951  0.1389
21488SOL    HW267357   6.732   3.629   4.467  0.1484 -0.1178  0.5485
21489SOL     OW67358   0.017   7.198   0.934 -0.3542 -0.6409  0.7219
21489SOL    HW167359   0.045   7.239   1.016  2.3499  0.4510 -0.6405
21489SOL    HW267360  -0.057   7.251   0.905  0.4174  0.6988  1.1038
21490SOL     OW67361   2.107   3.614   6.637 -0.1559  0.8206  0.8442
21490SOL    HW167362   2.174   3.649   6.578  2.0370  2.5953  4.0412
21490SOL    HW267363   2.110   3.519   6.623  1.4314  1.0484 -0.7035
21491SOL     OW67364   5.118   0.434   2.859 -0.0509  0.1678  0.5628
21491SOL    HW167365   5.081   0.522   2.862  1.9282  1.0431  0.6859
21491SOL    HW267366   5.083   0.390   2.936 -0.5078  1.0876  0.8870
21492SOL     OW67367   9.232   5.520   6.636  0.1940 -0.3126 -0.3243
21492SOL    HW167368   9.214   5.579   6.709 -0.6931 -0.5946 -0.3061
21492SOL    HW267369   9.149   5.514   6.588 -0.6109 -3.6874  1.2278
21493SOL     OW67370   4.943   6.408   1.330 -0.8517  0.4764  0.3273
21493SOL    HW167371   4.939   6.377   1.421 -0.0231  1.1005  0.5881
21493SOL    HW267372   4.869   6.365   1.287 -0.5290 -0.7967  0.9909
21494SOL     OW67373   7.767   7.865   0.750  0.2765  0.1594  0.5297
21494SOL    HW167374   7.703   7.820   0.695 -0.5937  1.3063  0.5575
21494SOL    HW267375   7.849   7.816   0.738  0.0929  0.2958 -1.6926
21495SOL     OW67376   5.003   7.248   6.389 -0.8524 -0.5731 -0.2752
21495SOL    HW167377   4.967   7.329   6.425  0.7696  0.4308 -0.8003
21495SOL    HW267378   4.968   7.243   6.300 -1.2265 -0.6422 -0.1258
21496SOL     OW67379   8.332   4.513   2.797 -1.0199  0.1059 -0.5602
21496SOL    HW167380   8.309   4.582   2.859 -0.7791  0.0458 -0.4056
21496SOL    HW267381   8.283   4.436   2.827 -1.8170  0.3833 -1.1228
21497SOL     OW67382   6.475   6.003   1.278  0.6346  0.0904 -0.1062
21497SOL    HW167383   6.424   6.028   1.355  1.1494  0.0698  0.2541
21497SOL    HW267384   6.425   5.933   1.237  0.0820  0.4780 -0.0989
21498SOL     OW67385   7.682   8.953   6.706 -0.0324 -0.0040  0.2959
21498SOL    HW167386   7.675   9.031   6.651  1.9342 -0.1718 -0.2808
21498SOL    HW267387   7.702   8.882   6.645 -1.5388 -0.9503  0.8469
21499SOL     OW67388   2.351   4.731   9.400  0.2784  0.5450 -0.4994
21499SOL    HW167389   2.364   4.766   9.312 -0.4097  0.3647 -0.6815
21499SOL    HW267390   2.290   4.658   9.388 -0.0243  0.6833  0.1520
21500SOL     OW67391   6.029   0.062   7.199  0.2628 -0.4672  0.0880
21500SOL    HW167392   6.048   0.065   7.293  4.2672  0.6626 -0.5976
21500SOL    HW267393   6.000   0.150   7.177  1.1315 -0.2159 -0.0477
21501SOL     OW67394   0.486   8.626   6.102 -0.4829 -0.3628 -0.0960
21501SOL    HW167395   0.485   8.649   6.009  1.6902  1.6354  0.2915
21501SOL    HW267396   0.579   8.612   6.121 -0.7931  0.2296  1.9937
21502SOL     OW67397   8.972   0.300   9.550 -0.4889  0.4014  0.5529
21502SOL    HW167398   9.055   0.306   9.597 -1.0141 -0.9318  1.7347
21502SOL    HW267399   8.931   0.386   9.562  0.5870  0.9778  0.1929
21503SOL     OW67400   7.625   0.566   4.827 -0.0106  0.9292  0.5866
21503SOL    HW167401   7.660   0.652   4.849  1.1045  0.3699  1.0852
21503SOL    HW267402   7.619   0.519   4.911  0.0377  0.2939  0.2455
21504SOL     OW67403   8.430   9.364   8.874 -0.3588  0.0356 -0.3197
21504SOL    HW167404   8.487   9.397   8.943 -0.6240  1.6556 -0.8406
21504SOL    HW267405   8.343   9.362   8.914 -0.4881  0.8332 -0.5501
21505SOL     OW67406   1.925   4.347   6.208 -0.5141 -0.0201 -0.0405
21505SOL    HW167407   1.998   4.290   6.232 -0.6031 -0.3060 -0.4231
21505SOL    HW267408   1.857   4.286   6.178 -0.8583  0.2505  0.1804
21506SOL     OW67409   8.848   5.701   4.645  0.6775  0.2641 -0.2185
21506SOL    HW167410   8.769   5.733   4.600 -0.6672 -2.4937 -0.0411
21506SOL    HW267411   8.908   5.677   4.574  0.0939 -0.4951 -0.4694
21507SOL     OW67412   6.169   7.651   3.200  0.2063 -0.0398  0.5623
21507SOL    HW167413   6.185   7.597   3.277 -0.5346 -1.7944 -0.4564
21507SOL    HW267414   6.138   7.735   3.235  4.0745  0.8624  2.2837
21508SOL     OW67415   5.625   4.641   5.889 -0.1411  0.2119  0.0353
21508SOL    HW167416   5.530   4.639   5.880  0.0323 -1.1074 -2.3081
21508SOL    HW267417   5.658   4.631   5.799  2.2129  0.5949  0.7865
21509SOL     OW67418   6.756   1.706   1.243 -0.6235  0.5777 -0.5268
21509SOL    HW167419   6.798   1.785   1.276 -0.8374  0.1321  0.8719
21509SOL    HW267420   6.690   1.685   1.309 -0.4415 -0.8719 -0.7789
21510SOL     OW67421   2.435   1.773   4.997  0.2010  0.3678 -0.3451
21510SOL    HW167422   2.464   1.708   5.062  0.6952  0.5175 -0.4113
21510SOL    HW267423   2.469   1.856   5.030  1.1184  0.3422 -1.1784
21511SOL     OW67424   3.485   9.217   9.344 -0.5291  0.6098 -0.4086
21511SOL    HW167425   3.402   9.263   9.357 -0.4454  1.4589 -2.4791
21511SOL    HW267426   3.533   9.271   9.282  0.6622 -0.9973 -0.9616
21512SOL     OW67427   9.364   6.920   7.252 -0.0103 -0.3558 -0.2769
21512SOL    HW167428   9.314   6.903   7.172 -0.5168 -1.5326  0.2827
21512SOL    HW267429   9.453   6.940   7.220 -0.4724  0.3212 -1.1863
21513SOL     OW67430   0.202   7.980   5.673 -0.7616 -0.1397 -0.1035
21513SOL    HW167431   0.264   7.913   5.703  1.1909  0.3289 -2.7131
21513SOL    HW267432   0.131   7.931   5.632 -2.6412 -0.7134  3.4753
21514SOL     OW67433   8.078   8.816   7.174  0.3725 -0.0058  0.0221
21514SOL    HW167434   8.137   8.882   7.210  1.7202 -1.8695  1.4307
21514SOL    HW267435   8.098   8.813   7.080  1.2041  0.6563  0.1724
21515SOL     OW67436   8.750   9.281   5.040 -0.5804  0.3020  0.1011
21515SOL    HW167437   8.820   9.220   5.061  0.7451  0.8768 -2.2404
21515SOL    HW267438   8.677   9.226   5.013 -0.9080 -0.2895  2.0402
21516SOL     OW67439   0.443   0.237   0.082  0.1813  0.0297 -0.0718
21516SOL    HW167440   0.408   0.245  -0.007  2.6767 -0.2022 -1.1462
21516SOL    HW267441   0.538   0.240   0.071  0.6125 -1.4651  2.4343
21517SOL     OW67442   7.235   4.212   0.347  0.2890 -0.2993 -0.1763
21517SOL    HW167443   7.185   4.131   0.338  2.3829 -2.0308  2.1094
21517SOL    HW267444   7.306   4.204   0.283  1.3062 -1.0178  0.9970
21518SOL     OW67445   4.879   5.129   2.365  0.7113  0.0026  0.2763
21518SOL    HW167446   4.921   5.134   2.451  0.3841  0.0037  0.4369
21518SOL    HW267447   4.803   5.186   2.372  0.0601 -0.8470  0.3477
21519SOL     OW67448   3.489   0.525   4.375 -0.0320 -0.4767 -0.0987
21519SOL    HW167449   3.490   0.430   4.386  0.6084 -0.5749 -0.8643
21519SOL    HW267450   3.558   0.542   4.311  0.2069  0.5573  0.4158
21520SOL     OW67451   7.080   0.533   3.384  0.0747  0.0630  0.1306
21520SOL    HW167452   7.139   0.496   3.449 -1.8195 -1.2928  1.1732
21520SOL    HW267453   6.992   0.513   3.417 -1.0058 -1.4679 -3.2341
21521SOL     OW67454   5.708   0.974   2.604  0.1587  0.4542  0.7926
21521SOL    HW167455   5.722   1.036   2.676 -2.9376  0.4598  1.5527
21521SOL    HW267456   5.775   0.906   2.617  2.7995  2.8651  0.6940
21522SOL     OW67457   0.303   2.049   6.452 -0.6300 -0.3775 -0.1016
21522SOL    HW167458   0.372   2.037   6.387 -1.0764  0.3577 -0.7157
21522SOL    HW267459   0.304   1.968   6.503  2.0546  0.3678  1.2119
21523SOL     OW67460   9.212   4.725   9.193 -0.0308 -0.2047 -0.3768
21523SOL    HW167461   9.207   4.820   9.200  0.8636  0.2674 -4.1712
21523SOL    HW267462   9.305   4.705   9.193 -0.2118 -1.1705  0.7382
21524SOL     OW67463   2.514   8.433   6.104 -0.0864 -0.3546  0.1591
21524SOL    HW167464   2.451   8.473   6.044 -0.6095 -1.8491 -0.3425
21524SOL    HW267465   2.533   8.501   6.169 -0.0513  1.0493 -1.2861
21525SOL     OW67466   8.360   9.414   4.981 -0.2239  0.1180 -0.0720
21525SOL    HW167467   8.409   9.336   5.006 -0.9155 -0.3083  0.0018
21525SOL    HW267468   8.376   9.477   5.051  0.1246 -0.0572  0.0047
21526SOL     OW67469   1.764   2.433   5.369 -0.4404 -0.1127  0.0040
21526SOL    HW167470   1.699   2.477   5.424 -1.1622  0.4583 -1.2575
21526SOL    HW267471   1.717   2.412   5.288  1.8473  4.0860 -2.7739
21527SOL     OW67472   6.246   6.861   4.198 -0.2477  0.1652 -0.1125
21527SOL    HW167473   6.274   6.905   4.279 -0.0213 -0.2350  0.0274
21527SOL    HW267474   6.301   6.899   4.130  0.8049 -0.7729  0.1934
21528SOL     OW67475   6.644   3.569   3.623  0.0566 -0.5995 -0.0727
21528SOL    HW167476   6.652   3.624   3.701 -0.2001  0.1403 -0.5539
21528SOL    HW267477   6.568   3.514   3.641 -1.9238  1.6437 -0.9877
21529SOL     OW67478   8.164   4.449   5.858 -0.5208  0.1748 -0.2638
21529SOL    HW167479   8.142   4.460   5.766 -0.5913  2.2669 -0.0615
21529SOL    HW267480   8.079   4.450   5.903 -0.4095  1.2426 -0.0422
21530SOL     OW67481   8.787   1.225   3.973  0.1160  0.3894 -0.2368
21530SOL    HW167482   8.877   1.248   3.948  0.2060  1.4963  1.0035
21530SOL    HW267483   8.732   1.265   3.905  0.5540 -0.5317 -1.1566
21531SOL     OW67484   8.222   7.003   1.537  0.0247 -0.1746  0.6561
21531SOL    HW167485   8.303   6.951   1.532 -0.5343 -0.9850 -0.5636
21531SOL    HW267486   8.160   6.946   1.582 -0.6726 -0.7315 -0.9332
21532SOL     OW67487   5.256   2.572   4.082  0.1177 -0.0334 -0.5178
21532SOL    HW167488   5.305   2.601   4.005  0.0705  0.5224 -0.3362
21532SOL    HW267489   5.307   2.498   4.115 -0.4121 -0.9737 -1.6844
21533SOL     OW67490   3.452   5.223   6.491  0.0736 -0.5869  0.1619
21533SOL    HW167491   3.357   5.219   6.503 -0.1503  0.3129 -0.9960
21533SOL    HW267492   3.483   5.284   6.558 -0.4171  0.3485 -0.4222
21534SOL     OW67493   5.930   4.474   0.234  0.3067  0.1325  0.5394
21534SOL    HW167494   5.893   4.387   0.216 -0.0482  0.4886 -0.5284
21534SOL    HW267495   6.024   4.460   0.239  0.1322 -0.6948  2.7299
21535SOL     OW67496   8.246   4.802   4.479  0.2905  0.2553 -0.2412
21535SOL    HW167497   8.284   4.788   4.565  0.5521  0.3345 -0.3403
21535SOL    HW267498   8.244   4.715   4.439 -3.4120 -0.5368  1.2462
21536SOL     OW67499   7.785   6.427   8.606  0.0612  0.1153  0.1877
21536SOL    HW167500   7.816   6.396   8.692 -0.7322 -0.9632  0.1123
21536SOL    HW267501   7.834   6.375   8.543  0.2490  0.5203  0.0002
21537SOL     OW67502   5.306   8.427   0.955  0.0137 -0.3240 -0.2854
21537SOL    HW167503   5.281   8.438   0.863 -0.7283 -0.2888 -0.0842
21537SOL    HW267504   5.346   8.511   0.979 -0.5630 -0.0313 -0.3368
21538SOL     OW67505   2.653   7.053   1.137 -0.0344 -0.7485  0.0697
21538SOL    HW167506   2.697   7.054   1.053  0.1837 -2.2664  0.1407
21538SOL    HW267507   2.695   7.123   1.187  1.7868 -1.6554 -0.1180
21539SOL     OW67508   3.209   1.407   2.757  0.1896  0.4416 -0.0592
21539SOL    HW167509   3.211   1.314   2.782  2.3248 -0.3362 -2.6862
21539SOL    HW267510   3.132   1.415   2.700  1.4293 -0.4276 -1.9505
21540SOL     OW67511   1.365   8.158   1.855 -0.3115  0.1913  0.1930
21540SOL    HW167512   1.288   8.116   1.894 -0.3619  1.4790  1.5485
21540SOL    HW267513   1.414   8.086   1.816 -1.6213 -0.8019  0.3022
21541SOL     OW67514   4.516   6.378   3.758  0.2553  0.4418 -0.7473
21541SOL    HW167515   4.608   6.403   3.754  0.3387  0.4263  0.7863
21541SOL    HW267516   4.488   6.377   3.666  2.3159 -1.6140 -1.4604
21542SOL     OW67517   4.838   7.550   7.074  0.2355  0.5451  0.0980
21542SOL    HW167518   4.823   7.540   6.980 -0.0066 -2.1878  0.3521
21542SOL    HW267519   4.932   7.532   7.085  0.0745 -0.0941  0.4682
21543SOL     OW67520   9.264   4.039   1.616 -0.0626  0.2516 -0.2299
21543SOL    HW167521   9.358   4.058   1.610 -0.2379  1.1018 -0.4751
21543SOL    HW267522   9.258   3.969   1.681  0.7724 -0.0879 -0.4969
21544SOL     OW67523   8.198   5.990   4.348  0.3389 -0.7797 -0.7163
21544SOL    HW167524   8.182   5.912   4.400 -2.7333  0.7264  0.9149
21544SOL    HW267525   8.136   5.984   4.275 -0.1921  0.2319 -0.3748
21545SOL     OW67526   5.075   8.226   3.894 -0.5802 -0.3239 -0.1517
21545SOL    HW167527   5.026   8.165   3.839  0.6652  0.0277 -1.7014
21545SOL    HW267528   5.022   8.234   3.974 -2.1307 -1.2996 -1.0415
21546SOL     OW67529   8.861   7.754   3.890 -0.2854  0.1463  0.0828
21546SOL    HW167530   8.806   7.830   3.873  0.4573  0.9371  1.0702
21546SOL    HW267531   8.853   7.739   3.984  0.4210 -0.3215  0.0751
21547SOL     OW67532   4.473   0.676   5.507  0.0571  0.4067 -0.1289
21547SOL    HW167533   4.518   0.740   5.452 -0.4075 -0.2116 -1.2562
21547SOL    HW267534   4.430   0.729   5.574  2.5893  1.0111  1.1456
21548SOL     OW67535   4.934   3.800   7.172  0.4464 -0.1898  0.4632
21548SOL    HW167536   4.870   3.854   7.127  1.2259  2.1957  2.0110
21548SOL    HW267537   5.004   3.788   7.108 -0.3732 -0.5921 -0.3734
21549SOL     OW67538   4.223   8.437   7.682 -0.9112  0.6939  0.0332
21549SOL    HW167539   4.158   8.374   7.715 -1.8733  1.1515 -0.9016
21549SOL    HW267540   4.261   8.394   7.605 -0.3379  0.5673  0.3832
21550SOL     OW67541   0.301   1.112   8.402  0.4556  0.1357  0.5660
21550SOL    HW167542   0.393   1.132   8.417  0.7443 -0.5739 -0.1827
21550SOL    HW267543   0.268   1.188   8.353  1.1445 -0.4529 -0.8681
21551SOL     OW67544   7.331   7.898   4.767 -0.0895  0.4963 -0.1172
21551SOL    HW167545   7.246   7.885   4.724  0.5490 -1.6336 -0.8240
21551SOL    HW267546   7.314   7.880   4.860 -0.2986 -0.4639 -0.3385
21552SOL     OW67547   5.928   7.953   9.240 -0.2196  0.0042  0.3016
21552SOL    HW167548   5.907   7.960   9.147 -1.5951  0.5980  0.6400
21552SOL    HW267549   5.969   8.037   9.262 -0.7212  0.2202  0.4255
21553SOL     OW67550   0.508   5.740   1.851  0.7962  0.0694 -0.5862
21553SOL    HW167551   0.430   5.781   1.888  0.8361  0.0100 -0.4376
21553SOL    HW267552   0.476   5.689   1.776  0.8818  1.2744 -1.4726
21554SOL     OW67553   6.155   8.082   0.669  0.2518  0.2280  0.2186
21554SOL    HW167554   6.224   8.127   0.718  1.1027  1.0231 -1.6156
21554SOL    HW267555   6.092   8.151   0.646 -0.5885 -0.2868  0.8934
21555SOL     OW67556   9.505   8.570   2.859  0.0919  0.2502 -0.4145
21555SOL    HW167557   9.460   8.521   2.790 -0.9469 -0.6491  0.8280
21555SOL    HW267558   9.582   8.607   2.817 -0.8466  0.2784 -2.1879
21556SOL     OW67559   9.402   1.315   1.710  0.1044 -0.1415  0.1850
21556SOL    HW167560   9.339   1.325   1.638  0.7252  0.2579 -0.3163
21556SOL    HW267561   9.482   1.355   1.677  0.7985 -1.1590  0.5844
21557SOL     OW67562   5.810   6.387   2.607 -0.6468 -0.5154 -0.0526
21557SOL    HW167563   5.787   6.325   2.676 -1.2773 -0.9521 -0.6419
21557SOL    HW267564   5.861   6.336   2.544  1.2612  0.2416  0.8120
21558SOL     OW67565   2.683   8.356   2.565 -0.3280 -0.6243  0.6030
21558SOL    HW167566   2.600   8.378   2.524  0.2203 -0.5723 -0.5329
21558SOL    HW267567   2.730   8.439   2.569  0.6916 -1.0377 -1.2366
21559SOL     OW67568   4.251   2.611   9.433 -0.6308 -0.5375 -0.0554
21559SOL    HW167569   4.339   2.649   9.443 -1.2201  1.2648 -1.2974
21559SOL    HW267570   4.217   2.650   9.353 -1.6482 -3.1227 -0.9932
21560SOL     OW67571   7.449   6.178   7.443 -0.2162  0.0388  0.0816
21560SOL    HW167572   7.529   6.192   7.393  1.3252 -1.4977  1.9279
21560SOL    HW267573   7.420   6.265   7.468  0.8684  0.6313 -0.6536
21561SOL     OW67574   7.268   7.664   2.429  0.2415  0.4754 -0.4297
21561SOL    HW167575   7.212   7.738   2.453 -1.5872 -0.5111 -1.3898
21561SOL    HW267576   7.235   7.591   2.483  2.1739  0.3609  0.6903
21562SOL     OW67577   7.569   4.453   7.677  0.4449 -0.2229 -0.2668
21562SOL    HW167578   7.543   4.422   7.591  0.7222 -0.8702 -0.1229
21562SOL    HW267579   7.517   4.401   7.738 -1.0075  1.3878 -0.0521
21563SOL     OW67580   4.423   7.289   2.090  0.1729  0.2383  0.5123
21563SOL    HW167581   4.500   7.238   2.118  0.0799  0.6863  1.6519
21563SOL    HW267582   4.386   7.322   2.172 -1.6967 -0.5976  0.0673
21564SOL     OW67583   5.723   7.985   6.186 -0.6486 -0.6926  0.6592
21564SOL    HW167584   5.701   8.048   6.255  1.3707  0.7719  0.0792
21564SOL    HW267585   5.766   8.038   6.119  0.9053 -2.6657  0.0111
21565SOL     OW67586   4.053   5.195   2.395  0.3509 -0.0097  0.1910
21565SOL    HW167587   4.092   5.200   2.482 -0.6394 -0.8403  0.6944
21565SOL    HW267588   4.122   5.226   2.336  0.0295  3.7873  1.5238
21566SOL     OW67589   7.848   0.576   4.170  0.4891 -0.8072  0.3015
21566SOL    HW167590   7.806   0.603   4.089 -0.0570  0.1076  0.8715
21566SOL    HW267591   7.822   0.642   4.234  0.9114 -1.5050  1.2230
21567SOL     OW67592   2.968   6.353   3.131  0.3593 -0.2073 -0.0361
21567SOL    HW167593   3.055   6.378   3.099  1.0119 -2.1963  0.0811
21567SOL    HW267594   2.908   6.386   3.063  1.3811 -0.6168 -1.1823
21568SOL     OW67595   7.139   1.403   3.289  0.7314 -0.0359 -0.6443
21568SOL    HW167596   7.198   1.446   3.351 -0.6720  0.4028  0.4450
21568SOL    HW267597   7.086   1.474   3.254 -1.1057 -0.6994  0.6098
21569SOL     OW67598   7.482   2.484   2.864  0.0305  0.3706  0.3703
21569SOL    HW167599   7.446   2.488   2.776  0.7803 -1.5873 -0.0845
21569SOL    HW267600   7.416   2.436   2.914 -0.1586  1.0263  0.7607
21570SOL     OW67601   8.220   1.503   6.915  0.1840 -0.9343 -0.2044
21570SOL    HW167602   8.141   1.499   6.970  0.0083 -2.5464 -0.5264
21570SOL    HW267603   8.292   1.504   6.977 -0.0582  0.9624  0.1063
21571SOL     OW67604   9.352   2.512   8.689  0.1945 -0.0468 -0.2820
21571SOL    HW167605   9.422   2.454   8.657 -1.4779 -1.1034 -2.3187
21571SOL    HW267606   9.286   2.510   8.619 -1.8592  0.9270  1.5235
21572SOL     OW67607   7.280   5.426   7.880 -0.0382 -0.0116 -0.3250
21572SOL    HW167608   7.200   5.448   7.927 -0.3188  2.3726 -1.7733
21572SOL    HW267609   7.255   5.358   7.818 -0.8942  0.5093 -0.5631
21573SOL     OW67610   9.051   5.057   4.482 -0.0599  0.3073  0.2155
21573SOL    HW167611   9.034   5.135   4.536  1.6630  1.1784 -0.4077
21573SOL    HW267612   8.998   5.071   4.403 -1.9135 -0.5538  1.2388
21574SOL     OW67613   0.249   0.222   0.591  0.1176  0.4720  0.4012
21574SOL    HW167614   0.232   0.141   0.543  1.2657 -0.7451  1.9636
21574SOL    HW267615   0.337   0.248   0.564 -0.2940  1.3173 -0.1954
21575SOL     OW67616   4.409   0.704   3.036  0.0945  0.5018  0.2047
21575SOL    HW167617   4.371   0.743   3.115 -0.8351 -0.7436  0.4157
21575SOL    HW267618   4.422   0.612   3.059 -1.5490 -0.2471 -1.5090
21576SOL     OW67619   6.382   4.918   4.038  0.1058  0.6544  0.0999
21576SOL    HW167620   6.448   4.928   4.108  0.1811 -0.2036  0.1573
21576SOL    HW267621   6.392   4.997   3.985  4.0779 -1.1556 -2.3116
21577SOL     OW67622   4.206   7.960   5.773 -0.3928 -0.1845  0.3310
21577SOL    HW167623   4.131   7.990   5.825 -0.5092  0.3026 -0.1088
21577SOL    HW267624   4.173   7.958   5.683 -0.1909 -1.0258  0.2699
21578SOL     OW67625   1.611   1.833   2.436  0.1946 -0.4622 -0.2558
21578SOL    HW167626   1.525   1.814   2.399  0.1010 -2.3077  0.7668
21578SOL    HW267627   1.650   1.747   2.450  0.5604  0.0894  3.0091
21579SOL     OW67628   7.559   1.136   7.173 -0.3133  0.1328 -0.0720
21579SOL    HW167629   7.489   1.136   7.108  1.0142 -0.5157 -1.5766
21579SOL    HW267630   7.560   1.046   7.206 -1.6236  0.6852  1.6591
21580SOL     OW67631   3.352   1.750   4.254  0.7703  0.2491 -0.1585
21580SOL    HW167632   3.347   1.832   4.205  1.1728  1.0308  1.0716
21580SOL    HW267633   3.317   1.771   4.340 -0.7455 -1.3183 -0.3435
21581SOL     OW67634   3.575   0.786   1.239  0.5666 -0.0852 -0.1580
21581SOL    HW167635   3.508   0.808   1.304 -1.1107  0.2449 -1.9027
21581SOL    HW267636   3.586   0.691   1.248 -0.7687 -0.2879 -0.3798
21582SOL     OW67637   1.213   6.704   7.320 -0.3041 -0.3414 -0.7731
21582SOL    HW167638   1.208   6.615   7.283  2.3175 -1.9859  2.3048
21582SOL    HW267639   1.287   6.700   7.381 -0.4546  3.8599 -0.0467
21583SOL     OW67640   6.772   6.049   6.957 -0.2105  0.3010 -0.1785
21583SOL    HW167641   6.697   6.106   6.971  0.5783  1.1056  0.9871
21583SOL    HW267642   6.778   5.998   7.037 -0.5599 -1.0363 -0.9832
21584SOL     OW67643   9.265   1.285   9.076 -0.2399  0.0512 -0.9557
21584SOL    HW167644   9.290   1.361   9.129 -1.1263  0.8775 -1.6875
21584SOL    HW267645   9.321   1.215   9.108 -0.1879  0.7163  0.5373
21585SOL     OW67646   1.397   6.283   6.046 -0.7620 -0.3544  0.0383
21585SOL    HW167647   1.446   6.206   6.075 -0.3871 -0.0588  0.1945
21585SOL    HW267648   1.361   6.320   6.127 -2.1766 -1.1818 -0.1650
21586SOL     OW67649   1.160   0.155   0.385 -0.3129 -0.1088  0.7530
21586SOL    HW167650   1.203   0.197   0.460  0.8301  1.2726 -0.5913
21586SOL    HW267651   1.113   0.226   0.342  0.3681 -0.5052 -0.7138
21587SOL     OW67652   3.876   0.587   1.226 -0.3414 -0.2296 -0.5925
21587SOL    HW167653   3.902   0.670   1.266 -0.2753 -0.1285 -0.8440
21587SOL    HW267654   3.898   0.597   1.133  1.1874 -1.1358 -0.3579
21588SOL     OW67655   5.272   4.082   8.512  0.5552 -0.0405 -0.4402
21588SOL    HW167656   5.228   4.167   8.514  1.8337  0.6429 -0.1142
21588SOL    HW267657   5.215   4.026   8.459  0.5980  1.5425 -2.2537
21589SOL     OW67658   9.428   1.596   2.923 -0.5153 -0.4620 -0.1055
21589SOL    HW167659   9.507   1.650   2.914 -0.0195 -1.2753 -0.7728
21589SOL    HW267660   9.427   1.541   2.845 -1.7831 -0.4331 -0.1308
21590SOL     OW67661   4.001   0.083   4.567  0.1546 -0.1312 -0.2085
21590SOL    HW167662   4.005   0.130   4.650 -0.6938  0.2498 -0.3778
21590SOL    HW267663   3.952   0.141   4.509  0.8918 -0.3065 -1.0392
21591SOL     OW67664   3.816   3.647   8.142  0.4190  0.0867 -0.0286
21591SOL    HW167665   3.869   3.719   8.109 -0.3681 -0.0991 -1.8201
21591SOL    HW267666   3.876   3.572   8.142  0.6193  0.2390 -0.4480
21592SOL     OW67667   7.902   0.106   4.386 -0.0900 -0.1571  0.2322
21592SOL    HW167668   7.830   0.109   4.449 -0.3638 -2.2952  0.1117
21592SOL    HW267669   7.867   0.146   4.307 -1.4965 -1.8925 -0.0872
21593SOL     OW67670   1.634   1.027   1.127  0.0180  0.0497 -0.3022
21593SOL    HW167671   1.627   1.122   1.127 -1.2396 -0.0132  0.8759
21593SOL    HW267672   1.566   0.998   1.066 -1.5451 -0.1424  1.4339
21594SOL     OW67673   0.679   9.315   8.162  0.6636 -0.2055 -0.6031
21594SOL    HW167674   0.768   9.347   8.150  0.8699  0.0879  1.3229
21594SOL    HW267675   0.650   9.356   8.244 -0.4729 -1.9280 -0.0871
21595SOL     OW67676   7.386   6.500   4.360 -0.3176  0.6433 -0.0603
21595SOL    HW167677   7.401   6.419   4.311 -2.5521  0.2692 -0.2421
21595SOL    HW267678   7.442   6.565   4.317  1.4745 -0.7571  0.0495
21596SOL     OW67679   6.627   2.416   1.850 -0.4838 -0.7143 -0.3440
21596SOL    HW167680   6.620   2.494   1.905  1.3273 -0.6493 -0.1273
21596SOL    HW267681   6.559   2.357   1.883 -0.7680  0.1140  0.6037
21597SOL     OW67682   4.149   3.888   1.981  0.6771  0.0282  0.3975
21597SOL    HW167683   4.072   3.910   2.034  1.2052  0.1097  1.1370
21597SOL    HW267684   4.143   3.793   1.969 -0.0392  0.1513 -0.3545
21598SOL     OW67685   8.483   7.050   5.036 -0.0661  0.1760  0.1849
21598SOL    HW167686   8.460   7.096   4.955 -0.6116  1.8278  1.2243
21598SOL    HW267687   8.572   7.078   5.055  0.0009 -0.0757  0.2331
21599SOL     OW67688   0.058   1.096   8.844  0.1212  0.1563  0.3654
21599SOL    HW167689   0.094   1.037   8.910 -0.8177  0.2270  0.9524
21599SOL    HW267690   0.107   1.177   8.855 -1.1024  0.7220  2.1111
21600SOL     OW67691   2.546   2.651   3.741 -0.2734 -0.2263  0.0529
21600SOL    HW167692   2.546   2.683   3.831 -0.4307  0.7767 -0.2881
21600SOL    HW267693   2.553   2.730   3.687 -1.5804 -0.6757 -0.8496
21601SOL     OW67694   9.280   0.855   0.176 -0.1543  0.1378  0.0596
21601SOL    HW167695   9.327   0.930   0.214  1.0633 -0.3481 -0.4449
21601SOL    HW267696   9.229   0.893   0.105  0.9879  0.4058 -0.6364
21602SOL     OW67697   5.218   9.639   1.512  0.3187  0.6714  0.8827
21602SOL    HW167698   5.301   9.625   1.556  0.0186 -0.5601  1.0748
21602SOL    HW267699   5.171   9.557   1.521  0.1228  0.4359 -1.4751
21603SOL     OW67700   6.754   2.678   5.620 -0.4332 -0.4694  0.7967
21603SOL    HW167701   6.686   2.661   5.685  0.3271 -0.4466  1.6176
21603SOL    HW267702   6.731   2.621   5.546 -1.4352 -0.3234  0.9775
21604SOL     OW67703   7.130   8.963   2.128  0.4888 -0.1231 -0.8957
21604SOL    HW167704   7.144   8.875   2.092 -0.2608 -0.1360 -1.1890
21604SOL    HW267705   7.191   9.019   2.081  0.9971 -0.4943 -0.6832
21605SOL     OW67706   0.598   3.330   1.756 -0.0234  0.9334  0.1098
21605SOL    HW167707   0.647   3.323   1.838  1.2107 -1.8170 -0.7466
21605SOL    HW267708   0.662   3.364   1.693 -1.1232  3.6294  0.2811
21606SOL     OW67709   9.152   1.395   8.839  0.2669 -0.1162  0.0403
21606SOL    HW167710   9.194   1.335   8.901 -0.8894  0.5159  1.4885
21606SOL    HW267711   9.225   1.443   8.800  1.0372 -0.5414  0.9087
21607SOL     OW67712   1.550   7.994   1.759 -0.0518  0.0184  0.8067
21607SOL    HW167713   1.590   7.907   1.764 -1.5514 -0.7905 -0.3518
21607SOL    HW267714   1.548   8.014   1.665 -0.8617  0.7384  0.9689
21608SOL     OW67715   0.721   8.613   0.836  0.1182  0.3945  0.7214
21608SOL    HW167716   0.806   8.604   0.880  0.3982  0.5053  0.2232
21608SOL    HW267717   0.737   8.680   0.769  0.2600 -1.1048 -0.8272
21609SOL     OW67718   9.379   7.149   2.570  0.5620  0.1594 -0.3696
21609SOL    HW167719   9.455   7.189   2.527  0.6847  0.0650 -0.2420
21609SOL    HW267720   9.305   7.170   2.513  0.7206  0.0525 -0.6186
21610SOL     OW67721   1.322   3.477   7.230  0.5014 -0.8103  0.3717
21610SOL    HW167722   1.322   3.393   7.276 -0.8831 -1.0175  0.0576
21610SOL    HW267723   1.245   3.523   7.264  0.3976 -0.2869 -0.5335
21611SOL     OW67724   6.099   2.136   1.843 -0.4076  0.0610  0.4299
21611SOL    HW167725   6.022   2.090   1.811  1.0570 -1.9543 -0.4079
21611SOL    HW267726   6.114   2.206   1.779 -1.9305  0.9816  1.0255
21612SOL     OW67727   6.145   1.414   7.971 -0.1413 -0.1754 -0.6490
21612SOL    HW167728   6.196   1.490   7.943  0.1371 -1.0637 -2.7212
21612SOL    HW267729   6.206   1.362   8.023 -0.4837  1.1929  1.2534
21613SOL     OW67730   1.752   8.624   5.418  0.3193  0.1159  0.8023
21613SOL    HW167731   1.683   8.685   5.441  0.6122  1.0383 -0.6116
21613SOL    HW267732   1.829   8.655   5.465 -0.2014 -0.9846  2.4777
21614SOL     OW67733   6.715   6.551   9.500  0.5028  0.4916 -0.1725
21614SOL    HW167734   6.718   6.539   9.595  1.9065  0.8119 -0.1497
21614SOL    HW267735   6.757   6.472   9.465  2.1778  1.4322 -0.3919
21615SOL     OW67736   3.231   2.184   6.128  0.6399  0.4845  0.2230
21615SOL    HW167737   3.247   2.272   6.094  0.1520  1.1339  1.6098
21615SOL    HW267738   3.143   2.188   6.164  1.5031  0.1955  2.5492
21616SOL     OW67739   3.028   9.388   2.144  0.4087 -0.3058 -0.2139
21616SOL    HW167740   2.936   9.375   2.165 -0.4840  2.2339 -2.0190
21616SOL    HW267741   3.037   9.353   2.055  0.7644  0.8006 -0.6303
21617SOL     OW67742   5.663   6.427   1.611 -0.2556  0.5019 -0.1613
21617SOL    HW167743   5.619   6.362   1.557 -0.1121  0.3893 -0.1419
21617SOL    HW267744   5.756   6.405   1.605 -0.3915 -1.2371  2.3088
21618SOL     OW67745   3.150   5.079   5.585 -0.0010 -0.0013  0.0035
21618SOL    HW167746   3.220   5.049   5.527 -0.9136 -1.6246 -0.3255
21618SOL    HW267747   3.133   5.005   5.643  0.3941  1.3257  1.9360
21619SOL     OW67748   8.901   5.118   8.917  0.1396  0.5647  0.3353
21619SOL    HW167749   8.886   5.025   8.930  1.3958  0.5175  1.6321
21619SOL    HW267750   8.813   5.155   8.905 -0.7268 -0.2712  3.4174
21620SOL     OW67751   0.047   4.872   3.347  0.4969  0.3408 -0.3041
21620SOL    HW167752  -0.017   4.814   3.305 -0.3948  1.7313 -0.9349
21620SOL    HW267753   0.062   4.832   3.433 -1.5065  0.1332  0.0163
21621SOL     OW67754   1.874   7.472   6.078  0.0679  0.2008 -0.0695
21621SOL    HW167755   1.894   7.393   6.128  0.8922 -0.4629 -1.3763
21621SOL    HW267756   1.798   7.511   6.122 -1.0463 -1.9071 -0.0370
21622SOL     OW67757   8.141   7.632   2.044 -0.3987  0.0361 -0.1624
21622SOL    HW167758   8.236   7.629   2.059 -0.1988 -0.2803 -1.3496
21622SOL    HW267759   8.124   7.556   1.987 -1.5390 -0.5270  0.8947
21623SOL     OW67760   9.309   0.802   3.984 -0.5011  0.7990  0.4414
21623SOL    HW167761   9.303   0.787   4.078  0.1827  0.3703  0.4244
21623SOL    HW267762   9.376   0.869   3.974  0.1250  0.1504  0.2101
21624SOL     OW67763   3.629   3.841   3.120 -0.1371 -0.2435 -0.8327
21624SOL    HW167764   3.724   3.839   3.110 -0.0107  1.1169 -0.0697
21624SOL    HW267765   3.607   3.934   3.122 -1.8479 -0.4660 -4.0345
21625SOL     OW67766   4.723   4.870   3.596  0.4338  0.3514  0.1507
21625SOL    HW167767   4.673   4.951   3.583 -0.9740 -0.2390  1.5628
21625SOL    HW267768   4.695   4.813   3.524 -0.9642  0.0297  0.9217
21626SOL     OW67769   6.390   8.203   2.221  0.2127  1.0063  0.8582
21626SOL    HW167770   6.454   8.132   2.230 -0.9671 -0.1099  0.6959
21626SOL    HW267771   6.305   8.159   2.218 -0.4552  2.2646 -1.2067
21627SOL     OW67772   1.557   5.264   5.199  0.4641 -0.3256 -0.0890
21627SOL    HW167773   1.524   5.237   5.113  0.5746  0.3180 -0.3370
21627SOL    HW267774   1.642   5.303   5.181  0.6197 -0.4477  0.3536
21628SOL     OW67775   6.324   6.226   2.557  0.6044  0.0374 -0.1324
21628SOL    HW167776   6.310   6.247   2.649  0.1652  0.4114 -0.2802
21628SOL    HW267777   6.305   6.132   2.551  0.9034 -0.0454  0.2082
21629SOL     OW67778   5.034   0.846   2.486 -0.4395 -0.2696 -0.6538
21629SOL    HW167779   5.090   0.810   2.416 -2.1560 -0.2603 -2.1183
21629SOL    HW267780   4.954   0.793   2.481 -0.5005 -0.4333  1.5231
21630SOL     OW67781   4.084   4.660   4.399 -0.9395 -0.1052  0.2570
21630SOL    HW167782   4.174   4.676   4.369 -0.7696 -1.6501 -0.1403
21630SOL    HW267783   4.093   4.641   4.492 -1.2327  2.6593  0.9209
21631SOL     OW67784   6.603   6.535   5.258 -0.3478 -0.1518  0.0574
21631SOL    HW167785   6.682   6.530   5.204 -0.4174  0.0291 -0.0642
21631SOL    HW267786   6.591   6.447   5.292  1.6704  0.4286  2.5957
21632SOL     OW67787   2.953   7.161   2.936 -0.4693 -0.3552  0.4908
21632SOL    HW167788   2.882   7.194   2.991 -0.2386 -0.3985  0.8243
21632SOL    HW267789   2.983   7.237   2.887  0.9786  0.3079  2.2636
21633SOL     OW67790   4.682   0.648   9.158 -0.6726  0.7685  0.5539
21633SOL    HW167791   4.734   0.584   9.208  0.3603  1.0170 -0.1710
21633SOL    HW267792   4.684   0.616   9.068 -0.7421  1.4512  0.3055
21634SOL     OW67793   4.776   4.200   4.082 -0.0707 -0.3608  0.6440
21634SOL    HW167794   4.694   4.186   4.036  1.2020 -0.8836 -1.5781
21634SOL    HW267795   4.786   4.123   4.137 -0.4844 -0.8746  0.0098
21635SOL     OW67796   5.927   7.732   8.663  0.0511 -0.2795 -0.2786
21635SOL    HW167797   5.889   7.721   8.750 -0.7765 -1.1950 -0.7391
21635SOL    HW267798   5.898   7.818   8.635 -1.3382 -0.7789 -0.4378
21636SOL     OW67799   7.329   2.187   9.635 -0.1620 -0.1020  0.0214
21636SOL    HW167800   7.264   2.205   9.568  0.8322  1.0334 -0.6681
21636SOL    HW267801   7.339   2.269   9.683  1.7950  0.2107 -0.8294
21637SOL     OW67802   4.554   3.501   2.883 -0.4257 -0.3621  0.2119
21637SOL    HW167803   4.503   3.495   2.964 -0.4575  2.1862  0.4840
21637SOL    HW267804   4.491   3.532   2.818 -0.1882 -1.5023 -0.5830
21638SOL     OW67805   1.423   5.372   3.548  0.2528 -0.4330  0.5982
21638SOL    HW167806   1.477   5.388   3.626  0.7900 -1.0965  0.3672
21638SOL    HW267807   1.485   5.340   3.482  0.0644  1.4646 -0.5815
21639SOL     OW67808   5.560   7.166   3.897  0.1320  0.2201  0.2713
21639SOL    HW167809   5.501   7.105   3.942 -0.3787 -1.6355 -2.6219
21639SOL    HW267810   5.647   7.144   3.930 -0.4351  1.0730  2.5303
21640SOL     OW67811   8.482   9.461   5.721  0.6027  0.2099 -0.1514
21640SOL    HW167812   8.502   9.444   5.629 -1.2808 -0.5451 -0.4648
21640SOL    HW267813   8.409   9.523   5.719  0.3601 -0.0251  0.8350
21641SOL     OW67814   8.009   7.315   9.464 -0.6723  0.5669  0.6448
21641SOL    HW167815   8.060   7.317   9.545 -0.2071 -0.5028  0.3900
21641SOL    HW267816   8.025   7.401   9.424 -0.4983  0.9118  1.4247
21642SOL     OW67817   8.324   9.504   6.494  0.0357  0.5434 -0.3060
21642SOL    HW167818   8.315   9.578   6.553 -1.5703  0.9571 -1.0075
21642SOL    HW267819   8.360   9.541   6.414  0.2468  0.3620 -0.2972
21643SOL     OW67820   4.688   0.838   1.511 -0.0239  0.2192  0.1259
21643SOL    HW167821   4.748   0.817   1.440 -0.3640 -0.8928  0.1564
21643SOL    HW267822   4.602   0.845   1.468  0.0688  1.5770  0.1178
21644SOL     OW67823   4.275   0.377   7.736 -0.0955  0.3221 -0.5979
21644SOL    HW167824   4.271   0.455   7.792 -2.2392 -0.6505  0.7202
21644SOL    HW267825   4.280   0.412   7.647 -0.7557  1.9667 -0.0192
21645SOL     OW67826   0.612   0.261   1.635 -0.3308 -0.1263  0.0543
21645SOL    HW167827   0.686   0.205   1.657 -0.7229 -0.1970  1.2579
21645SOL    HW267828   0.535   0.210   1.661 -0.6821  1.1040  1.5539
21646SOL     OW67829   0.267   2.884   6.062  0.0635  0.3051 -1.0501
21646SOL    HW167830   0.209   2.830   6.008 -0.5326  1.4557 -1.5912
21646SOL    HW267831   0.216   2.901   6.142 -0.3286  1.2551 -1.4943
21647SOL     OW67832   2.118   7.327   7.163 -1.1205  0.4227  0.5150
21647SOL    HW167833   2.045   7.373   7.120 -2.8007 -0.3848  2.3535
21647SOL    HW267834   2.089   7.236   7.166  1.0596 -0.3768 -0.8224
21648SOL     OW67835   7.796   1.460   6.566  0.6935 -0.4439 -0.3791
21648SOL    HW167836   7.872   1.474   6.509  1.1571 -0.9658  0.1057
21648SOL    HW267837   7.788   1.365   6.573  1.1696 -0.3967  1.1139
21649SOL     OW67838   9.328   2.769   9.610 -0.1994  0.0246 -0.1290
21649SOL    HW167839   9.289   2.711   9.675 -1.7913  1.0109 -0.1270
21649SOL    HW267840   9.380   2.831   9.660  0.8965 -0.9041 -0.0719
21650SOL     OW67841   5.684   2.835   7.451  0.5460 -0.2328 -0.2853
21650SOL    HW167842   5.683   2.773   7.379  1.4992 -1.6524  0.8635
21650SOL    HW267843   5.644   2.914   7.415  0.3420 -1.1202 -2.1328
21651SOL     OW67844   7.510   7.608   2.693  1.0123  0.3068 -0.0041
21651SOL    HW167845   7.461   7.565   2.763  0.8626  0.5207  0.0259
21651SOL    HW267846   7.450   7.675   2.660  1.2396  0.4892 -0.0509
21652SOL     OW67847   0.867   4.244   5.467 -0.6401  0.2034  0.3108
21652SOL    HW167848   0.847   4.297   5.544 -0.3858 -0.4048  0.7984
21652SOL    HW267849   0.958   4.266   5.446 -0.4257 -0.2835  0.7150
21653SOL     OW67850   5.050   3.207   4.697 -0.3103  0.3621  0.2285
21653SOL    HW167851   5.139   3.175   4.690  0.2477  1.3947  2.0107
21653SOL    HW267852   5.006   3.143   4.754 -0.8449 -0.3397 -0.9299
21654SOL     OW67853   6.695   7.618   2.082 -0.3446 -0.4140  0.6128
21654SOL    HW167854   6.677   7.659   1.997  1.1962  1.8397  1.2896
21654SOL    HW267855   6.774   7.566   2.067 -0.6791 -0.8781  0.4334
21655SOL     OW67856   6.171   0.199   1.358  0.3122 -0.5585  0.4232
21655SOL    HW167857   6.126   0.232   1.437 -1.0631 -2.4305  0.5007
21655SOL    HW267858   6.232   0.133   1.391 -0.4052 -1.4860 -0.0683
21656SOL     OW67859   3.508   7.201   1.096 -0.2528 -0.2107  0.0783
21656SOL    HW167860   3.566   7.277   1.084 -2.2771  1.7414  1.6290
21656SOL    HW267861   3.497   7.165   1.009 -0.7751  2.5486 -1.0929
21657SOL     OW67862   5.016   1.968   5.156 -0.4244 -0.2288  0.3119
21657SOL    HW167863   4.998   2.059   5.179 -0.7656  0.1202 -1.2186
21657SOL    HW267864   4.938   1.920   5.183 -0.5106  0.0390  0.5397
21658SOL     OW67865   6.657   8.803   5.262 -0.1016  0.4535 -0.2213
21658SOL    HW167866   6.674   8.722   5.311  2.4754  0.0885 -1.5537
21658SOL    HW267867   6.686   8.873   5.322 -3.4525  0.6399  1.4268
21659SOL     OW67868   9.202   5.300   8.514  0.2950  0.0701  0.2249
21659SOL    HW167869   9.111   5.318   8.491  0.0519  0.6724  1.5689
21659SOL    HW267870   9.201   5.211   8.549  0.0505  0.3877  1.0498
21660SOL     OW67871   3.492   0.265   7.162  0.1767  0.3089  0.2368
21660SOL    HW167872   3.502   0.218   7.244 -0.9125 -0.8495 -0.2621
21660SOL    HW267873   3.486   0.357   7.187  1.1455  0.0931  1.3295
21661SOL     OW67874   5.264   0.561   0.376  0.1954  0.5920  0.1085
21661SOL    HW167875   5.338   0.508   0.405  1.0963  1.8413  0.1775
21661SOL    HW267876   5.210   0.501   0.324  2.4090  0.1714 -1.8561
21662SOL     OW67877   6.415   4.908   9.391 -0.8380  0.5721  0.1744
21662SOL    HW167878   6.375   4.935   9.474 -0.2567 -1.0243  1.0182
21662SOL    HW267879   6.476   4.838   9.416 -1.2678 -0.5301 -1.6992
21663SOL     OW67880   2.434   0.830   1.014 -0.1837 -0.2087 -0.2265
21663SOL    HW167881   2.375   0.765   1.050 -0.3364 -0.0143 -0.1244
21663SOL    HW267882   2.505   0.837   1.078  1.3705 -2.3918 -1.5746
21664SOL     OW67883   1.860   1.015   9.020  0.0292  0.3943 -0.5097
21664SOL    HW167884   1.872   1.106   8.993 -0.7885  0.3840 -0.9339
21664SOL    HW267885   1.831   0.970   8.940 -0.0822 -0.1327 -0.1757
21665SOL     OW67886   1.868   8.211   5.069 -0.1125 -0.0578 -0.4884
21665SOL    HW167887   1.896   8.292   5.025  0.5372  1.3738  2.3528
21665SOL    HW267888   1.950   8.168   5.094 -0.4638 -0.1832  0.4659
21666SOL     OW67889   8.294   6.418   2.575  0.1796  0.2067 -0.4043
21666SOL    HW167890   8.287   6.499   2.524  2.6569  0.1343 -0.9811
21666SOL    HW267891   8.298   6.448   2.666 -3.4930  0.3778 -0.1629
21667SOL     OW67892   0.657   1.394   2.524 -0.0316  0.1418 -0.1137
21667SOL    HW167893   0.712   1.316   2.519  0.3544  0.3362  0.8549
21667SOL    HW267894   0.601   1.390   2.447  0.7157 -0.5423 -0.6242
21668SOL     OW67895   7.615   1.714   1.923  0.7303  0.2973  0.0266
21668SOL    HW167896   7.579   1.648   1.984  0.5276 -0.1860 -0.6070
21668SOL    HW267897   7.627   1.666   1.841  1.4001  0.8437 -0.1958
21669SOL     OW67898   0.249   8.181   0.916 -0.0291  0.8927 -0.0915
21669SOL    HW167899   0.285   8.269   0.927  1.1003  0.3449  0.7903
21669SOL    HW267900   0.218   8.179   0.825  2.1542  1.4556 -0.9211
21670SOL     OW67901   3.510   5.642   1.703 -0.0528  0.6506 -0.6237
21670SOL    HW167902   3.531   5.571   1.764  0.6740 -0.0163 -1.6044
21670SOL    HW267903   3.592   5.659   1.657 -0.4745  1.4391 -1.1087
21671SOL     OW67904   0.167   6.944   3.672 -0.2847 -0.4476 -0.1480
21671SOL    HW167905   0.178   7.031   3.636  0.4447 -0.2457  0.5408
21671SOL    HW267906   0.208   6.948   3.759  0.8484 -1.7970 -0.5796
21672SOL     OW67907   7.949   6.492   2.475  0.5409  0.1295  1.0641
21672SOL    HW167908   7.941   6.416   2.418  1.2941  0.2526  0.7877
21672SOL    HW267909   7.936   6.458   2.563  1.7841 -0.4769  1.0267
21673SOL     OW67910   2.267   8.641   2.472 -0.3622  0.2931 -0.4186
21673SOL    HW167911   2.344   8.682   2.509  1.0633 -0.1978 -2.6757
21673SOL    HW267912   2.230   8.706   2.413 -1.9147  0.6292  0.8235
21674SOL     OW67913   7.160   3.876   2.635 -0.5469 -0.6391  0.2116
21674SOL    HW167914   7.131   3.958   2.596  1.0972  1.0717  2.3373
21674SOL    HW267915   7.226   3.842   2.575  0.9845  1.2478  0.7321
21675SOL     OW67916   4.567   8.255   4.099  0.1152 -0.4198  0.2024
21675SOL    HW167917   4.655   8.218   4.096 -0.3005 -1.4001 -0.5041
21675SOL    HW267918   4.509   8.178   4.101 -0.8219  0.1415 -2.1960
21676SOL     OW67919   3.483   8.858   3.953 -0.2814  0.5313  0.5106
21676SOL    HW167920   3.461   8.777   3.999 -2.7805  0.8965  0.1207
21676SOL    HW267921   3.463   8.841   3.861 -1.1697  1.6545  0.4670
21677SOL     OW67922   4.379   1.270   5.955 -0.2585  0.1709 -0.1409
21677SOL    HW167923   4.328   1.340   5.915 -0.2828 -0.7450 -1.7985
21677SOL    HW267924   4.329   1.190   5.935 -0.0588 -0.3832  1.4132
21678SOL     OW67925   5.315   5.392   6.099 -0.7736 -0.0703  0.5179
21678SOL    HW167926   5.385   5.397   6.034  0.0451 -0.2838  1.3512
21678SOL    HW267927   5.308   5.481   6.133  0.1072 -0.3298  1.4385
21679SOL     OW67928   8.003   8.844   6.498 -0.2078 -0.1341 -0.7126
21679SOL    HW167929   8.031   8.935   6.495 -0.2184  0.0408  2.1095
21679SOL    HW267930   7.910   8.847   6.473 -0.5039  0.8028  0.4130
21680SOL     OW67931   3.204   1.160   1.243 -0.6127 -0.5338  0.2180
21680SOL    HW167932   3.171   1.109   1.317 -3.2383  0.2012 -0.3316
21680SOL    HW267933   3.150   1.240   1.243  2.3202  1.6063  0.1415
21681SOL     OW67934   6.723   9.144   7.768  0.3969  0.2279  0.2309
21681SOL    HW167935   6.733   9.177   7.857  3.7050  0.4776 -0.1408
21681SOL    HW267936   6.794   9.184   7.719  0.7060 -2.4633 -1.7502
21682SOL     OW67937   1.896   9.089   6.208 -0.2300 -0.6307 -0.6136
21682SOL    HW167938   1.897   9.177   6.245 -0.8795 -0.7243 -0.3470
21682SOL    HW267939   1.845   9.037   6.271 -2.2493 -0.5722 -2.0732
21683SOL     OW67940   1.281   3.142   2.798 -0.0654  1.0755  0.5437
21683SOL    HW167941   1.316   3.064   2.841  1.5511 -0.3318 -2.9367
21683SOL    HW267942   1.355   3.203   2.795 -0.1642  1.1785 -0.0760
21684SOL     OW67943   5.061   0.154   5.663 -0.2795  0.5231 -0.2674
21684SOL    HW167944   5.104   0.075   5.629 -0.6400  0.0806  0.2856
21684SOL    HW267945   5.012   0.189   5.588 -0.5995 -0.1171 -0.3673
21685SOL     OW67946   2.581   2.367   3.457  0.5932  0.4639  0.0134
21685SOL    HW167947   2.646   2.376   3.527  1.4843 -1.7557 -0.4656
21685SOL    HW267948   2.628   2.325   3.385 -1.2460 -0.7760 -0.5283
21686SOL     OW67949   4.876   7.861   4.846  0.0198  0.1167 -0.2582
21686SOL    HW167950   4.872   7.955   4.860 -0.1240  0.1964 -0.8245
21686SOL    HW267951   4.933   7.850   4.770  0.7665 -0.3075  0.3543
21687SOL     OW67952   8.678   6.054   8.400 -0.1231 -0.8026  0.0358
21687SOL    HW167953   8.684   6.054   8.495 -0.1509  1.2943  0.0868
21687SOL    HW267954   8.753   6.106   8.370 -0.4859 -0.8471 -1.0291
21688SOL     OW67955   3.660   1.023   3.757  0.2879  0.3197  0.1264
21688SOL    HW167956   3.627   1.006   3.669  0.6402  3.3615 -0.7165
21688SOL    HW267957   3.755   1.027   3.747  0.4987 -1.3701  1.1225
21689SOL     OW67958   5.981   7.694   0.195  0.3557  0.3446 -0.4108
21689SOL    HW167959   6.051   7.755   0.171  0.8869 -0.0404  0.1233
21689SOL    HW267960   6.000   7.672   0.286 -2.3645  2.8570  0.9099
21690SOL     OW67961   4.387   5.131   8.361  0.1605 -0.0628  0.0110
21690SOL    HW167962   4.449   5.191   8.402  0.7540 -0.9709  0.4660
21690SOL    HW267963   4.319   5.188   8.325 -0.2426  0.7738  2.0018
21691SOL     OW67964   2.474   5.859   1.854 -0.0824  0.3173  0.1990
21691SOL    HW167965   2.504   5.798   1.922 -1.1557  1.4787  1.7964
21691SOL    HW267966   2.405   5.812   1.808 -0.4687  0.0649  1.0088
21692SOL     OW67967   3.034   6.579   3.867 -0.0196  0.0467 -0.0579
21692SOL    HW167968   2.980   6.649   3.903 -0.4007 -0.0523 -0.4286
21692SOL    HW267969   3.039   6.598   3.774  1.8182  0.8788  0.1640
21693SOL     OW67970   3.200   3.139   5.694  0.3739 -0.2932  0.1014
21693SOL    HW167971   3.287   3.144   5.734  0.3735  1.8867 -0.0860
21693SOL    HW267972   3.140   3.159   5.766  0.2497  1.4358 -0.4446
21694SOL     OW67973   6.794   5.177   6.518 -0.0580  0.1683  0.6224
21694SOL    HW167974   6.762   5.127   6.443  0.4659 -1.6266  1.5383
21694SOL    HW267975   6.727   5.166   6.585  0.7244 -0.5066  1.3112
21695SOL     OW67976   3.521   0.830   6.595 -0.9710  0.1546  0.3700
21695SOL    HW167977   3.513   0.736   6.578  0.4293  0.5724 -3.5672
21695SOL    HW267978   3.454   0.871   6.540  0.7536  1.5353 -0.8477
21696SOL     OW67979   7.464   9.498   3.287  0.3272  0.0272 -0.3083
21696SOL    HW167980   7.475   9.592   3.305 -0.8896 -0.1619  1.7057
21696SOL    HW267981   7.386   9.494   3.232 -0.2727  0.1322  0.5256
21697SOL     OW67982   7.810   7.624   3.935 -0.1200 -0.3500  0.1832
21697SOL    HW167983   7.743   7.668   3.882 -0.2394 -0.6487  0.0843
21697SOL    HW267984   7.802   7.665   4.021 -0.2710 -0.2164  0.1069
21698SOL     OW67985   0.223   3.930   0.423 -0.4274 -0.1177  0.0315
21698SOL    HW167986   0.260   3.952   0.509 -0.4556 -0.5803  0.1671
21698SOL    HW267987   0.244   3.837   0.411 -0.0445  0.0487 -0.6572
21699SOL     OW67988   8.238   8.302   2.915  0.3134  0.5636 -0.7599
21699SOL    HW167989   8.215   8.249   2.991 -0.4501  0.5684 -0.9799
21699SOL    HW267990   8.286   8.242   2.857 -1.3716 -0.1853 -1.4417
21700SOL     OW67991   7.346   8.694   8.125 -0.3694  0.3134  0.2613
21700SOL    HW167992   7.385   8.666   8.043  0.4731 -0.7206  0.9806
21700SOL    HW267993   7.253   8.671   8.117  0.1971 -2.5854  0.6711
21701SOL     OW67994   0.052   7.026   7.371 -0.6274  0.4092 -0.2194
21701SOL    HW167995  -0.016   7.089   7.393 -0.1998  0.5618  0.7207
21701SOL    HW267996   0.052   6.964   7.444  0.1424  0.3340 -0.2683
21702SOL     OW67997   0.925   7.056   5.997 -0.3518 -0.5053 -0.1936
21702SOL    HW167998   0.836   7.068   5.962 -0.2268  1.1790  0.0060
21702SOL    HW267999   0.915   7.073   6.091 -0.3599 -3.3325  0.4202
21703SOL     OW68000   1.672   2.934   2.333 -0.3419  0.4303  0.4132
21703SOL    HW168001   1.675   2.924   2.428 -2.4794 -0.1401  0.4694
21703SOL    HW268002   1.756   2.898   2.303 -0.0864 -0.4231  2.0035
21704SOL     OW68003   0.951   1.809   5.607 -0.3701  0.4732 -0.0504
21704SOL    HW168004   1.039   1.778   5.585 -0.3935 -0.1850  0.7280
21704SOL    HW268005   0.903   1.805   5.524 -0.1508 -0.9070 -0.1341
21705SOL     OW68006   8.004   8.202   3.344 -0.5585 -0.3266  0.2651
21705SOL    HW168007   8.034   8.122   3.387 -0.8162 -0.7135 -0.2608
21705SOL    HW268008   7.913   8.184   3.320 -0.0301 -0.6433 -1.6516
21706SOL     OW68009   9.172   8.689   4.929  0.4670  0.6210 -0.0040
21706SOL    HW168010   9.081   8.711   4.907  0.6107  0.0868 -1.1902
21706SOL    HW268011   9.167   8.658   5.020 -1.3832 -3.8913 -1.3783
21707SOL     OW68012   2.534   3.569   4.053  0.2397 -0.6569 -0.1948
21707SOL    HW168013   2.516   3.661   4.038 -1.4664 -1.1738 -1.7923
21707SOL    HW268014   2.629   3.562   4.059  0.3502  1.3586  1.4241
21708SOL     OW68015   8.995   7.631   1.765 -0.8973  0.4509 -0.1039
21708SOL    HW168016   8.999   7.536   1.755  0.9024  0.2887  1.4860
21708SOL    HW268017   9.084   7.656   1.790 -1.7615  2.3358  1.3350
21709SOL     OW68018   6.322   0.178   9.186  0.3230 -0.2722  0.5672
21709SOL    HW168019   6.333   0.175   9.281  0.9637 -0.7584  0.4838
21709SOL    HW268020   6.389   0.239   9.156 -0.3970  0.4949  0.4951
21710SOL     OW68021   5.570   5.612   2.830  0.6606 -0.4237  0.3117
21710SOL    HW168022   5.494   5.555   2.825 -0.2511  0.7243  0.5817
21710SOL    HW268023   5.645   5.555   2.811 -0.4016 -1.2343 -1.7432
21711SOL     OW68024   7.587   0.974   8.597 -0.3272  0.2716 -0.4603
21711SOL    HW168025   7.548   0.899   8.642 -0.0652 -0.7855 -1.9105
21711SOL    HW268026   7.545   0.974   8.511  0.3594  1.2384 -0.8036
21712SOL     OW68027   1.422   4.635   8.836 -0.1988  0.4845  0.7514
21712SOL    HW168028   1.512   4.603   8.834 -0.3305  0.1516 -1.5186
21712SOL    HW268029   1.430   4.729   8.822 -0.2342  0.2871 -0.7505
21713SOL     OW68030   4.316   4.327   6.824  0.5977 -0.3192  0.5815
21713SOL    HW168031   4.285   4.270   6.754  0.1234  1.0756 -0.3816
21713SOL    HW268032   4.317   4.271   6.902 -0.5890 -1.4224 -0.1643
21714SOL     OW68033   5.581   2.030   3.307  0.3119  0.3885 -0.0979
21714SOL    HW168034   5.667   2.071   3.303  0.5283 -0.1721 -1.6259
21714SOL    HW268035   5.527   2.093   3.355  1.5067  0.8271  0.7271
21715SOL     OW68036   4.052   3.209   5.478 -0.4937 -0.0114 -0.3237
21715SOL    HW168037   4.012   3.264   5.545 -0.9388 -1.7087  0.8786
21715SOL    HW268038   3.984   3.198   5.412 -0.8401 -0.0986  0.0400
21716SOL     OW68039   5.744   0.788   4.322 -1.0894 -0.1595 -0.7888
21716SOL    HW168040   5.826   0.838   4.329 -1.2291 -0.1427  1.9076
21716SOL    HW268041   5.751   0.742   4.238  1.9832 -0.6525 -0.3898
21717SOL     OW68042   2.168   0.864   6.531 -0.3266  0.3343 -0.1690
21717SOL    HW168043   2.083   0.823   6.510  0.0892 -0.7329  0.1720
21717SOL    HW268044   2.158   0.955   6.502 -1.6702  0.2876  0.0844
21718SOL     OW68045   1.068   3.174   0.510 -0.7159 -0.2293  0.5410
21718SOL    HW168046   1.115   3.245   0.552  0.2055  0.0314 -0.8489
21718SOL    HW268047   0.989   3.162   0.562  0.0145  0.5581  1.8643
21719SOL     OW68048   7.933   5.204   0.671 -0.2796 -0.6832 -0.0446
21719SOL    HW168049   8.012   5.224   0.720  0.9208 -1.1201 -1.7207
21719SOL    HW268050   7.894   5.130   0.717  0.7692 -1.0380  0.3002
21720SOL     OW68051   0.955   4.473   1.439  0.5083  0.6771  0.0405
21720SOL    HW168052   1.008   4.425   1.503  0.6670  0.5515 -0.1859
21720SOL    HW268053   0.969   4.565   1.461 -1.1077  0.6098  1.5470
21721SOL     OW68054   2.114   8.864   1.735 -0.1887  0.2869  0.1457
21721SOL    HW168055   2.058   8.935   1.703 -0.6117  0.0124  0.2602
21721SOL    HW268056   2.055   8.790   1.743  0.0252  0.2126  1.0758
21722SOL     OW68057   8.060   1.784   3.289 -0.2118 -0.1564 -0.4106
21722SOL    HW168058   8.001   1.785   3.365  1.2327  1.0630  0.7539
21722SOL    HW268059   8.148   1.784   3.326  0.5442  0.9444 -2.0604
21723SOL     OW68060   4.669   3.506   5.103 -0.1053 -0.3693  0.0142
21723SOL    HW168061   4.701   3.416   5.108 -0.1134 -0.3633  0.1704
21723SOL    HW268062   4.689   3.544   5.189  0.1253 -0.1449 -0.1370
21724SOL     OW68063   3.526   7.341   1.874  0.2790  0.2357 -0.1268
21724SOL    HW168064   3.591   7.336   1.943 -0.1617  1.1309  0.3637
21724SOL    HW268065   3.466   7.410   1.901 -1.4410 -1.1889 -0.0926
21725SOL     OW68066   6.151   5.744   9.383  0.3343 -0.0336  0.0060
21725SOL    HW168067   6.095   5.821   9.376  2.3797  1.4841 -0.5245
21725SOL    HW268068   6.125   5.689   9.308 -0.8896  0.2747  0.1783
21726SOL     OW68069   3.934   1.403   4.255 -0.0750  0.0893  0.4760
21726SOL    HW168070   4.007   1.460   4.281 -1.1586  1.9074 -0.2804
21726SOL    HW268071   3.871   1.412   4.326 -1.0616  1.4147 -0.5120
21727SOL     OW68072   6.782   1.450   8.704 -0.0285 -0.4398 -0.6227
21727SOL    HW168073   6.837   1.528   8.713 -0.7979 -0.0903  1.7396
21727SOL    HW268074   6.694   1.485   8.687 -0.3218 -0.7781  0.1503
21728SOL     OW68075   1.786   0.155   6.346  0.3470  0.7462  0.6317
21728SOL    HW168076   1.861   0.131   6.400 -0.4033  2.3384  2.4923
21728SOL    HW268077   1.721   0.087   6.366  0.3102  0.9506  1.2401
21729SOL     OW68078   2.816   1.056   4.112  0.3047  0.1095  0.6166
21729SOL    HW168079   2.801   0.965   4.137 -1.2845  0.1362 -0.1348
21729SOL    HW268080   2.840   1.100   4.194  2.5144 -1.2113  0.7632
21730SOL     OW68081   2.690   0.361   6.170 -0.0960 -0.2868 -0.4341
21730SOL    HW168082   2.664   0.440   6.123 -1.2382 -0.6805 -0.5052
21730SOL    HW268083   2.760   0.389   6.228  1.4320  0.1837 -2.4229
21731SOL     OW68084   7.788   1.263   0.584  0.3526 -0.0682 -0.1849
21731SOL    HW168085   7.810   1.295   0.672 -1.5286  2.3633 -0.4953
21731SOL    HW268086   7.720   1.197   0.599  1.1133 -0.7809  0.2259
21732SOL     OW68087   8.859   8.194   8.874  0.2871  0.5288  0.3521
21732SOL    HW168088   8.833   8.131   8.941 -0.7696 -1.6086 -1.9009
21732SOL    HW268089   8.934   8.153   8.830 -0.8472  0.3916 -1.6038
21733SOL     OW68090   6.208   4.474   8.055  0.4144  0.1993 -0.4690
21733SOL    HW168091   6.134   4.430   8.097 -0.1015  1.3451 -0.1345
21733SOL    HW268092   6.285   4.436   8.096 -0.0372  0.0724  0.2777
21734SOL     OW68093   5.103   3.841   6.902 -0.5041 -0.7054  1.0579
21734SOL    HW168094   5.048   3.918   6.883  1.4107  0.7184  0.9309
21734SOL    HW268095   5.140   3.817   6.817 -0.1586 -1.0175  1.2976
21735SOL     OW68096   4.389   1.477   2.217  0.5895  0.4247  0.2387
21735SOL    HW168097   4.439   1.401   2.188  2.3478  1.2814  0.8759
21735SOL    HW268098   4.353   1.452   2.302  0.5290  0.0645  0.1098
21736SOL     OW68099   7.100   3.870   7.487  0.7654 -0.2330 -0.3742
21736SOL    HW168100   7.118   3.817   7.564 -1.3884  0.0543  0.3841
21736SOL    HW268101   7.134   3.957   7.509 -2.5274  0.7245  1.6822
21737SOL     OW68102   4.200   8.720   3.578 -0.0422 -0.0241 -0.4841
21737SOL    HW168103   4.218   8.765   3.495  0.0573 -1.3458 -1.1983
21737SOL    HW268104   4.151   8.642   3.553  1.1803 -1.1611  0.5413
21738SOL     OW68105   6.687   9.547   4.603  0.3630 -0.6329  0.1524
21738SOL    HW168106   6.653   9.504   4.681 -0.9321  1.8994  1.1262
21738SOL    HW268107   6.653   9.637   4.609  0.2578 -0.3050 -3.3126
21739SOL     OW68108   0.393   5.455   8.990  0.1295  0.1390 -0.3106
21739SOL    HW168109   0.305   5.458   8.953 -0.0814 -1.2767  0.0191
21739SOL    HW268110   0.383   5.490   9.079 -0.6664 -2.3842  0.6795
21740SOL     OW68111   1.023   6.040   9.203  0.3940  0.2943  0.1806
21740SOL    HW168112   1.007   6.133   9.191 -0.2478  0.1055 -0.5049
21740SOL    HW268113   1.111   6.026   9.168  0.2537  0.5360 -0.2750
21741SOL     OW68114   2.612   6.265   9.456 -0.5109 -0.1738  0.3557
21741SOL    HW168115   2.619   6.294   9.547 -0.5632 -1.5137  0.8157
21741SOL    HW268116   2.527   6.296   9.427 -0.3020  0.6608  0.6071
21742SOL     OW68117   1.170   7.057   0.851  0.2776  0.4821 -0.7410
21742SOL    HW168118   1.195   6.966   0.832 -0.2317  0.3697 -0.8904
21742SOL    HW268119   1.194   7.070   0.943  2.3477  0.8802 -1.2826
21743SOL     OW68120   6.670   6.496   1.566  0.0784 -0.2058 -0.1162
21743SOL    HW168121   6.666   6.469   1.475  0.4511  0.2702 -0.2767
21743SOL    HW268122   6.580   6.516   1.590  0.0573  0.2029 -0.5407
21744SOL     OW68123   6.896   6.352   2.170  0.0281 -0.6610 -0.2108
21744SOL    HW168124   6.850   6.283   2.218  2.1745 -0.4871  2.3038
21744SOL    HW268125   6.920   6.311   2.087  4.5066 -4.5252  2.5074
21745SOL     OW68126   6.770   6.420   8.385 -0.1120 -0.0355 -0.1134
21745SOL    HW168127   6.753   6.392   8.295  0.7130  0.3824 -0.4174
21745SOL    HW268128   6.763   6.340   8.436 -0.6432 -0.2699 -0.5374
21746SOL     OW68129   1.454   9.543   0.222  0.0739 -0.3738 -0.3480
21746SOL    HW168130   1.392   9.484   0.179  0.2530  0.1065 -1.2936
21746SOL    HW268131   1.432   9.630   0.190 -0.3662  0.1366  1.2595
21747SOL     OW68132   7.260   4.176   6.915 -0.3506 -0.0025  0.0344
21747SOL    HW168133   7.343   4.132   6.928 -0.3452  0.1226  0.4301
21747SOL    HW268134   7.230   4.199   7.003 -1.6369 -1.5686  0.0458
21748SOL     OW68135   3.243   1.853   0.485  0.3219 -0.1254  0.4069
21748SOL    HW168136   3.267   1.926   0.427  0.3485 -0.1243  0.4191
21748SOL    HW268137   3.320   1.797   0.485  0.0150 -0.5616 -0.2294
21749SOL     OW68138   7.667   1.222   6.258 -0.6080  0.4823  0.1078
21749SOL    HW168139   7.735   1.185   6.201 -0.8191 -2.0738  1.3952
21749SOL    HW268140   7.667   1.315   6.237  0.2071 -0.1226 -3.1117
21750SOL     OW68141   0.555   0.410   9.461 -0.3613  0.0195  0.6338
21750SOL    HW168142   0.647   0.424   9.484 -0.2354  1.2790 -0.5109
21750SOL    HW268143   0.555   0.329   9.410  0.1459  0.0616  0.5611
21751SOL     OW68144   4.973   5.574   3.258  0.0429 -0.0938 -0.2505
21751SOL    HW168145   5.055   5.625   3.261 -0.1801  0.2189  1.5133
21751SOL    HW268146   4.916   5.625   3.201  0.8828 -0.0546 -1.0999
21752SOL     OW68147   8.814   0.312   1.585  0.4080 -0.7789  0.0927
21752SOL    HW168148   8.781   0.225   1.562 -0.7823  0.0919 -1.7011
21752SOL    HW268149   8.845   0.348   1.502  2.3240 -0.0375  1.0614
21753SOL     OW68150   5.894   2.755   5.878 -0.2114 -0.0064 -0.1024
21753SOL    HW168151   5.848   2.719   5.802 -0.0227  0.5988 -0.5075
21753SOL    HW268152   5.957   2.687   5.902 -1.4573 -0.9594  0.6180
21754SOL     OW68153   9.244   6.961   8.715  0.4115 -0.1403 -0.2222
21754SOL    HW168154   9.247   7.051   8.750  0.6459  0.0634 -0.7555
21754SOL    HW268155   9.170   6.920   8.760 -0.9412  0.9173 -1.3971
21755SOL     OW68156   0.028   1.639   4.592 -0.4631 -0.0747 -0.1935
21755SOL    HW168157   0.064   1.681   4.514  0.1221  0.0983  0.1628
21755SOL    HW268158   0.065   1.688   4.665 -0.6706 -0.5007  0.2030
21756SOL     OW68159   9.066   7.972   3.797  0.3035 -0.0846  0.4532
21756SOL    HW168160   9.024   8.030   3.734  0.4473 -0.7165 -0.2346
21756SOL    HW268161   9.103   7.901   3.745  1.3360 -0.0842  1.1422
21757SOL     OW68162   0.443   1.829   2.103 -0.4603 -0.2028  0.3310
21757SOL    HW168163   0.442   1.913   2.057  0.1733 -1.9011 -3.0526
21757SOL    HW268164   0.526   1.789   2.079 -2.3987 -3.5006 -1.7029
21758SOL     OW68165   3.474   8.005   2.193 -0.3336  0.4349 -0.0899
21758SOL    HW168166   3.389   8.047   2.207 -1.1071 -0.8547 -0.7887
21758SOL    HW268167   3.475   7.983   2.100  1.6497  2.2586 -0.5861
21759SOL     OW68168   6.317   8.442   7.989 -0.5892 -0.0328 -0.1376
21759SOL    HW168169   6.325   8.482   7.902  1.1189  0.9250  0.4251
21759SOL    HW268170   6.272   8.508   8.042  0.4027  0.3414  0.2646
21760SOL     OW68171   2.146   5.501   5.453 -0.4198  0.4866 -0.0542
21760SOL    HW168172   2.060   5.459   5.450 -0.5600  0.8013 -0.8435
21760SOL    HW268173   2.150   5.542   5.539 -0.3277 -1.0228  0.6907
21761SOL     OW68174   5.185   9.587   6.771 -0.3868  0.3423 -0.2558
21761SOL    HW168175   5.257   9.554   6.825 -0.5732  1.7591  0.9171
21761SOL    HW268176   5.228   9.624   6.694  0.1772  1.1815  0.4378
21762SOL     OW68177   0.200   7.084   4.683  0.0585 -0.1674  0.5317
21762SOL    HW168178   0.128   7.139   4.714 -1.3917 -1.4913 -0.3898
21762SOL    HW268179   0.275   7.144   4.676 -1.6350  1.8781 -1.1626
21763SOL     OW68180   5.053   3.123   5.969  0.3421  0.6127  0.0934
21763SOL    HW168181   5.074   3.216   5.959  0.8923  0.5424  0.5389
21763SOL    HW268182   4.957   3.121   5.972  0.2913  1.0625 -0.8106
21764SOL     OW68183   1.599   8.234   3.022 -0.2393  0.0905  0.5100
21764SOL    HW168184   1.610   8.301   3.090  1.4587 -0.0449  0.4073
21764SOL    HW268185   1.619   8.151   3.066 -1.2659 -0.2548  0.3588
21765SOL     OW68186   0.345   2.155   3.006  0.4493 -0.4172 -0.4129
21765SOL    HW168187   0.299   2.075   2.979  0.8782 -0.3015 -1.5253
21765SOL    HW268188   0.296   2.186   3.081 -0.4192 -1.1007 -0.6787
21766SOL     OW68189   9.075   8.808   4.246 -0.5063  0.3790 -0.8412
21766SOL    HW168190   9.047   8.795   4.155 -5.0012  0.2489  0.3056
21766SOL    HW268191   9.040   8.894   4.269  0.8920  0.5801  0.7228
21767SOL     OW68192   0.293   4.071   0.637 -0.5890  0.1598  0.2289
21767SOL    HW168193   0.287   4.165   0.652 -1.7055  0.2790 -0.8122
21767SOL    HW268194   0.242   4.032   0.709 -1.4036  0.4472 -0.1757
21768SOL     OW68195   5.365   1.655   7.674  0.4030  0.3262 -0.0638
21768SOL    HW168196   5.346   1.664   7.767 -0.4019 -0.9391 -0.0754
21768SOL    HW268197   5.339   1.739   7.636  0.4289  0.7353  0.8079
21769SOL     OW68198   7.511   8.934   8.676 -0.1964  0.1128 -0.5850
21769SOL    HW168199   7.572   8.980   8.734 -0.1151  0.2604 -0.7870
21769SOL    HW268200   7.549   8.847   8.665  0.9762  0.7617 -2.1956
21770SOL     OW68201   8.009   4.371   6.718 -0.0363 -0.1709 -0.0534
21770SOL    HW168202   8.004   4.276   6.730 -0.0643 -0.1239  0.3069
21770SOL    HW268203   8.102   4.392   6.731 -0.3369  0.1219  1.9448
21771SOL     OW68204   9.279   5.096   2.536  0.2405  0.6444  0.1393
21771SOL    HW168205   9.372   5.080   2.518 -0.1773 -2.0546  0.0093
21771SOL    HW268206   9.235   5.078   2.453 -0.5870 -0.3102  0.7627
21772SOL     OW68207   7.538   3.625   0.513 -0.1777 -0.2002 -0.1357
21772SOL    HW168208   7.456   3.595   0.552 -1.3102  0.4571 -1.8808
21772SOL    HW268209   7.581   3.545   0.484 -1.2761 -0.4421 -1.1800
21773SOL     OW68210   4.170   8.836   5.527 -0.0845 -0.5306 -0.3538
21773SOL    HW168211   4.193   8.879   5.444 -0.1996  0.1178 -0.0568
21773SOL    HW268212   4.250   8.791   5.554  0.7226  1.2500  0.3953
21774SOL     OW68213   4.558   6.105   1.510  0.2031  0.1966 -0.4415
21774SOL    HW168214   4.619   6.035   1.531  0.4588  0.4071 -0.4791
21774SOL    HW268215   4.595   6.183   1.552  0.2954  0.4530 -0.9885
21775SOL     OW68216   4.000   6.481   2.597  0.2310  0.1032 -0.6341
21775SOL    HW168217   4.052   6.513   2.671 -0.6294  0.7084 -0.2747
21775SOL    HW268218   3.938   6.420   2.636 -1.3343  1.6480 -0.5386
21776SOL     OW68219   6.962   2.977   0.087  0.2592 -0.1609 -0.0850
21776SOL    HW168220   6.967   3.056   0.140  0.6698 -1.2109  1.5246
21776SOL    HW268221   7.033   2.985   0.024  1.3482  0.0556  1.1158
21777SOL     OW68222   3.055   9.475   5.727 -0.3095 -0.0330 -0.1440
21777SOL    HW168223   3.030   9.487   5.819  0.5252  1.3598 -0.0745
21777SOL    HW268224   3.141   9.433   5.730  0.2977  1.1489 -0.2296
21778SOL     OW68225   4.845   9.544   5.440 -0.2840 -0.3911  0.0910
21778SOL    HW168226   4.866   9.464   5.490  1.7517  0.7505  1.1809
21778SOL    HW268227   4.906   9.543   5.366 -0.8419 -0.2524 -0.3807
21779SOL     OW68228   2.234   0.894   3.397  0.0591  0.2554 -0.0808
21779SOL    HW168229   2.199   0.951   3.466 -0.1864  0.4833 -0.3952
21779SOL    HW268230   2.320   0.867   3.430 -0.3645 -0.2302  0.6576
21780SOL     OW68231   4.806   1.200   4.980 -0.1773 -0.1934  0.1751
21780SOL    HW168232   4.793   1.182   5.073  0.1067 -0.6438  0.1309
21780SOL    HW268233   4.900   1.212   4.971 -0.1236 -0.8422 -0.1723
21781SOL     OW68234   5.294   1.355   8.981 -0.3458 -1.2814 -0.0527
21781SOL    HW168235   5.274   1.402   9.062  0.6196 -0.9536  0.0059
21781SOL    HW268236   5.386   1.374   8.964 -0.6827 -0.8426 -1.5620
21782SOL     OW68237   4.053   4.516   2.988  1.0881  0.0447 -0.0371
21782SOL    HW168238   4.030   4.608   3.003  0.1932 -0.3326  1.0615
21782SOL    HW268239   4.107   4.517   2.909  1.6776  1.5874  0.3552
21783SOL     OW68240   8.404   0.383   0.277 -0.3199 -0.1837 -0.3948
21783SOL    HW168241   8.358   0.463   0.301  0.7785  0.8192 -1.5015
21783SOL    HW268242   8.415   0.389   0.182 -1.7563 -2.5061 -0.7908
21784SOL     OW68243   9.156   1.371   1.924  0.5984 -0.1774 -0.1001
21784SOL    HW168244   9.232   1.373   1.866  0.1079  0.5331 -0.7406
21784SOL    HW268245   9.081   1.389   1.867 -0.0981 -1.1099  0.4683
21785SOL     OW68246   1.495   1.563   6.134  0.5950  0.2547 -0.0518
21785SOL    HW168247   1.507   1.473   6.163  1.0852  0.3635  0.0891
21785SOL    HW268248   1.482   1.557   6.039 -0.4414 -0.0524  0.1018
21786SOL     OW68249   1.783   5.939   1.959 -0.3892  0.3082  0.5018
21786SOL    HW168250   1.794   5.873   1.890  0.7773  2.1499 -1.1732
21786SOL    HW268251   1.847   5.914   2.026 -3.1160 -2.8738  2.2400
21787SOL     OW68252   1.003   9.395   3.724  0.5185  0.2436 -0.5530
21787SOL    HW168253   1.044   9.312   3.748  0.1969  0.4292  0.7363
21787SOL    HW268254   0.915   9.371   3.694  0.5054  0.1014 -0.3998
21788SOL     OW68255   9.614   6.199   6.169 -0.2715  0.0446  0.4291
21788SOL    HW168256   9.618   6.105   6.154 -0.2305  0.1475 -0.2296
21788SOL    HW268257   9.534   6.213   6.219 -1.0932 -0.1674 -0.8117
21789SOL     OW68258   5.543   4.805   5.250 -0.2568 -0.1302  0.1388
21789SOL    HW168259   5.536   4.774   5.160 -2.1780  0.1807  0.1421
21789SOL    HW268260   5.551   4.725   5.303 -1.2575 -0.4312 -0.1543
21790SOL     OW68261   5.568   3.229   2.752 -0.3864 -0.4120 -0.1118
21790SOL    HW168262   5.638   3.164   2.750 -1.2803 -1.3668 -0.6066
21790SOL    HW268263   5.501   3.195   2.694 -1.0543  0.7523 -0.0532
21791SOL     OW68264   1.061   1.973   7.285 -0.7888 -0.0059  0.2734
21791SOL    HW168265   0.979   1.994   7.329 -1.1029 -1.2068  0.2815
21791SOL    HW268266   1.043   1.988   7.192 -1.3459 -1.2392  0.1691
21792SOL     OW68267   9.032   3.373   8.106 -0.2759  0.1327  0.3844
21792SOL    HW168268   9.111   3.412   8.070  0.2262 -0.0474  1.2842
21792SOL    HW268269   8.980   3.448   8.135 -0.9228  0.3207 -1.1257
21793SOL     OW68270   5.303   5.066   9.369  0.2020 -0.6561 -0.3864
21793SOL    HW168271   5.318   4.972   9.366  1.0209 -0.6404  1.5237
21793SOL    HW268272   5.384   5.102   9.406 -0.9104  0.5305  1.0531
21794SOL     OW68273   8.457   8.012   5.730  0.0491  0.2716 -0.1354
21794SOL    HW168274   8.440   7.933   5.781 -0.5433  1.0071  0.8390
21794SOL    HW268275   8.552   8.016   5.723  0.1374  0.1308  0.8729
21795SOL     OW68276   2.959   1.390   2.629 -0.1292  0.3408 -0.5390
21795SOL    HW168277   2.896   1.380   2.700 -0.2643 -0.0059 -0.7043
21795SOL    HW268278   2.908   1.429   2.557  0.0698  0.9418 -0.3596
21796SOL     OW68279   8.174   2.176   5.611  0.8460  0.5451  0.1157
21796SOL    HW168280   8.225   2.102   5.646  0.1670  0.1608  0.2978
21796SOL    HW268281   8.233   2.251   5.619  1.3622  0.1201  0.3928
21797SOL     OW68282   5.025   5.743   0.304  0.2230  0.1150 -0.3474
21797SOL    HW168283   5.007   5.781   0.390  2.4564 -0.3349  0.3681
21797SOL    HW268284   5.048   5.818   0.249  0.0038  0.2707 -0.2286
21798SOL     OW68285   9.117   6.884   3.914  0.8419 -0.6173  0.0339
21798SOL    HW168286   9.157   6.797   3.915  0.8696 -0.6023  0.3780
21798SOL    HW268287   9.160   6.929   3.842  1.3499 -0.6480  0.3153
21799SOL     OW68288   6.127   5.875   7.279  0.0849 -0.6196 -0.3812
21799SOL    HW168289   6.113   5.968   7.294  0.0466 -0.6761 -0.0709
21799SOL    HW268290   6.200   5.872   7.216 -0.9531 -0.3486 -1.6264
21800SOL     OW68291   2.967   3.534   1.252  0.4266  0.1819 -0.2627
21800SOL    HW168292   2.973   3.581   1.168  0.7117 -1.2366 -1.0729
21800SOL    HW268293   2.876   3.544   1.279  0.1607  0.1074 -1.0865
21801SOL     OW68294   4.494   0.095   0.081  0.5989 -0.3112  0.1324
21801SOL    HW168295   4.541   0.107   0.163 -0.1743  0.4210  0.4731
21801SOL    HW268296   4.401   0.100   0.104  0.3050 -1.8598 -0.5050
21802SOL     OW68297   2.887   0.248   7.114 -0.1065 -0.2365  0.4716
21802SOL    HW168298   2.876   0.197   7.033 -1.6605 -2.4548  1.9669
21802SOL    HW268299   2.968   0.215   7.152 -0.0510 -0.1168  0.4583
21803SOL     OW68300   5.980   2.550   4.615 -1.1239  0.4798 -0.2268
21803SOL    HW168301   5.920   2.602   4.667 -1.7235 -0.5628  0.1545
21803SOL    HW268302   5.974   2.462   4.652 -3.3118 -0.8931 -3.4157
21804SOL     OW68303   6.315   5.450   1.664  0.3794  0.3200  0.4730
21804SOL    HW168304   6.331   5.544   1.670 -0.7002  0.6679 -1.4098
21804SOL    HW268305   6.300   5.433   1.571 -1.0388 -1.4352  0.9466
21805SOL     OW68306   4.006   5.084   0.461 -0.6893 -0.0762 -0.0488
21805SOL    HW168307   4.102   5.077   0.456 -0.5799  0.2352  1.3185
21805SOL    HW268308   3.975   5.022   0.395  0.4472 -0.1669 -0.5356
21806SOL     OW68309   2.055   4.815   0.229  0.2106  0.1863 -0.4510
21806SOL    HW168310   2.061   4.742   0.169  0.1397 -0.3317  0.1618
21806SOL    HW268311   2.098   4.888   0.184  0.5939 -0.3267 -0.9129
21807SOL     OW68312   6.863   0.818   6.094  0.7240  0.0807 -0.1498
21807SOL    HW168313   6.778   0.849   6.127 -0.3995 -0.8748 -1.9508
21807SOL    HW268314   6.873   0.862   6.010  0.9400 -1.4156 -0.9506
21808SOL     OW68315   5.058   9.223   0.308 -0.2251 -0.6183 -0.0607
21808SOL    HW168316   5.001   9.239   0.383 -0.9570  3.0507 -1.2164
21808SOL    HW268317   5.089   9.133   0.320 -2.3670 -1.0728  3.1882
21809SOL     OW68318   9.393   4.346   9.189 -0.4660 -0.6006 -0.1412
21809SOL    HW168319   9.399   4.251   9.193 -2.1684 -0.7212  0.2015
21809SOL    HW268320   9.310   4.367   9.233 -1.1826  0.8767 -2.0661
21810SOL     OW68321   2.101   2.526   7.413 -0.1725 -0.0224 -0.3148
21810SOL    HW168322   2.130   2.451   7.360 -1.0127  1.8745 -3.7358
21810SOL    HW268323   2.176   2.585   7.414 -0.5390  0.4452 -0.3484
21811SOL     OW68324   8.953   7.928   7.818 -0.3933  0.1375  0.3333
21811SOL    HW168325   9.037   7.886   7.838 -0.3982  0.6016  1.4439
21811SOL    HW268326   8.913   7.941   7.904 -1.3205  0.4991 -0.1483
21812SOL     OW68327   4.878   1.593   2.772  0.6388 -0.0262  0.1834
21812SOL    HW168328   4.923   1.527   2.825  0.2575  0.1805  0.7744
21812SOL    HW268329   4.885   1.561   2.683 -1.0156 -1.7739  0.6236
21813SOL     OW68330   3.465   1.187   1.860 -0.3100  0.0842  0.5657
21813SOL    HW168331   3.523   1.123   1.902  1.4381  0.7822 -0.6902
21813SOL    HW268332   3.418   1.137   1.793  0.2414 -0.1175  0.3243
21814SOL     OW68333   4.452   4.494   5.092 -0.1107 -0.1669 -0.1466
21814SOL    HW168334   4.513   4.513   5.163  0.0015 -0.8629 -0.0471
21814SOL    HW268335   4.502   4.510   5.012  0.0711 -0.3319 -0.0659
21815SOL     OW68336   9.638   9.390   8.342  0.4147  0.8871 -0.5468
21815SOL    HW168337   9.711   9.346   8.299  0.3125 -0.0397  0.1952
21815SOL    HW268338   9.574   9.320   8.358  0.7836  1.0339  1.8266
21816SOL     OW68339   1.989   2.573   7.973  0.1118  0.8050 -0.7468
21816SOL    HW168340   2.074   2.613   7.954  0.5382 -0.3167 -1.3155
21816SOL    HW268341   1.959   2.540   7.889 -0.2729  0.0377 -0.3180
21817SOL     OW68342   5.078   2.241   7.481  0.1343 -0.0985  0.2204
21817SOL    HW168343   5.163   2.206   7.456 -0.3075  0.2339 -1.8972
21817SOL    HW268344   5.046   2.287   7.404 -1.0779  1.5825  1.6205
21818SOL     OW68345   7.287   8.783   2.962  0.3654 -0.0369  0.2308
21818SOL    HW168346   7.200   8.814   2.936 -0.0390 -0.9619  0.4295
21818SOL    HW268347   7.348   8.836   2.910 -0.2545  1.6013  1.1147
21819SOL     OW68348   2.264   0.081   7.255 -0.2472  0.4045 -0.2754
21819SOL    HW168349   2.202   0.150   7.278  0.0494  0.4631  0.3650
21819SOL    HW268350   2.316   0.067   7.334 -2.3055 -2.7278  0.6928
21820SOL     OW68351   8.665   5.026   0.430 -0.7326  0.1710  0.0467
21820SOL    HW168352   8.620   4.945   0.451 -0.3414  0.0244  0.3209
21820SOL    HW268353   8.690   5.017   0.337  0.0317 -0.3702  0.2964
21821SOL     OW68354   2.638   0.922   6.679  0.1210 -0.3276  0.5018
21821SOL    HW168355   2.633   0.912   6.774 -0.0948 -0.5464  0.4691
21821SOL    HW268356   2.616   1.014   6.663  0.8973 -0.1043  0.7174
21822SOL     OW68357   7.625   0.185   5.563  0.7924 -0.4746 -0.5725
21822SOL    HW168358   7.623   0.258   5.626  1.7556 -0.8118 -0.1239
21822SOL    HW268359   7.534   0.175   5.535  0.2688 -0.5559  1.0498
21823SOL     OW68360   5.760   0.605   4.537 -0.1016  0.0110 -0.2022
21823SOL    HW168361   5.727   0.650   4.459  0.5030 -0.5195 -0.7771
21823SOL    HW268362   5.833   0.659   4.566 -0.0302 -0.0437 -0.2794
21824SOL     OW68363   8.525   2.855   3.528  0.2669 -0.6182  0.7484
21824SOL    HW168364   8.589   2.799   3.572  0.3518 -0.2243  1.1365
21824SOL    HW268365   8.458   2.795   3.496  1.6223 -1.2291 -1.0797
21825SOL     OW68366   3.594   6.822   6.674 -0.4181 -0.5094 -0.1458
21825SOL    HW168367   3.624   6.796   6.762 -2.3631 -2.1866  0.0907
21825SOL    HW268368   3.511   6.867   6.690 -0.4672 -0.2521 -1.0922
21826SOL     OW68369   5.498   6.108   0.826 -0.5501 -0.3424  0.1743
21826SOL    HW168370   5.499   6.194   0.784 -1.3760 -0.9456 -1.1167
21826SOL    HW268371   5.581   6.068   0.801  0.1727  0.3181  1.3770
21827SOL     OW68372   2.400   8.600   9.412  0.3287  0.0251 -0.1744
21827SOL    HW168373   2.405   8.590   9.507 -0.9348  1.8760  0.1142
21827SOL    HW268374   2.491   8.617   9.385  0.8080 -1.1832  0.5704
21828SOL     OW68375   6.822   0.238   3.178 -0.5083 -0.1135  0.1220
21828SOL    HW168376   6.875   0.318   3.177  0.9155 -1.0167 -1.1084
21828SOL    HW268377   6.808   0.220   3.271 -1.9818  2.2368  0.4324
21829SOL     OW68378   3.920   6.013   6.350  1.0806  0.1858  0.4230
21829SOL    HW168379   3.912   6.040   6.441 -2.2401 -1.0264  0.6211
21829SOL    HW268380   3.895   5.921   6.349  0.1876  0.3873 -1.7943
21830SOL     OW68381   1.487   6.992   6.527  0.0001  0.2841  0.1019
21830SOL    HW168382   1.502   6.897   6.520 -1.3499  0.0932 -0.5423
21830SOL    HW268383   1.565   7.025   6.571  0.1577 -1.2437  1.0815
21831SOL     OW68384   4.820   5.917   4.893  0.2749  0.6807 -0.1296
21831SOL    HW168385   4.843   6.009   4.905  2.0650  0.1122  1.2455
21831SOL    HW268386   4.725   5.918   4.877 -0.1214  2.6489  1.7619
21832SOL     OW68387   6.941   6.115   4.970 -0.0503  0.4477 -1.0348
21832SOL    HW168388   6.938   6.069   5.054  0.3784  1.8851 -0.1934
21832SOL    HW268389   6.924   6.047   4.905  0.3400 -0.8467  0.1585
21833SOL     OW68390   7.984   4.008   6.357  0.8581  0.0168 -0.7016
21833SOL    HW168391   8.029   4.090   6.334  1.5368  1.4344  4.4867
21833SOL    HW268392   8.055   3.943   6.361  1.1923  0.4084 -0.0528
21834SOL     OW68393   4.154   4.223   6.420 -0.3827  0.2878  0.0626
21834SOL    HW168394   4.149   4.222   6.324 -2.2978 -0.2043  0.1341
21834SOL    HW268395   4.096   4.294   6.446 -0.4762 -0.0822  0.8933
21835SOL     OW68396   0.949   1.696   7.341  0.9389 -0.0952  0.0515
21835SOL    HW168397   0.948   1.791   7.348  0.6826 -0.2137  2.1083
21835SOL    HW268398   0.858   1.669   7.354  1.4545 -0.7494  3.0770
21836SOL     OW68399   5.559   6.013   4.721  0.2125 -0.0188  0.0346
21836SOL    HW168400   5.597   6.098   4.698  0.4247 -0.0054  0.4120
21836SOL    HW268401   5.554   6.015   4.817 -3.0790  0.9786 -0.0278
21837SOL     OW68402   0.836   2.954   8.432  0.0906  0.4593 -0.7253
21837SOL    HW168403   0.868   2.889   8.370 -0.3446  1.2882 -1.8430
21837SOL    HW268404   0.881   3.035   8.408 -1.0307  1.0871 -0.7938
21838SOL     OW68405   5.016   4.345   0.612  0.2890  0.0295  0.3718
21838SOL    HW168406   4.935   4.330   0.662 -1.0126 -2.0376 -2.1175
21838SOL    HW268407   5.070   4.268   0.630 -0.3308 -0.9074 -1.5145
21839SOL     OW68408   3.881   6.676   5.546  0.2133 -0.2004  0.1764
21839SOL    HW168409   3.867   6.612   5.476  1.2121 -0.5946  0.3193
21839SOL    HW268410   3.904   6.623   5.622  3.2856  0.3375 -0.2216
21840SOL     OW68411   8.450   8.757   2.285 -0.0384 -0.2618 -0.2678
21840SOL    HW168412   8.401   8.767   2.204 -0.2113  0.6376 -0.0567
21840SOL    HW268413   8.528   8.707   2.260 -0.1934 -0.1716 -0.9367
21841SOL     OW68414   8.568   4.737   7.187  0.4099 -0.5875  0.0039
21841SOL    HW168415   8.516   4.663   7.219 -0.6497  0.2421  0.2532
21841SOL    HW268416   8.516   4.774   7.116  1.3989 -0.6669 -0.7730
21842SOL     OW68417   8.424   7.663   8.451  0.2269 -0.4747 -0.7358
21842SOL    HW168418   8.478   7.734   8.487  1.3275 -1.8996  0.5449
21842SOL    HW268419   8.359   7.708   8.397  0.1697  1.5941  0.9309
21843SOL     OW68420   4.568   2.521   1.330  0.5804 -0.0229 -0.1312
21843SOL    HW168421   4.650   2.483   1.364  2.3431  3.2585 -0.3232
21843SOL    HW268422   4.582   2.526   1.235 -1.1353 -2.0752 -0.5597
21844SOL     OW68423   3.608   8.417   6.126 -0.3478 -0.1396  0.8410
21844SOL    HW168424   3.653   8.445   6.206  0.2008  0.6793  0.2743
21844SOL    HW268425   3.520   8.455   6.133 -0.9635 -1.6919  1.9256
21845SOL     OW68426   1.984   4.443   0.818  0.1459 -0.3066  0.0178
21845SOL    HW168427   1.938   4.401   0.745  0.8498 -0.0918 -0.5489
21845SOL    HW268428   1.915   4.461   0.882 -0.3340 -1.3362 -0.1963
21846SOL     OW68429   6.806   1.098   1.204 -0.3544 -0.1155 -0.0934
21846SOL    HW168430   6.791   1.025   1.143 -1.0697 -0.5711  0.5980
21846SOL    HW268431   6.741   1.084   1.274 -0.8256  1.4528 -0.1816
21847SOL     OW68432   2.596   9.573   3.647  0.1133 -0.1269  0.2733
21847SOL    HW168433   2.669   9.523   3.683  1.1293  0.6454 -0.6344
21847SOL    HW268434   2.539   9.589   3.722 -0.0976 -2.3338  0.6497
21848SOL     OW68435   7.094   6.617   3.142 -0.5091 -0.2728 -0.5597
21848SOL    HW168436   7.138   6.532   3.150 -1.8110 -0.8585  0.9029
21848SOL    HW268437   7.017   6.598   3.088 -0.0142  0.3274 -1.4962
21849SOL     OW68438   3.940   6.225   4.526 -0.0117  0.2425  0.1903
21849SOL    HW168439   4.022   6.272   4.543 -0.8407  2.2472 -0.9189
21849SOL    HW268440   3.873   6.276   4.571 -0.6999 -1.2778  0.9562
21850SOL     OW68441   3.033   2.683   7.629  0.0937  0.2314 -0.1307
21850SOL    HW168442   2.994   2.672   7.716  2.1884 -2.6436  0.5990
21850SOL    HW268443   3.085   2.763   7.635  1.1147 -0.5147  1.6988
21851SOL     OW68444   6.328   7.171   0.351 -0.7163  0.0076  0.2013
21851SOL    HW168445   6.361   7.092   0.307 -0.3994  0.5314 -0.5268
21851SOL    HW268446   6.316   7.234   0.280 -0.3900  0.8156  0.8495
21852SOL     OW68447   8.277   2.148   7.247  0.3542 -0.2776 -0.6480
21852SOL    HW168448   8.354   2.141   7.303  0.5262  0.8425 -0.7192
21852SOL    HW268449   8.228   2.222   7.283  0.0274 -0.0977 -1.4478
21853SOL     OW68450   4.870   5.665   8.055  0.2034 -0.2851  0.6787
21853SOL    HW168451   4.878   5.667   8.151 -1.3678  0.0982  0.8280
21853SOL    HW268452   4.929   5.594   8.028  0.6308 -0.4364  1.9294
21854SOL     OW68453   2.787   0.927   7.448  0.4989  0.1361  0.0902
21854SOL    HW168454   2.862   0.932   7.388  0.5955  0.5793  0.2455
21854SOL    HW268455   2.823   0.891   7.529  0.3317 -0.6374 -0.1706
21855SOL     OW68456   1.368   6.861   5.962 -0.8350 -0.5540  0.3307
21855SOL    HW168457   1.273   6.847   5.967 -1.1898  0.5893 -2.1533
21855SOL    HW268458   1.387   6.862   5.869  1.1573  2.1376  0.6702
21856SOL     OW68459   0.977   4.171   3.129 -0.0561  0.0443 -0.1543
21856SOL    HW168460   0.966   4.083   3.093 -2.5696  0.5341 -0.7837
21856SOL    HW268461   0.892   4.191   3.170  0.4191  2.1853 -0.0873
21857SOL     OW68462   3.164   3.875   9.542 -0.2618 -0.1554  0.5805
21857SOL    HW168463   3.104   3.859   9.615 -0.6107  1.5490  0.6950
21857SOL    HW268464   3.211   3.955   9.566 -0.6792  0.6792 -1.2206
21858SOL     OW68465   6.219   3.204   1.435 -0.5623  0.0275 -0.2243
21858SOL    HW168466   6.171   3.132   1.475 -1.5907  0.5222 -0.5319
21858SOL    HW268467   6.164   3.232   1.362 -0.7709  1.9007  0.6018
21859SOL     OW68468   3.005   8.568   0.055  0.3270 -0.6261  0.2012
21859SOL    HW168469   3.096   8.538   0.057  0.1117 -1.3270 -0.1399
21859SOL    HW268470   2.954   8.488   0.065 -0.2535 -0.1759  1.0020
21860SOL     OW68471   7.333   5.808   8.551 -0.3718  0.4254  0.1130
21860SOL    HW168472   7.259   5.811   8.490  0.6043 -1.6561 -1.2945
21860SOL    HW268473   7.322   5.726   8.599 -0.0074  1.0553  1.3282
21861SOL     OW68474   3.995   5.649   4.756  0.1038 -0.4529 -0.2815
21861SOL    HW168475   3.908   5.618   4.733 -0.5332  0.9938  0.1059
21861SOL    HW268476   4.018   5.711   4.686  0.4257 -0.1021  0.1338
21862SOL     OW68477   9.621   9.337   8.754 -0.1604 -0.1527  0.5249
21862SOL    HW168478   9.585   9.288   8.680 -1.4615 -0.4058  1.3071
21862SOL    HW268479   9.558   9.406   8.770  1.7715  2.0767 -0.7437
21863SOL     OW68480   4.569   5.796   5.154 -0.5320 -0.0167 -0.0983
21863SOL    HW168481   4.563   5.891   5.166 -0.9299 -0.1750  0.9916
21863SOL    HW268482   4.555   5.759   5.241  0.5341 -1.0536 -0.3371
21864SOL     OW68483   2.582   8.017   4.732 -0.1273 -0.0806 -0.1936
21864SOL    HW168484   2.630   7.951   4.681  0.6962 -0.5189  1.0997
21864SOL    HW268485   2.513   7.967   4.775  0.7790 -0.2211  1.1555
21865SOL     OW68486   8.120   6.228   6.877 -1.2650 -0.5616 -0.0290
21865SOL    HW168487   8.194   6.174   6.902 -2.1660 -2.5392 -1.3657
21865SOL    HW268488   8.156   6.317   6.870  0.1316 -0.8086  2.7893
21866SOL     OW68489   6.643   7.546   2.835  0.6375 -0.5489 -0.0153
21866SOL    HW168490   6.718   7.568   2.780 -0.4018  1.7105 -0.6204
21866SOL    HW268491   6.676   7.552   2.924  1.1164  0.8515 -0.2609
21867SOL     OW68492   1.286   5.921   0.392 -0.0318  0.0726  0.3115
21867SOL    HW168493   1.341   5.924   0.470  0.3370 -0.1153  0.0657
21867SOL    HW268494   1.307   5.837   0.351  1.5820  1.1403 -1.2482
21868SOL     OW68495   9.628   7.302   5.391  0.2837  0.0875 -0.9949
21868SOL    HW168496   9.662   7.273   5.475  0.4645  0.0438 -1.0830
21868SOL    HW268497   9.535   7.278   5.393 -0.0763  1.4698 -0.1828
21869SOL     OW68498   0.471   4.966   9.173  0.2656  0.2157  0.2868
21869SOL    HW168499   0.484   4.981   9.267  0.9737  1.2055  0.0510
21869SOL    HW268500   0.448   5.052   9.138  0.4384 -0.0570 -0.5147
21870SOL     OW68501   7.620   8.627   3.553  0.2984  0.3097  0.7938
21870SOL    HW168502   7.557   8.691   3.520  0.4400 -0.6423 -1.5485
21870SOL    HW268503   7.695   8.633   3.493  0.5140 -1.6576  0.7864
21871SOL     OW68504   1.343   9.313   9.070  0.0681  0.2169  0.6885
21871SOL    HW168505   1.311   9.341   9.156  0.7043 -0.2271  1.0787
21871SOL    HW268506   1.314   9.382   9.010 -0.7605  0.3127  1.1824
21872SOL     OW68507   1.701   5.642   8.060  0.1373 -0.1855 -0.0902
21872SOL    HW168508   1.768   5.600   8.006  0.0861 -0.3182 -0.0524
21872SOL    HW268509   1.672   5.573   8.120  2.2515  0.6686  2.0916
21873SOL     OW68510   9.305   0.084   0.705 -0.0372 -0.0535  0.1496
21873SOL    HW168511   9.396   0.062   0.728 -0.3392 -0.6750  0.7999
21873SOL    HW268512   9.260   0.087   0.790 -0.7241 -0.2356 -0.2077
21874SOL     OW68513   5.890   4.099   1.490  0.6508  0.3194  0.1147
21874SOL    HW168514   5.812   4.108   1.545  1.5722  1.6726  1.2769
21874SOL    HW268515   5.938   4.025   1.527  0.2769 -0.0649 -0.1609
21875SOL     OW68516   8.323   7.957   4.452 -0.1584  0.3438 -0.3712
21875SOL    HW168517   8.340   7.909   4.533 -1.6156  1.0233  0.3827
21875SOL    HW268518   8.408   7.991   4.426  1.0378 -2.8538 -1.1374
21876SOL     OW68519   5.732   8.420   2.172  0.0897  0.2398  0.4428
21876SOL    HW168520   5.780   8.377   2.243  0.1594 -1.5393 -0.6295
21876SOL    HW268521   5.654   8.365   2.160 -0.2458  0.8877 -0.4358
21877SOL     OW68522   0.030   8.691   3.164 -0.5589  0.0670 -0.6990
21877SOL    HW168523  -0.042   8.725   3.217 -0.3807 -0.8015  0.1438
21877SOL    HW268524   0.003   8.602   3.142  0.3266 -0.3474 -0.1840
21878SOL     OW68525   5.721   6.644   1.381  0.2473 -0.1683  0.1926
21878SOL    HW168526   5.792   6.691   1.336 -0.1673 -0.0592 -0.3600
21878SOL    HW268527   5.760   6.561   1.408  0.7205  0.0923  0.3209
21879SOL     OW68528   5.313   5.764   5.913 -0.1161 -0.7166 -0.5229
21879SOL    HW168529   5.286   5.842   5.864  0.4819 -1.0360 -1.3819
21879SOL    HW268530   5.401   5.785   5.944  0.0595 -1.0663 -0.7848
21880SOL     OW68531   3.714   2.085   9.274 -0.1446 -0.0515 -0.5319
21880SOL    HW168532   3.764   2.166   9.260 -1.1291  0.6004 -0.4539
21880SOL    HW268533   3.679   2.063   9.188 -1.7914  0.9479 -0.1738
21881SOL     OW68534   9.009   7.792   5.833  0.1019  0.3360 -0.1992
21881SOL    HW168535   9.014   7.806   5.738 -0.3656 -0.9140 -0.4260
21881SOL    HW268536   8.916   7.776   5.850 -0.0915  2.1857  0.7386
21882SOL     OW68537   4.366   5.917   2.398 -0.0975 -0.4283  0.3604
21882SOL    HW168538   4.285   5.966   2.413  0.3420  0.9576 -1.4485
21882SOL    HW268539   4.361   5.890   2.306  0.9725 -1.3702  0.5548
21883SOL     OW68540   7.247   8.758   3.631  0.3537  0.0127  0.5488
21883SOL    HW168541   7.256   8.808   3.712 -2.4512  0.9027  0.4021
21883SOL    HW268542   7.260   8.823   3.561  1.0581 -0.4097  0.2700
21884SOL     OW68543   5.854   6.843   1.123 -0.1141 -0.1286  0.0647
21884SOL    HW168544   5.909   6.824   1.048  0.5119 -0.3029  0.5660
21884SOL    HW268545   5.766   6.852   1.086  0.3478  0.8933 -0.8448
21885SOL     OW68546   3.622   1.287   6.417 -0.1293 -0.5682 -0.0223
21885SOL    HW168547   3.705   1.240   6.422 -0.4433 -1.4249 -1.9963
21885SOL    HW268548   3.561   1.224   6.379 -0.6300  1.2828 -2.5312
21886SOL     OW68549   8.747   0.172   2.022 -0.4318  0.4503  0.6510
21886SOL    HW168550   8.662   0.133   2.004 -0.7068  1.1211  0.4581
21886SOL    HW268551   8.728   0.245   2.081 -0.0506  0.8669  0.2717
21887SOL     OW68552   3.522   1.818   0.564  0.9225 -0.2742  0.1320
21887SOL    HW168553   3.512   1.806   0.658 -0.3648  2.8395  0.5005
21887SOL    HW268554   3.592   1.757   0.540  1.3986 -1.0681  3.0895
21888SOL     OW68555   3.612   0.136   5.034  0.5713 -0.1623 -0.5814
21888SOL    HW168556   3.646   0.056   4.994 -1.6297 -1.2159 -0.5165
21888SOL    HW268557   3.565   0.179   4.963 -2.0378 -1.2570  0.3391
21889SOL     OW68558   7.219   0.597   1.673 -0.4893  0.2516  0.1908
21889SOL    HW168559   7.149   0.600   1.738 -0.2544  1.6167  0.4008
21889SOL    HW268560   7.193   0.661   1.607 -0.6265 -0.9794 -0.9778
21890SOL     OW68561   7.719   3.609   4.723 -0.0032  0.5791 -0.2496
21890SOL    HW168562   7.653   3.621   4.654 -0.8532 -0.8618  0.2793
21890SOL    HW268563   7.679   3.647   4.801  0.8602  1.9840 -0.4426
21891SOL     OW68564   8.826   5.364   5.306 -0.1661 -0.2029 -0.2455
21891SOL    HW168565   8.914   5.374   5.269 -0.6748  0.6511 -1.2898
21891SOL    HW268566   8.801   5.453   5.332  0.1277 -0.7485  2.1403
21892SOL     OW68567   7.546   4.933   7.309  0.4355  0.3535 -0.3842
21892SOL    HW168568   7.630   4.891   7.331  0.1598 -0.0147 -0.0082
21892SOL    HW268569   7.571   5.015   7.267  1.0025  1.3756  1.8057
21893SOL     OW68570   8.293   7.018   9.157  0.6230 -0.0840 -0.4774
21893SOL    HW168571   8.223   7.067   9.200 -0.2713 -1.0545 -0.7798
21893SOL    HW268572   8.248   6.962   9.093  1.5550 -1.5181  0.0659
21894SOL     OW68573   0.069   9.089   0.195  0.1736  0.7266 -0.2993
21894SOL    HW168574  -0.019   9.125   0.202  0.2216  1.1190 -1.5786
21894SOL    HW268575   0.126   9.165   0.190  0.7924  0.5186  2.1578
21895SOL     OW68576   9.615   8.346   8.973  0.0863 -0.0627 -0.3149
21895SOL    HW168577   9.614   8.335   9.068 -1.3793 -1.6537 -0.4526
21895SOL    HW268578   9.540   8.294   8.943  0.5228  0.4090 -2.3379
21896SOL     OW68579   2.598   2.832   4.943 -0.4244 -0.7581 -0.4810
21896SOL    HW168580   2.576   2.841   4.850 -0.1238  0.5205 -0.4398
21896SOL    HW268581   2.515   2.807   4.985 -1.1108  0.8464 -0.7906
21897SOL     OW68582   4.228   7.448   6.417  0.2920 -0.0841  0.3414
21897SOL    HW168583   4.308   7.436   6.366  1.4273  0.4930  1.8741
21897SOL    HW268584   4.157   7.431   6.356  1.5883 -1.8041 -0.7726
21898SOL     OW68585   6.326   7.181   8.922 -0.3003 -0.0339 -0.1048
21898SOL    HW168586   6.411   7.226   8.915 -0.5090  1.0305  2.6182
21898SOL    HW268587   6.337   7.123   8.998 -1.5229 -1.1005 -0.7233
21899SOL     OW68588   0.207   9.114   7.847 -0.1235 -0.4882 -0.1246
21899SOL    HW168589   0.128   9.102   7.899  0.0890  2.4448  1.0468
21899SOL    HW268590   0.253   9.188   7.889  3.1891 -1.9517 -0.8273
21900SOL     OW68591   4.331   3.836   4.003  0.0998 -0.3441 -0.5959
21900SOL    HW168592   4.425   3.828   3.990  0.3546 -0.9297  1.3474
21900SOL    HW268593   4.296   3.851   3.915  2.1674  1.8246 -1.1614
21901SOL     OW68594   3.671   8.365   0.771  0.4128  0.0298  0.9716
21901SOL    HW168595   3.644   8.379   0.680 -0.9340 -0.4350  1.2780
21901SOL    HW268596   3.755   8.319   0.764 -0.4329 -1.4528 -0.0808
21902SOL     OW68597   6.107   0.088   2.665  0.3409  0.3462  0.0119
21902SOL    HW168598   6.040   0.020   2.673 -0.4888  1.1182 -0.2020
21902SOL    HW268599   6.188   0.044   2.691 -0.1148 -0.8161 -0.4270
21903SOL     OW68600   5.705   0.665   8.490  0.0264 -0.5153  0.4533
21903SOL    HW168601   5.747   0.630   8.411 -0.9266 -0.2069 -0.2025
21903SOL    HW268602   5.698   0.759   8.473  0.4444 -0.3368  1.2095
21904SOL     OW68603   4.141   5.747   8.965 -0.6975 -0.5567 -0.0027
21904SOL    HW168604   4.116   5.655   8.961  0.0280 -0.7246 -1.3411
21904SOL    HW268605   4.214   5.754   8.903 -0.7857  0.9293  0.0389
21905SOL     OW68606   2.232   3.467   1.815  0.5382  0.5576  0.1496
21905SOL    HW168607   2.323   3.467   1.843  0.0266  2.2153  1.9967
21905SOL    HW268608   2.213   3.559   1.795 -0.0971 -0.0789 -2.5808
21906SOL     OW68609   9.469   1.019   8.947  0.0064 -0.2108  0.0789
21906SOL    HW168610   9.542   1.043   8.889  0.1781 -1.0919 -0.0823
21906SOL    HW268611   9.499   0.940   8.991 -1.0237 -0.8383 -0.3112
21907SOL     OW68612   2.208   4.129   2.233 -0.1262  0.5507 -0.1409
21907SOL    HW168613   2.132   4.071   2.240  0.5407 -0.1767  2.1700
21907SOL    HW268614   2.249   4.105   2.151 -2.2832  0.8852 -1.4068
21908SOL     OW68615   9.098   7.763   2.873 -0.3841  0.0968 -0.2863
21908SOL    HW168616   9.100   7.709   2.953  0.7318  3.3438  2.0799
21908SOL    HW268617   9.117   7.701   2.803  2.0601 -2.4314  2.3177
21909SOL     OW68618   4.039   8.005   0.922 -0.0206 -0.1028  0.0529
21909SOL    HW168619   3.961   7.984   0.973 -0.3535 -1.5751 -1.0091
21909SOL    HW268620   4.112   7.975   0.977 -0.3202 -0.7370  0.1041
21910SOL     OW68621   1.081   8.546   6.975 -0.2581  0.1873  0.2518
21910SOL    HW168622   1.016   8.593   7.027  0.2097  0.4729  0.5909
21910SOL    HW268623   1.161   8.596   6.986 -0.0531  0.0206 -0.4266
21911SOL     OW68624   1.759   5.647   6.434  0.6047 -0.8652 -0.5869
21911SOL    HW168625   1.834   5.664   6.491  0.2667 -1.3754  0.0161
21911SOL    HW268626   1.789   5.672   6.347  1.1220 -0.0569 -0.1851
21912SOL     OW68627   2.458   2.920   3.183  0.1722  0.2253  0.8678
21912SOL    HW168628   2.497   3.007   3.172  0.0616  0.0472 -1.6137
21912SOL    HW268629   2.414   2.924   3.268  0.6442  2.4011  1.0781
21913SOL     OW68630   2.594   9.624   9.153 -0.0674 -0.5289  0.6197
21913SOL    HW168631   2.615   9.593   9.241  0.0242 -1.8022  0.1675
21913SOL    HW268632   2.678   9.627   9.108 -0.1807 -0.3968  0.4170
21914SOL     OW68633   3.457   2.415   7.554 -0.4566 -0.1311  0.4993
21914SOL    HW168634   3.500   2.472   7.618  0.4978 -0.3580  0.0745
21914SOL    HW268635   3.364   2.430   7.568 -0.2479  0.4076  1.4133
21915SOL     OW68636   3.181   6.077   1.375 -0.2594  0.1943  0.1294
21915SOL    HW168637   3.133   6.124   1.443 -0.3650 -0.2747  0.3833
21915SOL    HW268638   3.150   6.116   1.293 -0.0584  0.8263  0.3523
21916SOL     OW68639   3.404   9.285   6.574  0.6588  0.2211 -0.2545
21916SOL    HW168640   3.369   9.298   6.486  0.0897  1.1890  0.1033
21916SOL    HW268641   3.441   9.196   6.572 -1.1544 -0.5630 -0.8605
21917SOL     OW68642   5.940   3.658   0.208 -0.2820 -0.1582 -0.0754
21917SOL    HW168643   5.852   3.621   0.204 -0.6270  0.6319 -0.0303
21917SOL    HW268644   5.959   3.682   0.117 -0.2017 -0.1337 -0.0520
21918SOL     OW68645   8.182   4.023   6.160 -0.2742 -0.2811  0.0954
21918SOL    HW168646   8.166   3.947   6.103 -0.3961 -1.0892  1.1720
21918SOL    HW268647   8.226   3.986   6.237 -1.1379  0.6020  1.0339
21919SOL     OW68648   1.276   0.953   5.943 -0.0356  0.1877  0.2213
21919SOL    HW168649   1.219   0.988   5.874 -0.5302  0.4528  0.7612
21919SOL    HW268650   1.282   1.024   6.007 -1.0756 -0.7279  1.3589
21920SOL     OW68651   8.966   3.552   4.362  0.4051  0.3288  0.0148
21920SOL    HW168652   8.987   3.624   4.422  0.3299  0.2728  0.1073
21920SOL    HW268653   8.872   3.538   4.373  0.4323  0.1682  0.0494
21921SOL     OW68654   0.232   9.076   5.740 -0.5432 -0.3460 -0.5573
21921SOL    HW168655   0.201   9.020   5.810 -0.2783  0.0867 -0.0835
21921SOL    HW268656   0.200   9.036   5.659 -0.8496 -0.8433 -0.1848
21922SOL     OW68657   7.157   3.003   9.535 -0.3649 -0.1122  0.1177
21922SOL    HW168658   7.249   2.980   9.519  0.7119  2.2156  2.2598
21922SOL    HW268659   7.111   2.971   9.457  2.2546 -1.2233 -1.1192
21923SOL     OW68660   2.354   2.578   4.433 -0.4696  0.1934 -0.8105
21923SOL    HW168661   2.347   2.512   4.502  0.7684  1.0345  0.1643
21923SOL    HW268662   2.311   2.538   4.358 -1.9289 -0.7271  0.4496
21924SOL     OW68663   7.106   2.110   7.745  0.1536  0.4393 -0.2700
21924SOL    HW168664   7.134   2.199   7.723  0.6872 -0.3052 -3.0013
21924SOL    HW268665   7.176   2.054   7.712 -0.7624 -1.0714  0.2588
21925SOL     OW68666   6.630   1.085   6.934 -0.8523  0.2503  0.2084
21925SOL    HW168667   6.541   1.096   6.969 -0.6145 -0.2135  0.9973
21925SOL    HW268668   6.687   1.116   7.004 -0.3997  1.1107 -0.5357
21926SOL     OW68669   5.007   3.159   0.797 -0.4477 -0.3999 -0.1054
21926SOL    HW168670   4.955   3.078   0.804 -0.6084 -0.4043 -1.2637
21926SOL    HW268671   4.960   3.212   0.733 -0.4572  0.7166  0.7957
21927SOL     OW68672   2.594   7.895   4.072  0.4885 -0.3749  0.1790
21927SOL    HW168673   2.533   7.937   4.011  0.6280  1.9317  1.4954
21927SOL    HW268674   2.673   7.881   4.020 -0.3593 -1.2883 -0.9350
21928SOL     OW68675   3.067   5.409   8.431  0.1782 -0.1726  0.3657
21928SOL    HW168676   3.103   5.497   8.441 -0.9150  0.2177  1.0673
21928SOL    HW268677   2.981   5.422   8.392  0.6008 -1.0608 -0.9272
21929SOL     OW68678   8.348   2.951   8.359  0.6077 -0.0779  0.1976
21929SOL    HW168679   8.440   2.975   8.360  0.5641  0.1736 -0.5978
21929SOL    HW268680   8.316   2.973   8.446  1.1783  0.3253  0.3121
21930SOL     OW68681   9.008   7.284   7.128  0.0834 -0.7640  0.1931
21930SOL    HW168682   9.006   7.305   7.221 -0.5685  0.0055  0.0151
21930SOL    HW268683   9.097   7.251   7.112  0.6527  0.4230  0.7967
21931SOL     OW68684   7.693   5.377   1.037  0.1883 -0.2052  0.5001
21931SOL    HW168685   7.600   5.398   1.032  0.5320  1.2309 -1.9694
21931SOL    HW268686   7.702   5.297   0.984  0.4128 -0.0080  0.2352
21932SOL     OW68687   3.375   9.113   2.293 -0.2546  0.2400 -0.1916
21932SOL    HW168688   3.335   9.191   2.332  0.9069 -0.1169  1.7999
21932SOL    HW268689   3.437   9.147   2.229  0.4887  1.0002  0.9011
21933SOL     OW68690   5.473   8.650   7.930 -0.0886  0.2930  0.0851
21933SOL    HW168691   5.561   8.656   7.968 -0.0615 -0.9043  0.2488
21933SOL    HW268692   5.447   8.559   7.945 -0.9350  0.3628 -0.8870
21934SOL     OW68693   2.071   4.498   4.796 -0.6391 -0.0473 -0.0885
21934SOL    HW168694   2.151   4.463   4.836 -1.6131 -0.6047  1.4229
21934SOL    HW268695   2.101   4.576   4.749  0.5915  0.6151  1.6856
21935SOL     OW68696   7.048   8.430   8.515  0.0904 -0.1681 -0.0458
21935SOL    HW168697   6.972   8.479   8.547  0.7960  0.7257  0.3177
21935SOL    HW268698   7.050   8.352   8.570 -0.7329 -0.3561 -0.2633
21936SOL     OW68699   5.862   0.438   0.440  0.4979  0.1159 -0.1516
21936SOL    HW168700   5.944   0.447   0.488  0.5845 -0.5193 -0.1704
21936SOL    HW268701   5.828   0.353   0.467 -1.0228  1.0773  1.1839
21937SOL     OW68702   4.467   4.358   1.002  0.3579  0.2688 -0.3582
21937SOL    HW168703   4.530   4.285   1.002 -1.1136 -1.0617  0.1601
21937SOL    HW268704   4.474   4.396   0.915  1.3618 -0.3137 -0.5512
21938SOL     OW68705   6.778   5.648   2.208 -0.1681  0.6383  0.0473
21938SOL    HW168706   6.693   5.605   2.211  0.7710 -1.3211  0.0579
21938SOL    HW268707   6.813   5.627   2.121  1.8295 -1.8650  1.3102
21939SOL     OW68708   1.717   2.102   7.102 -0.2210  0.6164 -0.3767
21939SOL    HW168709   1.788   2.081   7.163 -0.7158  1.6249  0.5902
21939SOL    HW268710   1.742   2.059   7.021  0.1133 -1.3824  0.7148
21940SOL     OW68711   8.462   3.993   5.939 -0.1320  0.2357  0.7184
21940SOL    HW168712   8.419   4.074   5.965  0.0867  0.3621  0.6884
21940SOL    HW268713   8.421   3.969   5.857 -2.6638 -1.5259  2.3474
21941SOL     OW68714   2.868   2.886   3.844 -0.1188 -0.0109  0.2014
21941SOL    HW168715   2.924   2.812   3.820  0.4924  0.0177  1.4788
21941SOL    HW268716   2.804   2.891   3.773  0.7044 -0.8572 -0.6370
21942SOL     OW68717   0.041   7.856   5.366 -0.2014 -0.3332  0.2939
21942SOL    HW168718  -0.037   7.839   5.314  1.2605 -2.0044 -1.4907
21942SOL    HW268719   0.013   7.842   5.457 -2.7712  2.5217  0.0832
21943SOL     OW68720   2.976   5.287   3.189 -0.1565  0.1214 -0.2549
21943SOL    HW168721   2.902   5.300   3.248  0.8752 -0.7679  1.2886
21943SOL    HW268722   2.995   5.194   3.193 -0.4138 -0.0865 -2.4886
21944SOL     OW68723   8.771   7.370   0.927  0.0982 -0.1828 -0.5628
21944SOL    HW168724   8.781   7.440   0.991 -0.3159  0.1220 -0.8224
21944SOL    HW268725   8.860   7.346   0.903  0.2666  1.3382 -1.6271
21945SOL     OW68726   6.204   2.289   3.245 -0.4050 -0.3197  0.0217
21945SOL    HW168727   6.245   2.306   3.330 -1.1917  1.1329  0.1388
21945SOL    HW268728   6.161   2.204   3.256  0.6939 -0.8260  0.5935
21946SOL     OW68729   4.300   8.797   1.561  0.1315 -0.5783 -0.1927
21946SOL    HW168730   4.213   8.833   1.547 -0.7634 -1.7485  1.9571
21946SOL    HW268731   4.330   8.837   1.643  0.8421 -1.5421  0.0431
21947SOL     OW68732   4.526   7.575   2.735  0.2340  0.1379 -0.1736
21947SOL    HW168733   4.602   7.633   2.728 -0.4387  1.2616  1.3622
21947SOL    HW268734   4.563   7.492   2.764  0.9261  0.6099  0.3458
21948SOL     OW68735   3.122   0.650   1.036 -0.3764  0.0565 -0.0579
21948SOL    HW168736   3.199   0.596   1.055 -1.8497 -1.3212  2.5473
21948SOL    HW268737   3.135   0.729   1.088 -0.2161  0.3280 -0.5063
21949SOL     OW68738   5.527   1.681   2.638  0.2300 -0.0092 -0.1349
21949SOL    HW168739   5.538   1.738   2.714 -0.1975  0.8587 -0.7169
21949SOL    HW268740   5.607   1.627   2.638  0.9805  1.0706  0.0114
21950SOL     OW68741   3.303   4.748   3.234  0.5671 -0.0528  0.0732
21950SOL    HW168742   3.338   4.805   3.303  0.6127  0.7400 -0.5823
21950SOL    HW268743   3.211   4.773   3.227  0.7469  0.4576 -0.6895
21951SOL     OW68744   1.302   6.111   4.322  0.5354 -0.3568 -0.0939
21951SOL    HW168745   1.366   6.158   4.268 -0.2889  0.0134 -0.7874
21951SOL    HW268746   1.243   6.071   4.258 -1.4876  1.5099  0.4843
21952SOL     OW68747   6.128   8.055   4.560 -0.1850  0.4419  0.0496
21952SOL    HW168748   6.087   8.092   4.481  1.1650 -0.1101 -0.9578
21952SOL    HW268749   6.082   7.972   4.573 -1.1027  0.9996  0.4674
21953SOL     OW68750   8.862   7.969   2.507 -1.0206  0.4960 -0.1480
21953SOL    HW168751   8.881   7.984   2.599 -0.9503  1.3918 -0.3026
21953SOL    HW268752   8.935   7.914   2.476 -1.3131 -0.2417  0.4396
21954SOL     OW68753   6.742   0.661   8.746  0.9059 -0.4753  0.3095
21954SOL    HW168754   6.734   0.671   8.651 -3.7737 -0.5323  0.4742
21954SOL    HW268755   6.734   0.751   8.780 -0.7321 -0.7218  0.6591
21955SOL     OW68756   2.671   6.406   3.333 -0.0502  0.2276  0.3349
21955SOL    HW168757   2.648   6.498   3.320 -1.7213 -0.2171 -0.1471
21955SOL    HW268758   2.644   6.363   3.252  1.6579 -0.5492  0.1470
21956SOL     OW68759   0.007   0.832   9.365  0.2831  0.4489  0.2438
21956SOL    HW168760   0.071   0.901   9.386  2.0120 -1.5519  1.9927
21956SOL    HW268761   0.049   0.751   9.394 -2.3675 -1.1872 -0.1920
21957SOL     OW68762   5.307   6.098   8.518 -0.0243 -0.7376 -0.9879
21957SOL    HW168763   5.355   6.128   8.440  1.3542 -0.9980 -0.2692
21957SOL    HW268764   5.373   6.098   8.588 -1.3392 -0.1069  0.2848
21958SOL     OW68765   5.976   3.208   8.628  0.0315  0.3572  0.1702
21958SOL    HW168766   6.064   3.175   8.610  0.4609  1.0586  0.9024
21958SOL    HW268767   5.979   3.235   8.720 -1.3099 -0.7158  0.5561
21959SOL     OW68768   4.147   8.167   3.710 -0.1206  0.4297  0.1048
21959SOL    HW168769   4.236   8.141   3.736  0.1242 -0.6320 -1.6175
21959SOL    HW268770   4.149   8.263   3.712  1.6847  0.5089 -1.6396
21960SOL     OW68771   8.798   2.102   2.874  0.5407 -0.1075  0.7126
21960SOL    HW168772   8.802   2.059   2.959  0.0595 -1.1338  0.2382
21960SOL    HW268773   8.831   2.036   2.813  0.1860  0.3462  0.0183
21961SOL     OW68774   2.504   3.691   6.537 -0.2295  0.5162  0.3259
21961SOL    HW168775   2.447   3.768   6.526  0.0195  0.7224  0.4763
21961SOL    HW268776   2.590   3.722   6.510 -0.3303 -0.0091 -0.6345
21962SOL     OW68777   0.343   3.962   1.836 -0.0851  0.3828  0.5258
21962SOL    HW168778   0.265   3.973   1.782 -0.7271  4.4429  1.8839
21962SOL    HW268779   0.309   3.942   1.923  0.5945 -0.4858  0.6048
21963SOL     OW68780   8.352   2.869   6.521  0.5046 -0.3540 -0.3022
21963SOL    HW168781   8.326   2.800   6.581  1.9817 -1.2554 -0.6469
21963SOL    HW268782   8.430   2.907   6.560 -0.5515  1.5081  0.1331
21964SOL     OW68783   6.006   8.526   8.243  0.0923  0.1155 -0.7047
21964SOL    HW168784   6.070   8.455   8.255  0.3523  0.2887 -1.0382
21964SOL    HW268785   6.059   8.600   8.213 -0.0571  0.7011  0.4337
21965SOL     OW68786   8.152   0.034   2.828  0.5563 -0.5058 -0.2450
21965SOL    HW168787   8.121  -0.012   2.907  1.4343 -1.4818 -0.4396
21965SOL    HW268788   8.084   0.098   2.809  0.9072  0.6491  2.0568
21966SOL     OW68789   8.632   0.594   3.569 -0.2400 -0.5789 -0.1683
21966SOL    HW168790   8.597   0.674   3.610 -0.2043 -0.0646 -1.0977
21966SOL    HW268791   8.570   0.575   3.498  0.4411 -0.6426 -0.7540
21967SOL     OW68792   0.760   0.341   7.704 -0.0901 -0.2496  0.2262
21967SOL    HW168793   0.683   0.389   7.674  0.5568  1.3308  1.0047
21967SOL    HW268794   0.831   0.405   7.703  1.0883 -1.5148  0.1358
21968SOL     OW68795   3.551   1.895   0.098 -0.3372 -0.2497  0.6112
21968SOL    HW168796   3.519   1.921   0.184 -0.1987 -1.9306  1.1921
21968SOL    HW268797   3.640   1.862   0.114  0.1219  0.4711 -0.3569
21969SOL     OW68798   7.024   9.281   3.434 -0.0469 -0.6461 -0.3321
21969SOL    HW168799   7.112   9.248   3.416  0.4177 -0.9064  1.9963
21969SOL    HW268800   6.971   9.203   3.447 -0.0620 -0.5219  0.4599
21970SOL     OW68801   5.380   4.720   4.296 -0.6650 -0.0318  0.0008
21970SOL    HW168802   5.469   4.755   4.299 -0.6163 -0.1884  0.8783
21970SOL    HW268803   5.380   4.662   4.220 -0.1111  0.2248 -0.2020
21971SOL     OW68804   6.442   7.749   0.137 -0.3362 -0.1137  0.2241
21971SOL    HW168805   6.446   7.659   0.168 -2.6435  0.1220  1.3297
21971SOL    HW268806   6.511   7.795   0.187  0.9835 -1.2403 -0.4879
21972SOL     OW68807   3.594   3.024   0.186 -0.8955 -0.5023  0.1008
21972SOL    HW168808   3.643   3.024   0.268 -1.8443  0.4391  0.6933
21972SOL    HW268809   3.658   2.999   0.119  0.6434  1.5709  0.6916
21973SOL     OW68810   5.730   7.359   2.033  0.2539 -0.3156  0.0193
21973SOL    HW168811   5.749   7.388   2.122 -0.2554  0.8684 -0.2473
21973SOL    HW268812   5.635   7.358   2.028  0.2785 -0.4763 -0.4881
21974SOL     OW68813   3.240   9.022   1.708 -0.0861 -0.3934  0.0198
21974SOL    HW168814   3.309   9.043   1.771 -0.5139  0.2811  0.2828
21974SOL    HW268815   3.283   9.024   1.623 -0.2087  2.4823 -0.0874
21975SOL     OW68816   9.445   3.747   7.679  0.3357 -0.1189  0.0799
21975SOL    HW168817   9.481   3.792   7.603 -0.1792  0.6412  0.2829
21975SOL    HW268818   9.402   3.669   7.642  0.8007 -0.1982 -0.3154
21976SOL     OW68819   5.723   8.766   7.601  0.0565 -0.4840  0.4749
21976SOL    HW168820   5.760   8.686   7.637  0.0117 -0.5578  0.3589
21976SOL    HW268821   5.628   8.754   7.606  0.0113 -1.3984 -1.5905
21977SOL     OW68822   6.649   2.280   0.820  0.1878 -0.2996 -0.6525
21977SOL    HW168823   6.738   2.245   0.809  0.3090  0.3767 -2.1344
21977SOL    HW268824   6.616   2.288   0.730 -0.7484  1.0063 -0.2201
21978SOL     OW68825   4.468   4.478   1.287  0.5586  0.1899  0.3083
21978SOL    HW168826   4.486   4.480   1.193  1.4024 -0.7569  0.4339
21978SOL    HW268827   4.513   4.400   1.319 -0.9408 -0.3281  1.2648
21979SOL     OW68828   8.812   5.158   1.511  0.1949 -0.2839 -0.0813
21979SOL    HW168829   8.804   5.147   1.416  1.6143 -1.6272 -0.0810
21979SOL    HW268830   8.880   5.224   1.522 -0.7681  0.7214  0.0211
21980SOL     OW68831   0.559   5.258   3.903  0.0641 -0.2748 -0.2924
21980SOL    HW168832   0.586   5.286   3.816 -0.8216  2.1093  0.1315
21980SOL    HW268833   0.611   5.310   3.963 -0.5451 -0.6407  0.5847
21981SOL     OW68834   5.736   5.232   5.184 -0.1310  0.3922  0.2633
21981SOL    HW168835   5.701   5.148   5.213  1.9643 -1.2715 -1.6326
21981SOL    HW268836   5.810   5.249   5.242  0.1385  0.3332 -0.0580
21982SOL     OW68837   8.092   5.816   2.784 -0.0676  0.2273 -0.5996
21982SOL    HW168838   7.997   5.809   2.782  0.0219 -1.4828 -1.0111
21982SOL    HW268839   8.114   5.810   2.877 -0.2837 -1.8099 -0.6312
21983SOL     OW68840   3.610   6.775   0.832 -0.2342  0.3499  0.1214
21983SOL    HW168841   3.606   6.680   0.827  0.6122  0.2849  0.5194
21983SOL    HW268842   3.695   6.797   0.792 -0.6937  0.9854 -0.5343
21984SOL     OW68843   4.662   0.489   4.702 -0.0899  0.2156  0.1311
21984SOL    HW168844   4.736   0.510   4.760  0.0127 -1.0032  0.4668
21984SOL    HW268845   4.597   0.450   4.760 -0.9863  1.2018 -0.1799
21985SOL     OW68846   4.367   4.456   6.442 -0.2212  0.0100 -0.1344
21985SOL    HW168847   4.343   4.364   6.454  0.0224  0.0238  0.5291
21985SOL    HW268848   4.285   4.499   6.418 -0.8918  0.0390  1.9877
21986SOL     OW68849   4.486   0.741   4.084  0.4853 -0.0292 -0.0646
21986SOL    HW168850   4.443   0.671   4.133 -1.7472  2.6375  2.1198
21986SOL    HW268851   4.414   0.792   4.047  1.9557  1.7819 -0.5727
21987SOL     OW68852   8.251   0.984   6.451 -0.5676 -0.5344 -0.1148
21987SOL    HW168853   8.290   1.032   6.378 -0.2996  0.0528  0.4034
21987SOL    HW268854   8.236   0.896   6.417 -0.3237 -0.3051 -0.8335
21988SOL     OW68855   1.895   6.622   1.764  0.4256  0.3449  0.0992
21988SOL    HW168856   1.843   6.685   1.813 -0.1135  0.6453 -0.8287
21988SOL    HW268857   1.839   6.544   1.758  0.5407  0.2637  0.0829
21989SOL     OW68858   5.261   9.579   5.472  0.1457 -0.4428 -0.0723
21989SOL    HW168859   5.226   9.657   5.428 -0.1374 -1.0748 -0.9776
21989SOL    HW268860   5.290   9.612   5.557 -0.7017  0.5064 -0.1261
21990SOL     OW68861   9.461   9.561   8.908  0.2815  0.4000  0.2512
21990SOL    HW168862   9.389   9.518   8.953  2.3089 -1.4846  1.9243
21990SOL    HW268863   9.476   9.641   8.959  0.1732  0.1526  0.6802
21991SOL     OW68864   0.712   0.385   0.897 -0.2740  0.0001  0.0985
21991SOL    HW168865   0.765   0.351   0.969 -1.1120  1.5382  1.5293
21991SOL    HW268866   0.622   0.376   0.928 -0.6022  1.5085 -0.3539
21992SOL     OW68867   6.573   9.320   6.985  0.0693 -0.0796  0.4577
21992SOL    HW168868   6.584   9.395   7.044  2.0904 -0.1541  0.2490
21992SOL    HW268869   6.660   9.281   6.980 -0.6620 -1.6636 -0.4923
21993SOL     OW68870   7.033   2.664   4.028 -0.0507  0.1842  0.1500
21993SOL    HW168871   7.009   2.712   3.948 -0.6011  0.2356  0.3426
21993SOL    HW268872   6.968   2.595   4.036  0.8562 -0.7482 -0.2357
21994SOL     OW68873   7.836   2.954   8.316 -0.7419 -0.2555  0.2968
21994SOL    HW168874   7.825   3.047   8.337 -0.4204 -0.2220  0.3250
21994SOL    HW268875   7.864   2.914   8.399  3.3744  0.3559 -0.5996
21995SOL     OW68876   9.388   7.396   5.180  0.1012  0.3661  0.2718
21995SOL    HW168877   9.331   7.385   5.104  0.5171  1.5056 -0.2212
21995SOL    HW268878   9.440   7.315   5.182 -1.1921 -0.4842  0.4667
21996SOL     OW68879   5.484   5.624   0.664 -0.3652 -0.0766 -0.3295
21996SOL    HW168880   5.431   5.586   0.595  0.9788  1.5701 -2.4106
21996SOL    HW268881   5.574   5.598   0.642  0.3199  2.1677 -0.4782
21997SOL     OW68882   1.522   5.441   8.167 -0.6648  0.2918 -0.1847
21997SOL    HW168883   1.485   5.395   8.092 -0.3928 -0.1178 -0.0678
21997SOL    HW268884   1.468   5.415   8.241  1.2311 -2.2136  0.4549
21998SOL     OW68885   8.301   6.709   8.611 -0.3252 -0.1033  0.1435
21998SOL    HW168886   8.396   6.722   8.616 -0.4871  1.3226  0.0248
21998SOL    HW268887   8.265   6.782   8.663 -1.4052  0.9045 -1.9205
21999SOL     OW68888   6.838   2.992   6.069  0.0603 -0.1494  0.8487
21999SOL    HW168889   6.807   3.034   6.149  0.6262 -0.7311  1.3762
21999SOL    HW268890   6.876   2.909   6.098  3.2790  1.0488  0.3872
22000SOL     OW68891   2.216   3.731   1.781 -0.4854 -0.3482 -0.2240
22000SOL    HW168892   2.164   3.811   1.780  0.7733  0.5341  1.3244
22000SOL    HW268893   2.307   3.761   1.785  0.0203 -1.8557  0.2143
22001SOL     OW68894   9.612   3.846   1.096 -0.1550  0.4926  0.0740
22001SOL    HW168895   9.687   3.789   1.077 -1.2169 -0.3945 -1.7648
22001SOL    HW268896   9.640   3.933   1.068  0.5362  0.3833  0.3898
22002SOL     OW68897   7.530   4.760   5.719 -0.2774 -0.2340  0.0535
22002SOL    HW168898   7.570   4.825   5.661 -0.7697 -0.6774 -0.8027
22002SOL    HW268899   7.603   4.705   5.748  0.3827  1.4336  1.8504
22003SOL     OW68900   6.769   8.093   1.830 -0.1979  0.4144  0.1863
22003SOL    HW168901   6.757   8.181   1.794  0.9385  0.1820 -0.8618
22003SOL    HW268902   6.830   8.105   1.903 -0.0954  0.5110  0.0863
22004SOL     OW68903   3.649   8.841   1.416  0.5602 -0.2712 -0.0553
22004SOL    HW168904   3.675   8.816   1.505  0.2692 -0.3776  0.0030
22004SOL    HW268905   3.647   8.758   1.368  0.2006 -0.2873 -0.0209
22005SOL     OW68906   3.363   8.849   3.648  0.3774 -0.0521  0.2108
22005SOL    HW168907   3.277   8.810   3.629  0.7374 -0.4734 -0.5620
22005SOL    HW268908   3.358   8.937   3.612  0.7290 -0.5307 -1.0456
22006SOL     OW68909   7.094   8.079   1.411 -0.0271  0.0500  0.7379
22006SOL    HW168910   7.056   7.997   1.378 -0.1524 -0.9389  3.1088
22006SOL    HW268911   7.020   8.140   1.415 -0.7711 -0.8695  2.2740
22007SOL     OW68912   4.122   5.513   4.940  0.4163  0.0576  1.0349
22007SOL    HW168913   4.097   5.572   4.870  4.0555  0.9256  0.2613
22007SOL    HW268914   4.058   5.529   5.010 -1.2141  1.7199 -0.7238
22008SOL     OW68915   6.925   5.418   0.712  0.0238  0.4092  0.2008
22008SOL    HW168916   6.892   5.337   0.672  3.3167 -1.5248  1.1109
22008SOL    HW268917   6.932   5.479   0.639 -0.6046 -0.7862 -0.9004
22009SOL     OW68918   0.732   3.398   4.819 -0.1353 -0.2585 -0.0785
22009SOL    HW168919   0.738   3.494   4.817 -0.6175 -0.2242  0.1013
22009SOL    HW268920   0.798   3.372   4.883  1.0138 -0.1385 -1.1740
22010SOL     OW68921   9.643   2.817   2.109  1.0256 -0.0212 -0.0538
22010SOL    HW168922   9.658   2.791   2.018  2.4259  1.2309 -0.2158
22010SOL    HW268923   9.674   2.743   2.161  1.4920 -0.1832 -0.5644
22011SOL     OW68924   4.919   3.092   7.450 -0.9032  0.1582  0.8312
22011SOL    HW168925   4.846   3.078   7.390  0.3174 -1.1496 -0.3993
22011SOL    HW268926   4.917   3.016   7.508  1.4992 -1.7902 -1.4180
22012SOL     OW68927   2.902   0.211   6.668  0.4283 -0.1286 -0.6446
22012SOL    HW168928   2.848   0.285   6.696  1.1060  0.0511  0.2482
22012SOL    HW268929   2.863   0.182   6.586  1.6578  2.8219 -2.3991
22013SOL     OW68930   4.740   1.477   8.852  0.1776 -0.1437 -0.6933
22013SOL    HW168931   4.706   1.564   8.830  0.8487  0.6232  1.1065
22013SOL    HW268932   4.787   1.490   8.934  1.4410 -1.9581 -1.0642
22014SOL     OW68933   2.061   3.734   7.475 -0.2212 -0.2810 -0.4073
22014SOL    HW168934   2.155   3.727   7.494 -0.3533 -0.5508  0.1404
22014SOL    HW268935   2.032   3.644   7.461 -0.3802 -0.1888 -0.6859
22015SOL     OW68936   5.066   3.604   2.149  0.1859  0.3304  0.2872
22015SOL    HW168937   4.974   3.583   2.161  0.1776  1.4162  2.6630
22015SOL    HW268938   5.107   3.519   2.130 -1.3710 -0.0196 -1.9976
22016SOL     OW68939   3.216   5.399   6.943 -0.0217  0.2058  0.4550
22016SOL    HW168940   3.143   5.448   6.904  0.4190  0.2189 -0.3666
22016SOL    HW268941   3.179   5.362   7.023 -1.3684 -1.0173 -0.6784
22017SOL     OW68942   0.764   3.728   8.105  0.1176 -0.2149 -0.1603
22017SOL    HW168943   0.821   3.686   8.040  0.7773  1.9426 -1.0639
22017SOL    HW268944   0.823   3.752   8.176  0.3823  1.8293 -1.0004
22018SOL     OW68945   6.525   2.183   9.174 -0.3537  0.1256  0.2733
22018SOL    HW168946   6.540   2.210   9.265  1.3777  2.3179 -0.5877
22018SOL    HW268947   6.477   2.256   9.135 -1.9714 -1.2252 -0.3940
22019SOL     OW68948   6.434   8.597   1.255 -0.6106  0.1538 -0.5320
22019SOL    HW168949   6.455   8.586   1.348  0.3328  0.8044 -0.6494
22019SOL    HW268950   6.401   8.686   1.248  1.2368  0.8508 -1.0984
22020SOL     OW68951   3.606   5.186   3.780 -0.1198 -0.0801  0.2038
22020SOL    HW168952   3.512   5.174   3.764  0.1720 -0.8912 -1.0403
22020SOL    HW268953   3.614   5.186   3.875 -1.4015  0.1804  0.3340
22021SOL     OW68954   3.117   0.539   6.291  0.4162  0.3486 -0.7779
22021SOL    HW168955   3.155   0.473   6.349  0.1795  0.8961  0.0185
22021SOL    HW268956   3.174   0.538   6.214  0.3858 -0.8137 -0.8086
22022SOL     OW68957   8.498   5.687   9.184  0.2569  0.3351  0.1536
22022SOL    HW168958   8.416   5.675   9.233  0.0900 -1.5056 -0.5128
22022SOL    HW268959   8.519   5.779   9.197 -0.2089  0.1453  3.0246
22023SOL     OW68960   5.423   2.892   0.678  1.0774  0.2909  0.3976
22023SOL    HW168961   5.378   2.896   0.593  1.8574  1.5751  0.0191
22023SOL    HW268962   5.397   2.807   0.714 -2.4914  1.3693  0.7113
22024SOL     OW68963   9.073   8.429   0.051  0.4120  0.0750  0.5413
22024SOL    HW168964   8.978   8.422   0.044  0.3609  1.6713 -1.0836
22024SOL    HW268965   9.088   8.514   0.093  1.1127  0.0346  0.3938
22025SOL     OW68966   0.140   8.073   1.147 -0.9250 -0.1988  0.1217
22025SOL    HW168967   0.054   8.032   1.145 -0.3698 -1.3989 -0.6416
22025SOL    HW268968   0.160   8.093   1.056 -0.0076 -0.8288  0.1654
22026SOL     OW68969   9.519   7.690   1.939  0.2260  0.7754 -0.8582
22026SOL    HW168970   9.592   7.749   1.960  1.1304 -1.0177  1.4065
22026SOL    HW268971   9.454   7.708   2.007 -0.3848  0.6317 -1.4043
22027SOL     OW68972   6.893   1.735   8.693  0.4859  0.2535 -0.3971
22027SOL    HW168973   6.808   1.768   8.721  0.3028 -0.0102 -0.6452
22027SOL    HW268974   6.956   1.781   8.749  0.2152  0.7899 -0.5287
22028SOL     OW68975   7.456   5.943   0.617  0.4796 -0.2638 -0.0006
22028SOL    HW168976   7.511   5.953   0.539 -1.3449 -1.7120 -1.5868
22028SOL    HW268977   7.471   5.853   0.646  1.2894  0.3186  1.5134
22029SOL     OW68978   9.012   2.417   3.294  0.4206  0.0917 -0.5631
22029SOL    HW168979   8.956   2.380   3.362  0.4253 -0.3145 -0.7745
22029SOL    HW268980   9.082   2.462   3.341 -0.3415  1.0108 -0.2926
22030SOL     OW68981   0.294   3.346   9.153  0.1913 -0.3625  0.0668
22030SOL    HW168982   0.298   3.257   9.188  2.8461  0.2081  1.4785
22030SOL    HW268983   0.273   3.400   9.230  1.7873  0.5019 -0.0721
22031SOL     OW68984   3.161   1.855   5.423 -0.6017  1.0208  0.0130
22031SOL    HW168985   3.119   1.849   5.337 -0.1157 -0.6470 -0.1516
22031SOL    HW268986   3.200   1.769   5.436  0.4710  1.6728  1.3398
22032SOL     OW68987   2.874   2.386   5.831  0.4744  0.2554 -0.2072
22032SOL    HW168988   2.956   2.434   5.841  0.6420 -0.0592 -0.0678
22032SOL    HW268989   2.808   2.442   5.872  0.7640  0.0967  0.4810
22033SOL     OW68990   1.682   1.353   4.644 -0.2134  0.3692 -0.3059
22033SOL    HW168991   1.742   1.308   4.704 -0.0223  0.4346 -0.4465
22033SOL    HW268992   1.665   1.288   4.575  2.2822  1.3937 -2.0420
22034SOL     OW68993   0.050   4.502   3.266 -0.0097  0.7285  0.0553
22034SOL    HW168994  -0.018   4.510   3.199  0.7196  0.7393 -0.7020
22034SOL    HW268995   0.125   4.548   3.229  1.0898 -1.0536 -0.0595
22035SOL     OW68996   6.481   8.990   1.858  0.0424  0.3486  0.3755
22035SOL    HW168997   6.421   8.929   1.900 -0.3326  1.2712  1.2091
22035SOL    HW268998   6.456   8.988   1.765 -1.3389  0.7648  0.7155
22036SOL     OW68999   6.663   2.766   4.245  0.0044 -0.2010 -0.7120
22036SOL    HW169000   6.628   2.798   4.161 -0.4389  1.9592  0.2464
22036SOL    HW269001   6.729   2.830   4.269  0.3067 -0.9477  0.4737
22037SOL     OW69002   0.133   6.479   4.652 -0.5737  0.4263 -0.2369
22037SOL    HW169003   0.084   6.408   4.611  0.9658 -0.5458 -0.4890
22037SOL    HW269004   0.145   6.544   4.583 -1.7745  0.8407 -0.0728
22038SOL     OW69005   3.554   2.283   9.401  0.4071 -0.2299 -0.6117
22038SOL    HW169006   3.568   2.191   9.376  0.3323 -0.1594 -0.9145
22038SOL    HW269007   3.588   2.288   9.491 -0.1272 -0.6911 -0.3786
22039SOL     OW69008   8.433   0.097   7.193  0.1022  0.1192  0.3812
22039SOL    HW169009   8.467   0.137   7.114 -1.3980 -0.5141 -0.6383
22039SOL    HW269010   8.431   0.168   7.257  0.6784  0.8094 -0.3547
22040SOL     OW69011   2.159   7.110   1.299 -0.2894 -0.2421 -0.8334
22040SOL    HW169012   2.153   7.015   1.310  1.9921 -0.4425 -0.8724
22040SOL    HW269013   2.196   7.122   1.211  2.3073  0.4982  0.2547
22041SOL     OW69014   3.769   7.882   0.201  0.2078 -0.1993 -0.0686
22041SOL    HW169015   3.786   7.958   0.145 -0.0496  0.1058  0.2673
22041SOL    HW269016   3.796   7.807   0.148 -2.9273 -0.2138 -1.8885
22042SOL     OW69017   5.697   3.703   8.293 -0.0593 -0.0824  0.4846
22042SOL    HW169018   5.732   3.634   8.348  0.3220 -0.2259  0.0723
22042SOL    HW269019   5.632   3.747   8.347  0.9168  0.3401  1.3557
22043SOL     OW69020   4.463   6.597   8.635  0.1724  0.2952 -0.4719
22043SOL    HW169021   4.531   6.572   8.573 -0.5262  1.8398 -1.9453
22043SOL    HW269022   4.389   6.540   8.612  0.4554 -0.3469  0.1468
22044SOL     OW69023   2.115   9.122   6.671 -0.6581 -0.0548 -0.5695
22044SOL    HW169024   2.083   9.036   6.697 -0.2373 -0.1863 -0.4818
22044SOL    HW269025   2.041   9.163   6.626 -0.4377 -1.0032 -1.8656
22045SOL     OW69026   5.434   3.974   6.543  0.0743 -0.0366  0.0150
22045SOL    HW169027   5.415   3.880   6.544  0.0155 -0.0845 -1.8312
22045SOL    HW269028   5.466   3.991   6.455  1.6846  1.4056  0.8045
22046SOL     OW69029   6.999   4.816   2.042  0.1258  0.1771 -0.3155
22046SOL    HW169030   7.010   4.842   2.133  1.6078 -0.5754 -0.2419
22046SOL    HW269031   7.019   4.722   2.041 -1.1455 -0.1133 -1.2185
22047SOL     OW69032   7.085   4.772   3.605 -0.3197 -0.7981  0.4545
22047SOL    HW169033   7.174   4.749   3.634  0.5228 -1.2150 -2.1756
22047SOL    HW269034   7.095   4.860   3.567 -1.4788 -0.0521  1.7832
22048SOL     OW69035   7.753   6.519   4.081  0.1077 -0.2742 -0.1127
22048SOL    HW169036   7.736   6.425   4.077  0.4047 -0.2913 -1.6579
22048SOL    HW269037   7.750   6.540   4.175  1.0044 -1.9880  0.3449
22049SOL     OW69038   4.079   6.959   0.154 -0.5078 -0.7033 -0.3110
22049SOL    HW169039   4.132   7.026   0.112  1.2729 -0.4450  2.0739
22049SOL    HW269040   4.020   6.928   0.086  0.8521  0.9600 -2.3799
22050SOL     OW69041   6.119   8.072   6.376 -0.5847 -0.1791 -0.1368
22050SOL    HW169042   6.146   8.095   6.465  1.2912 -1.6996 -0.2589
22050SOL    HW269043   6.178   8.122   6.320 -0.4311 -0.7571 -0.4931
22051SOL     OW69044   7.324   0.457   6.422 -0.4069  0.3244 -0.7022
22051SOL    HW169045   7.291   0.519   6.357 -4.9026  0.4323  1.2814
22051SOL    HW269046   7.320   0.505   6.505  0.3112 -1.2782  0.3179
22052SOL     OW69047   0.519   0.529   3.102 -0.2790 -0.1504  0.0703
22052SOL    HW169048   0.501   0.522   3.009 -0.5265 -2.2640  0.2397
22052SOL    HW269049   0.588   0.596   3.108  0.3882 -0.6352 -1.7060
22053SOL     OW69050   0.603   6.404   2.241 -1.1259  0.1725 -0.1333
22053SOL    HW169051   0.575   6.363   2.322 -1.4103  1.1147  0.2671
22053SOL    HW269052   0.530   6.390   2.181 -0.6037 -1.1812 -0.4830
22054SOL     OW69053   6.740   6.300   3.646  0.1522 -0.3188  0.5505
22054SOL    HW169054   6.807   6.339   3.701 -0.5299 -1.3069  2.1462
22054SOL    HW269055   6.677   6.371   3.630 -0.9492 -0.5964  3.2075
22055SOL     OW69056   7.191   3.831   7.848 -0.1386  0.0888  0.3626
22055SOL    HW169057   7.127   3.790   7.789  1.0194 -1.0496 -0.1531
22055SOL    HW269058   7.139   3.862   7.922 -1.2335 -1.3737  0.2594
22056SOL     OW69059   4.916   1.961   5.455  0.3238 -0.3465  0.4169
22056SOL    HW169060   4.890   1.879   5.414  1.9296 -0.8224  0.2685
22056SOL    HW269061   5.011   1.953   5.465  0.4665  1.3629  0.6919
22057SOL     OW69062   7.903   2.329   6.255 -0.2799  0.6588  0.5367
22057SOL    HW169063   7.815   2.297   6.234  0.3285 -0.2449 -0.8639
22057SOL    HW269064   7.907   2.327   6.350 -0.9581 -1.7393  0.5991
22058SOL     OW69065   5.521   4.441   6.075  0.0286 -0.3603  0.6037
22058SOL    HW169066   5.563   4.388   6.143  2.2155  0.6808  0.1430
22058SOL    HW269067   5.530   4.389   5.995  1.2518  0.1985  0.3504
22059SOL     OW69068   4.197   4.931   1.085  0.0762  0.0747  0.1074
22059SOL    HW169069   4.202   5.007   1.143  2.7478  0.6086 -0.6982
22059SOL    HW269070   4.201   4.856   1.144  2.9174  0.6105  0.7282
22060SOL     OW69071   3.168   6.442   5.796  0.7037  0.1443  0.2990
22060SOL    HW169072   3.155   6.453   5.702 -0.7252  0.0858  0.4666
22060SOL    HW269073   3.252   6.397   5.803  0.8547  0.1835 -0.9404
22061SOL     OW69074   6.931   4.162   0.613  0.3553 -0.2310 -0.1909
22061SOL    HW169075   6.971   4.233   0.664  4.7553  1.4396 -5.0380
22061SOL    HW269076   7.000   4.097   0.604 -1.5714 -2.3208 -0.8506
22062SOL     OW69077   2.793   6.057   5.594 -0.2777  0.2998 -0.3540
22062SOL    HW169078   2.815   5.964   5.600 -0.6446  0.2700  0.8145
22062SOL    HW269079   2.702   6.058   5.564 -0.5631  0.2303  0.4581
22063SOL     OW69080   8.557   5.680   3.348  0.0525  0.1756 -0.0484
22063SOL    HW169081   8.546   5.600   3.400 -0.1285 -0.0111 -0.3761
22063SOL    HW269082   8.642   5.670   3.306 -0.5549 -0.4669 -1.1674
22064SOL     OW69083   0.449   6.781   3.268 -0.6301 -0.5394 -0.1318
22064SOL    HW169084   0.450   6.692   3.304  0.0262 -0.7272 -0.5906
22064SOL    HW269085   0.452   6.838   3.345 -0.2433 -0.9223  0.1409
22065SOL     OW69086   8.351   1.955   9.067  0.1991 -0.3713 -0.1812
22065SOL    HW169087   8.392   1.993   8.989 -0.3642 -0.9634 -0.7853
22065SOL    HW269088   8.373   1.862   9.062  0.7449 -0.3063  0.7551
22066SOL     OW69089   4.839   5.342   5.077  0.1451  0.3569 -0.0226
22066SOL    HW169090   4.847   5.336   4.982 -0.3619  0.5429 -0.0799
22066SOL    HW269091   4.750   5.314   5.096  0.4091 -0.1685  0.4495
22067SOL     OW69092   6.047   9.035   7.591  0.3362 -0.2243  0.0712
22067SOL    HW169093   6.048   9.035   7.496  2.1466  0.7812  0.0398
22067SOL    HW269094   6.138   9.023   7.617 -0.0153  0.1785  1.6661
22068SOL     OW69095   7.132   4.409   1.629 -0.6473 -0.6678  0.3118
22068SOL    HW169096   7.099   4.343   1.690  1.8337 -1.8870  0.4711
22068SOL    HW269097   7.099   4.382   1.544 -0.7276 -1.3927  0.5626
22069SOL     OW69098   1.219   9.635   4.824 -0.4591  0.1872 -0.4585
22069SOL    HW169099   1.157   9.620   4.752  1.1144 -0.7797 -1.6710
22069SOL    HW269100   1.278   9.560   4.821 -0.2554  0.1814  1.7995
22070SOL     OW69101   3.722   5.645   1.478  0.0565  0.0466  0.9228
22070SOL    HW169102   3.695   5.594   1.402  0.8214  0.4855  0.3477
22070SOL    HW269103   3.711   5.736   1.451  1.0262  0.2193  1.0644
22071SOL     OW69104   1.006   6.363   0.698  0.8597 -0.1063  0.1384
22071SOL    HW169105   0.968   6.317   0.773  0.7222 -0.6576 -0.2586
22071SOL    HW269106   0.938   6.426   0.672  0.5413 -0.5362 -0.0762
22072SOL     OW69107   6.442   6.295   6.177 -0.6896 -0.0942  0.0423
22072SOL    HW169108   6.484   6.315   6.261 -0.5092  1.9985 -0.4936
22072SOL    HW269109   6.444   6.378   6.129  1.7577 -1.8391 -3.1746
22073SOL     OW69110   6.923   5.924   3.581  0.1013  0.3855  0.3751
22073SOL    HW169111   7.006   5.952   3.620  0.3799 -1.1229  0.9505
22073SOL    HW269112   6.947   5.847   3.528 -0.8256  0.3371  0.0182
22074SOL     OW69113   5.184   0.848   8.257  0.5105 -0.3778  0.1845
22074SOL    HW169114   5.173   0.917   8.322  0.0753  0.2455 -0.5406
22074SOL    HW269115   5.149   0.769   8.300 -2.2980  0.5354 -0.2099
22075SOL     OW69116   6.699   3.449   9.468 -0.1134  0.5503 -0.4137
22075SOL    HW169117   6.724   3.433   9.377  0.7710  0.2006 -0.1195
22075SOL    HW269118   6.722   3.369   9.514 -1.7176  0.2412 -0.0796
22076SOL     OW69119   7.867   3.022   1.408 -0.3393 -0.7830 -0.4267
22076SOL    HW169120   7.791   3.038   1.463 -0.3435 -0.1952 -0.6040
22076SOL    HW269121   7.846   3.063   1.324  0.5685  0.2518 -0.1676
22077SOL     OW69122   3.057   2.694   8.385  0.0687 -0.1184 -0.1629
22077SOL    HW169123   2.997   2.701   8.311 -0.1920 -0.3828  0.0233
22077SOL    HW269124   3.133   2.647   8.349 -0.6180 -1.4491  0.0682
22078SOL     OW69125   1.500   9.087   1.799 -0.0252 -0.3967  0.1810
22078SOL    HW169126   1.586   9.128   1.809  0.1414 -1.0589  1.7186
22078SOL    HW269127   1.478   9.055   1.886 -1.6669 -0.5950 -0.2726
22079SOL     OW69128   5.436   9.622   5.151 -0.5863  0.7350  0.2548
22079SOL    HW169129   5.407   9.532   5.134 -1.8355  1.0981  0.3752
22079SOL    HW269130   5.477   9.619   5.238 -0.0320  0.1666 -0.0178
22080SOL     OW69131   0.342   6.786   1.467  0.7328  0.1667 -0.3420
22080SOL    HW169132   0.413   6.763   1.527 -0.0543 -1.6037 -0.0272
22080SOL    HW269133   0.366   6.872   1.433  0.7587  1.7965  3.2899
22081SOL     OW69134   8.380   7.576   1.313 -0.2886  0.0846  0.2908
22081SOL    HW169135   8.301   7.544   1.271  0.4794 -0.0132 -1.1504
22081SOL    HW269136   8.369   7.554   1.405 -0.9673 -1.9257 -0.2182
22082SOL     OW69137   8.459   8.494   3.416  0.3195  0.6402  0.2576
22082SOL    HW169138   8.409   8.432   3.363  0.4503  2.2147 -1.8281
22082SOL    HW269139   8.532   8.444   3.450 -0.1296 -0.5872 -0.5279
22083SOL     OW69140   8.868   7.367   4.187 -0.1337  0.2362  0.1907
22083SOL    HW169141   8.801   7.349   4.253 -0.4532 -0.3733 -0.2865
22083SOL    HW269142   8.898   7.280   4.159  0.2229  0.4911 -0.2321
22084SOL     OW69143   8.710   2.744   3.170 -0.1853  0.6672  0.1155
22084SOL    HW169144   8.692   2.694   3.250  1.3754  1.3204  0.9176
22084SOL    HW269145   8.773   2.691   3.122 -1.7481 -0.1334 -1.1577
22085SOL     OW69146   4.165   3.079   8.632  0.0488  0.0646 -0.1294
22085SOL    HW169147   4.170   2.986   8.607  0.2641 -0.1496  0.6780
22085SOL    HW269148   4.188   3.080   8.724 -0.6920  0.8468  0.0579
22086SOL     OW69149   0.246   4.657   0.710 -0.0431 -0.0455  0.4453
22086SOL    HW169150   0.312   4.650   0.641 -1.7097 -0.0760 -1.1983
22086SOL    HW269151   0.170   4.698   0.668 -0.0991  2.9318  3.0035
22087SOL     OW69152   9.616   2.232   8.153 -0.1998 -0.7887  0.1296
22087SOL    HW169153   9.549   2.199   8.213 -0.9358  0.0353 -0.2076
22087SOL    HW269154   9.592   2.324   8.139 -0.1606 -1.0107 -1.5685
22088SOL     OW69155   6.502   1.654   5.128 -0.5066 -0.2071  0.1143
22088SOL    HW169156   6.536   1.611   5.049  0.4947  1.0322 -0.1478
22088SOL    HW269157   6.579   1.669   5.183 -0.9362  0.6084  0.5134
22089SOL     OW69158   7.976   9.117   1.998 -0.0425  0.2778  0.0599
22089SOL    HW169159   7.960   9.079   2.085  0.6604 -0.2828 -0.0458
22089SOL    HW269160   7.896   9.100   1.949  0.4470 -1.6633 -0.1800
22090SOL     OW69161   2.221   8.413   1.109  0.5732 -0.0600 -0.2505
22090SOL    HW169162   2.228   8.338   1.168  0.4144 -0.4729 -0.7543
22090SOL    HW269163   2.272   8.482   1.152  2.7241 -1.1594 -0.8921
22091SOL     OW69164   0.954   0.647   2.038 -0.3291 -0.8069 -0.2892
22091SOL    HW169165   0.879   0.687   1.993 -0.5233  0.2713  0.9301
22091SOL    HW269166   1.023   0.713   2.033 -0.0614 -1.0443  0.2024
22092SOL     OW69167   5.905   5.494   9.621  0.1163  0.2963  0.2567
22092SOL    HW169168   5.989   5.523   9.586 -0.6589  0.9442 -1.1262
22092SOL    HW269169   5.892   5.547   9.700  1.2893 -0.2762  0.8548
22093SOL     OW69170   6.117   7.010   6.152  0.3737  0.2342 -0.2027
22093SOL    HW169171   6.190   7.068   6.130  0.7097  0.0638  0.4558
22093SOL    HW269172   6.045   7.070   6.171  0.4678  0.4140 -0.4039
22094SOL     OW69173   3.018   6.118   3.852 -0.1434 -0.0419  0.1717
22094SOL    HW169174   3.031   6.073   3.936  1.1017  0.4684  0.2771
22094SOL    HW269175   3.107   6.131   3.818 -0.6047  0.1563 -1.0248
22095SOL     OW69176   3.207   2.535   7.920 -0.2183 -0.1119 -0.4433
22095SOL    HW169177   3.206   2.462   7.983 -0.6157 -1.0088 -1.4450
22095SOL    HW269178   3.221   2.613   7.974 -0.1904 -0.8803  0.7127
22096SOL     OW69179   7.721   6.529   6.123  0.3550  0.1506  0.0123
22096SOL    HW169180   7.752   6.516   6.212  0.3848  0.2870  0.0218
22096SOL    HW269181   7.674   6.448   6.102  1.5750 -0.4958 -0.3642
22097SOL     OW69182   4.086   6.815   6.088  0.0004 -0.5716  0.0043
22097SOL    HW169183   4.018   6.750   6.072  0.9089 -1.2176 -1.4174
22097SOL    HW269184   4.065   6.888   6.030 -0.3641 -0.0641  0.7525
22098SOL     OW69185   9.097   4.105   2.543  0.0100  0.0973 -0.1670
22098SOL    HW169186   9.074   4.154   2.464  2.0042 -0.5778 -1.2226
22098SOL    HW269187   9.139   4.169   2.600 -0.2190  0.2995 -0.2264
22099SOL     OW69188   3.407   4.513   6.445  0.2184 -0.0329 -0.1530
22099SOL    HW169189   3.400   4.608   6.441 -0.3824  0.0212  1.4136
22099SOL    HW269190   3.316   4.482   6.446  0.3915 -0.5474  0.4815
22100SOL     OW69191   7.015   0.153   5.777 -0.6978  0.0881 -0.1611
22100SOL    HW169192   6.933   0.140   5.825  0.0016 -0.7109  0.8548
22100SOL    HW269193   6.987   0.167   5.687 -2.0057  0.8537  0.3252
22101SOL     OW69194   6.756   4.444   0.775  0.8813 -0.2526  0.3844
22101SOL    HW169195   6.822   4.428   0.708 -1.3744 -1.4885 -1.7009
22101SOL    HW269196   6.702   4.365   0.775 -0.6510  0.7127  1.9430
22102SOL     OW69197   7.429   2.096   0.674 -0.1712 -0.3007 -0.1547
22102SOL    HW169198   7.352   2.039   0.674  0.8370 -1.7363 -0.2286
22102SOL    HW269199   7.488   2.057   0.739  0.1463  1.2790  0.5503
22103SOL     OW69200   4.524   8.088   2.035  0.3384 -0.4888  0.0097
22103SOL    HW169201   4.525   8.067   1.942 -0.2852 -2.0502  0.3333
22103SOL    HW269202   4.433   8.109   2.055  0.4587 -0.2108  0.2880
22104SOL     OW69203   7.993   2.073   7.816 -0.2601 -0.0129 -0.0614
22104SOL    HW169204   7.933   2.009   7.778 -0.8722  0.0393  0.8013
22104SOL    HW269205   7.938   2.146   7.842  0.5459  1.3748 -1.9661
22105SOL     OW69206   9.624   6.766   9.537  0.5514  0.1808 -0.2415
22105SOL    HW169207   9.710   6.784   9.577  0.4651  0.6437 -0.2623
22105SOL    HW269208   9.637   6.783   9.444  0.7213 -0.7877 -0.4135
22106SOL     OW69209   2.710   1.104   1.131 -0.1933 -0.0832 -0.3758
22106SOL    HW169210   2.652   1.152   1.072 -0.7454 -0.6921 -0.3242
22106SOL    HW269211   2.777   1.067   1.073 -0.5768 -0.4490 -0.5871
22107SOL     OW69212   6.826   1.172   7.393  0.0819  0.4478 -0.5808
22107SOL    HW169213   6.830   1.256   7.439 -1.8995  0.9322 -1.1978
22107SOL    HW269214   6.740   1.136   7.417  1.5264 -2.2720  1.0751
22108SOL     OW69215   7.640   5.946   3.006  0.7776 -0.5176  0.1776
22108SOL    HW169216   7.683   5.910   3.083  1.6098  0.6241  0.2682
22108SOL    HW269217   7.670   6.037   3.001 -0.7579  0.0019 -0.3914
22109SOL     OW69218   5.328   1.677   6.833 -0.4784  0.5212  0.5933
22109SOL    HW169219   5.253   1.682   6.774 -0.6589 -0.1784  0.7594
22109SOL    HW269220   5.304   1.734   6.906 -1.9190 -1.5153  1.8090
22110SOL     OW69221   2.362   3.838   6.017  0.1557 -0.4065 -0.3334
22110SOL    HW169222   2.442   3.883   6.044  0.1553 -0.6561  0.1101
22110SOL    HW269223   2.293   3.904   6.025  0.5104  0.1886 -2.0086
22111SOL     OW69224   2.404   2.011   8.178 -0.7370 -0.5458 -0.2146
22111SOL    HW169225   2.416   1.916   8.179 -0.7819 -0.5689 -1.0601
22111SOL    HW269226   2.329   2.026   8.121 -1.5519 -0.0690  0.9454
22112SOL     OW69227   0.541   3.846   1.164  0.0192 -0.2672 -0.5916
22112SOL    HW169228   0.526   3.752   1.154  0.5801 -0.2373 -1.7964
22112SOL    HW269229   0.633   3.853   1.189  0.0941 -0.0166 -0.9352
22113SOL     OW69230   1.551   6.442   2.783 -0.6324 -0.5179 -0.1341
22113SOL    HW169231   1.567   6.498   2.858 -0.0272 -0.2737 -0.4349
22113SOL    HW269232   1.474   6.391   2.806 -1.1571  0.3902  0.1747
22114SOL     OW69233   0.760   5.750   0.915  0.6928  0.1792  0.0425
22114SOL    HW169234   0.710   5.680   0.873  3.1276 -0.2588 -2.4630
22114SOL    HW269235   0.833   5.706   0.958  0.2561  0.9543  1.6532
22115SOL     OW69236   6.078   2.533   9.553  0.6759 -0.1553  0.4287
22115SOL    HW169237   6.030   2.450   9.548 -1.1066  0.7260  1.7779
22115SOL    HW269238   6.132   2.525   9.632 -0.0150  0.1920  0.9502
22116SOL     OW69239   3.084   2.781   6.359  0.2209 -0.1223 -0.5524
22116SOL    HW169240   3.029   2.855   6.386 -0.9547 -0.2745 -2.3310
22116SOL    HW269241   3.127   2.753   6.439  0.7715  2.5236  0.1753
22117SOL     OW69242   9.013   6.249   5.964 -0.0318 -0.3979  0.0661
22117SOL    HW169243   9.010   6.311   5.892  2.1746 -1.8714 -1.4226
22117SOL    HW269244   8.926   6.209   5.965 -0.4779  0.4942 -0.9924
22118SOL     OW69245   7.580   4.114   7.020  0.2966 -0.3472 -0.1086
22118SOL    HW169246   7.519   4.046   6.991  0.2991 -0.8728  1.0568
22118SOL    HW269247   7.612   4.154   6.939  1.6720 -2.9219 -0.9433
22119SOL     OW69248   2.919   4.262   5.896  0.5276  0.1100 -0.2871
22119SOL    HW169249   2.834   4.289   5.861  0.7079  1.4205  0.2281
22119SOL    HW269250   2.969   4.234   5.819  0.7603  2.4959 -1.0712
22120SOL     OW69251   5.094   3.862   4.824 -0.0662  0.3199 -0.4071
22120SOL    HW169252   5.041   3.783   4.840 -0.1446  0.6212  0.9963
22120SOL    HW269253   5.166   3.854   4.887 -0.6770  1.8902  0.5357
22121SOL     OW69254   9.319   8.197   3.338 -0.4118 -0.2028  0.6436
22121SOL    HW169255   9.245   8.238   3.294 -0.8339 -1.2730  0.3350
22121SOL    HW269256   9.313   8.105   3.314  1.9295 -0.0734 -0.6775
22122SOL     OW69257   2.427   2.604   3.443  0.1543  0.2979  0.0923
22122SOL    HW169258   2.462   2.515   3.434  1.2846  0.6422  0.8582
22122SOL    HW269259   2.354   2.608   3.381  0.5193 -0.9443 -0.4387
22123SOL     OW69260   0.483   6.435   2.872 -0.0307  0.0412 -0.3551
22123SOL    HW169261   0.499   6.517   2.919 -0.1843 -0.2318  0.1860
22123SOL    HW269262   0.393   6.444   2.840 -1.2649 -1.1552  2.3964
22124SOL     OW69263   9.213   7.561   5.542 -0.2034  0.3732  0.6959
22124SOL    HW169264   9.158   7.507   5.600 -1.9041  1.3208  0.0366
22124SOL    HW269265   9.222   7.508   5.463  0.8768 -0.2938  1.2461
22125SOL     OW69266   5.037   7.187   0.073  0.5987 -0.5540 -0.9903
22125SOL    HW169267   4.979   7.215   0.144 -0.6710 -0.6521 -1.9577
22125SOL    HW269268   5.090   7.264   0.054  1.2453 -0.6449  0.3141
22126SOL     OW69269   2.485   2.581   5.252  0.0289  0.1843 -0.6802
22126SOL    HW169270   2.410   2.522   5.250 -1.0809  1.5472 -1.0872
22126SOL    HW269271   2.449   2.666   5.227  1.5559  1.0589 -0.0484
22127SOL     OW69272   0.848   5.412   3.978  0.7344 -0.1290 -0.0899
22127SOL    HW169273   0.803   5.476   3.922  1.0130  0.7651  0.6850
22127SOL    HW269274   0.924   5.385   3.926  1.5173  1.4066  0.1882
22128SOL     OW69275   6.559   8.806   8.294 -0.3177  0.3603  0.1229
22128SOL    HW169276   6.619   8.852   8.236 -0.0814  0.3692  0.3683
22128SOL    HW269277   6.550   8.719   8.255 -0.4418  0.4831 -0.1194
22129SOL     OW69278   2.386   4.785   5.734 -0.6921 -0.4348  0.2015
22129SOL    HW169279   2.374   4.699   5.693 -0.3207  0.0859 -1.0232
22129SOL    HW269280   2.300   4.806   5.770 -1.9240  0.3957 -2.8964
22130SOL     OW69281   4.250   5.577   0.272 -0.1997  0.3062  0.0004
22130SOL    HW169282   4.184   5.620   0.327 -0.8473  0.5892 -0.9639
22130SOL    HW269283   4.231   5.609   0.183  0.8535 -0.0923 -0.3796
22131SOL     OW69284   8.372   9.026   7.728 -0.0665  0.8403  0.2414
22131SOL    HW169285   8.435   9.026   7.656 -0.8469  1.8672 -0.4604
22131SOL    HW269286   8.287   9.028   7.685 -0.7807 -3.1056  1.0741
22132SOL     OW69287   6.278   0.543   0.839 -0.7853  0.1142  0.7132
22132SOL    HW169288   6.332   0.619   0.856 -1.3856  0.7729 -0.2024
22132SOL    HW269289   6.212   0.573   0.776  0.2301 -1.6564 -1.3514
22133SOL     OW69290   8.066   9.176   8.448  0.0396 -0.2751  0.2527
22133SOL    HW169291   8.026   9.162   8.362 -0.4397 -1.7164  0.6869
22133SOL    HW269292   7.993   9.191   8.507  0.3793  0.9117  0.4056
22134SOL     OW69293   5.528   4.020   3.274 -0.2191  0.3506 -0.1018
22134SOL    HW169294   5.587   3.945   3.266 -0.7365  0.1083 -2.4306
22134SOL    HW269295   5.448   3.983   3.312  0.0385  0.0419  0.1487
22135SOL     OW69296   1.249   1.301   3.916  0.0856  0.2157 -0.0782
22135SOL    HW169297   1.314   1.371   3.910  1.4382 -0.9660  0.0848
22135SOL    HW269298   1.263   1.248   3.838  2.4353 -2.5507  2.0060
22136SOL     OW69299   8.203   4.548   0.605  0.4666  0.3267 -0.5169
22136SOL    HW169300   8.151   4.499   0.669  3.1100 -0.6111  1.0794
22136SOL    HW269301   8.163   4.635   0.603 -1.8224 -0.6569 -0.2946
22137SOL     OW69302   2.801   1.854   9.013 -0.7577  0.0170  0.1313
22137SOL    HW169303   2.861   1.781   9.030 -2.0429 -0.7516  1.6130
22137SOL    HW269304   2.820   1.918   9.081 -0.0576  0.8073 -0.7936
22138SOL     OW69305   4.839   2.649   9.065  0.4403  0.4847  0.3817
22138SOL    HW169306   4.871   2.562   9.089 -0.2549  0.4041  1.0550
22138SOL    HW269307   4.882   2.668   8.982  0.4309 -0.6017  0.1130
22139SOL     OW69308   5.791   8.563   4.004  0.0918 -0.1060  0.6478
22139SOL    HW169309   5.849   8.638   3.988 -1.2648  0.8902  0.2489
22139SOL    HW269310   5.825   8.494   3.946  0.8330  0.4798  0.3711
22140SOL     OW69311   8.109   4.528   0.067 -0.2737  0.1409 -0.4865
22140SOL    HW169312   8.043   4.539   0.136 -1.2285  1.8247 -1.5889
22140SOL    HW269313   8.183   4.581   0.096 -0.6411  0.7796 -0.6952
22141SOL     OW69314   0.804   0.704   4.505  0.3976 -0.3044 -0.0611
22141SOL    HW169315   0.893   0.681   4.532  1.3020  1.8112 -0.9699
22141SOL    HW269316   0.795   0.664   4.418  0.2330 -1.0211  0.2842
22142SOL     OW69317   7.828   1.260   3.361  0.8440 -0.1576  0.5574
22142SOL    HW169318   7.773   1.303   3.295 -0.3106  0.8827  2.1136
22142SOL    HW269319   7.918   1.282   3.337  0.3493  1.7547  0.3358
22143SOL     OW69320   5.124   0.179   3.564  0.0918 -0.0490  0.2243
22143SOL    HW169321   5.082   0.261   3.591 -0.9702 -1.0524  1.7509
22143SOL    HW269322   5.210   0.180   3.606 -0.3296 -0.1787  1.1067
22144SOL     OW69323   6.202   1.158   4.121  0.6819  0.0157  0.1648
22144SOL    HW169324   6.272   1.199   4.070  1.0730 -0.6447  0.1549
22144SOL    HW269325   6.195   1.069   4.086 -0.9916  0.4265 -0.6559
22145SOL     OW69326   1.537   0.910   5.842  0.2905 -0.0113  0.0652
22145SOL    HW169327   1.450   0.932   5.875  0.6982  2.1027 -0.1059
22145SOL    HW269328   1.580   0.865   5.914 -0.7223 -0.5200  0.3641
22146SOL     OW69329   4.168   2.349   4.844 -0.2447  0.1374 -0.6773
22146SOL    HW169330   4.254   2.372   4.878 -0.5917 -1.1403  1.2148
22146SOL    HW269331   4.109   2.415   4.882 -0.5742 -1.0649  1.0355
22147SOL     OW69332   3.651   6.114   3.163  0.3281 -0.4624  0.0953
22147SOL    HW169333   3.602   6.080   3.089  0.0540  4.1106 -2.1854
22147SOL    HW269334   3.590   6.111   3.236 -1.1359 -0.7231 -1.1043
22148SOL     OW69335   6.390   6.555   8.144  0.4045  0.0422  0.3716
22148SOL    HW169336   6.387   6.460   8.152  0.5793 -0.2070 -1.8616
22148SOL    HW269337   6.311   6.578   8.097 -0.0200  1.1359  1.5467
22149SOL     OW69338   2.361   1.641   5.719 -0.1818 -0.3288  0.5195
22149SOL    HW169339   2.284   1.583   5.717  0.4836 -1.4723  3.4919
22149SOL    HW269340   2.433   1.584   5.746  1.1836  1.2770  0.3862
22150SOL     OW69341   5.866   6.179   4.586  0.0208 -0.0597  0.5099
22150SOL    HW169342   5.897   6.090   4.597 -0.4411 -0.3055 -0.0953
22150SOL    HW269343   5.845   6.186   4.492  1.8091  1.2647  0.1432
22151SOL     OW69344   7.105   5.623   8.405  0.2578 -0.2213  0.0408
22151SOL    HW169345   7.037   5.590   8.464  1.9871  0.9815  2.9633
22151SOL    HW269346   7.168   5.551   8.399  0.1080 -0.3242 -0.2794
22152SOL     OW69347   1.710   7.496   3.129  0.1849 -0.6624  0.3440
22152SOL    HW169348   1.792   7.516   3.174  0.8597 -1.1002 -0.6219
22152SOL    HW269349   1.728   7.412   3.085 -0.9100 -0.9477  0.4184
22153SOL     OW69350   8.397   3.475   3.578  0.3868  0.0849 -0.1320
22153SOL    HW169351   8.467   3.443   3.635 -0.0667  1.6889  1.4141
22153SOL    HW269352   8.399   3.570   3.589 -1.2085  0.2593 -1.0595
22154SOL     OW69353   1.917   1.765   1.404 -0.2351 -0.0112 -0.7539
22154SOL    HW169354   1.831   1.805   1.413 -0.4826 -0.8632  1.2963
22154SOL    HW269355   1.903   1.672   1.416  0.9639 -0.1673 -0.3502
22155SOL     OW69356   8.323   6.385   3.221  0.2096 -0.3033  0.0475
22155SOL    HW169357   8.309   6.407   3.313 -1.3367  3.3610 -0.8922
22155SOL    HW269358   8.359   6.464   3.182 -0.6338 -1.1824 -2.8009
22156SOL     OW69359   4.334   4.775   9.129 -0.4894  0.1105 -0.0455
22156SOL    HW169360   4.285   4.850   9.162  1.3679  1.4328 -0.0781
22156SOL    HW269361   4.268   4.716   9.094 -2.2954  0.0607  3.1573
22157SOL     OW69362   6.199   4.790   6.636  0.0764  0.1363 -0.3330
22157SOL    HW169363   6.290   4.763   6.648  0.5367  0.7355 -2.1370
22157SOL    HW269364   6.198   4.882   6.662 -0.5280 -0.4061  1.7117
22158SOL     OW69365   0.494   1.513   7.223  0.0636 -0.1063  0.3358
22158SOL    HW169366   0.472   1.461   7.301  0.4252  0.0734  0.5605
22158SOL    HW269367   0.447   1.470   7.152 -1.3781  0.5303  0.8615
22159SOL     OW69368   6.057   3.682   8.247  0.0302 -0.2674  0.4015
22159SOL    HW169369   5.973   3.723   8.226 -0.8434 -1.8057  0.6884
22159SOL    HW269370   6.092   3.733   8.320 -1.0135 -0.0237  0.7531
22160SOL     OW69371   8.682   8.959   6.135 -0.2537 -0.7122  0.0001
22160SOL    HW169372   8.658   8.974   6.044 -0.3719 -2.3322 -0.2537
22160SOL    HW269373   8.760   9.012   6.149  0.4604 -1.3722 -1.3867
22161SOL     OW69374   1.144   4.184   5.406  0.0060  0.4108 -0.4932
22161SOL    HW169375   1.138   4.095   5.370  0.2786  0.6321 -1.1095
22161SOL    HW269376   1.190   4.233   5.338  1.5405  0.6003  0.6289
22162SOL     OW69377   3.495   8.157   3.378  0.0009 -0.2149  0.7243
22162SOL    HW169378   3.442   8.080   3.397 -1.1223  0.4577  0.3959
22162SOL    HW269379   3.585   8.124   3.373 -0.5130 -1.5866  0.1097
22163SOL     OW69380   1.458   4.901   8.762  0.4410  0.5869  0.2423
22163SOL    HW169381   1.494   4.962   8.827  3.8638 -1.4640  0.5660
22163SOL    HW269382   1.529   4.890   8.699 -1.4120 -0.3618 -1.7833
22164SOL     OW69383   2.389   6.710   9.224 -0.3982 -0.4217 -0.7340
22164SOL    HW169384   2.325   6.710   9.152 -0.4473  0.0077 -0.6946
22164SOL    HW269385   2.347   6.762   9.292 -0.0882 -0.3087 -0.6308
22165SOL     OW69386   2.655   8.656   9.316  0.1539  0.0103  0.0015
22165SOL    HW169387   2.663   8.647   9.221  2.3248  1.8496 -0.0704
22165SOL    HW269388   2.689   8.573   9.351 -0.3021 -0.5242 -0.7802
22166SOL     OW69389   5.565   3.133   5.286  0.1798  0.3119  0.5082
22166SOL    HW169390   5.528   3.159   5.202 -0.1933  0.6670  0.7826
22166SOL    HW269391   5.599   3.045   5.270 -1.0509 -0.1537  0.3284
22167SOL     OW69392   5.040   8.678   1.529  0.7439  0.0179  0.2038
22167SOL    HW169393   5.055   8.606   1.591  0.6052  0.0898  0.3230
22167SOL    HW269394   4.972   8.645   1.470  1.1566 -0.1968 -0.1534
22168SOL     OW69395   3.350   2.909   6.793 -0.3268  0.4091  0.3369
22168SOL    HW169396   3.296   2.943   6.864 -1.7211  0.0329 -0.4860
22168SOL    HW269397   3.347   2.814   6.804  0.5907  0.3959  0.5566
22169SOL     OW69398   4.544   7.912   3.771 -0.1650 -0.1184 -0.2415
22169SOL    HW169399   4.515   8.004   3.777 -0.6032 -0.1987 -0.9952
22169SOL    HW269400   4.571   7.902   3.680  0.9520 -0.4397  0.1140
22170SOL     OW69401   4.340   9.210   9.602 -0.3531 -0.2142  0.1743
22170SOL    HW169402   4.330   9.118   9.578  0.3612 -0.8232  2.0598
22170SOL    HW269403   4.432   9.230   9.583 -0.2129 -0.2281  0.8163
22171SOL     OW69404   1.188   0.370   6.758  0.5105  0.4752 -0.2277
22171SOL    HW169405   1.103   0.411   6.746  0.6829  0.6826 -0.8029
22171SOL    HW269406   1.169   0.278   6.775  0.2168  0.1973 -1.9234
22172SOL     OW69407   5.339   3.561   3.959  0.1905 -0.4692  0.3502
22172SOL    HW169408   5.307   3.650   3.941  0.7221  0.0315  1.7356
22172SOL    HW269409   5.434   3.571   3.967  0.1728 -1.0035  1.3512
22173SOL     OW69410   2.505   2.161   1.654  0.3625 -0.2941 -0.1535
22173SOL    HW169411   2.533   2.206   1.575  0.2524 -0.3535 -0.2274
22173SOL    HW269412   2.585   2.149   1.705  0.2994  0.4917  0.1296
22174SOL     OW69413   9.461   8.164   8.239  0.1885  0.0470  0.2833
22174SOL    HW169414   9.376   8.149   8.197 -0.7338 -1.6717  2.5359
22174SOL    HW269415   9.450   8.131   8.328  3.7699 -1.9233  0.1763
22175SOL     OW69416   4.600   7.919   0.419  0.1926  0.1657  0.1808
22175SOL    HW169417   4.580   7.950   0.330  1.0862 -0.5295 -0.2829
22175SOL    HW269418   4.692   7.893   0.415 -0.1642 -1.3158  0.8964
22176SOL     OW69419   9.109   5.005   5.443 -0.2128  0.1232  0.1846
22176SOL    HW169420   9.055   4.928   5.425 -0.2264  0.2205 -0.1941
22176SOL    HW269421   9.190   4.990   5.394 -0.2663  0.4051  0.0060
22177SOL     OW69422   6.990   0.377   7.514  0.0791  0.5222  0.4562
22177SOL    HW169423   6.973   0.417   7.429 -1.5348 -0.0730  0.4608
22177SOL    HW269424   6.905   0.344   7.543  0.7767 -0.1678  1.8544
22178SOL     OW69425   5.053   4.461   0.350  0.3513  0.1214  0.2951
22178SOL    HW169426   5.038   4.378   0.305 -2.4998  0.9257 -0.4108
22178SOL    HW269427   5.017   4.448   0.437  1.4927  0.1100  0.7881
22179SOL     OW69428   4.281   1.061   4.565 -0.7599 -0.2191  0.0484
22179SOL    HW169429   4.309   1.147   4.532 -1.1701  0.1754  0.6964
22179SOL    HW269430   4.346   1.000   4.531  0.1125  0.4871  0.3762
22180SOL     OW69431   0.894   5.413   8.658 -0.3013  0.1002  0.3756
22180SOL    HW169432   0.965   5.426   8.720  0.1307 -0.4010  0.0026
22180SOL    HW269433   0.928   5.446   8.575 -0.7740  0.5229  0.3481
22181SOL     OW69434   8.980   7.737   5.553  0.6527 -0.3562  0.6209
22181SOL    HW169435   8.966   7.807   5.489  1.5721 -1.2757 -0.6433
22181SOL    HW269436   9.060   7.694   5.524  1.7557 -0.1409  3.0429
22182SOL     OW69437   2.749   4.916   3.449 -0.5707 -0.0638 -0.8796
22182SOL    HW169438   2.657   4.891   3.458 -0.6580  0.0959 -1.3045
22182SOL    HW269439   2.788   4.894   3.534 -0.8750 -0.6519 -0.8812
22183SOL     OW69440   0.209   7.457   4.700 -0.1773 -0.2750  0.2331
22183SOL    HW169441   0.148   7.433   4.769  0.2045 -2.5295 -0.1526
22183SOL    HW269442   0.255   7.534   4.734 -1.2240 -0.2696  1.7133
22184SOL     OW69443   1.118   3.221   4.680  0.4094 -0.4200 -0.6990
22184SOL    HW169444   1.047   3.159   4.662 -0.4134  0.4674 -0.6109
22184SOL    HW269445   1.197   3.167   4.683 -0.4318 -1.6330  0.6426
22185SOL     OW69446   2.812   6.921   0.252 -0.5523  0.3205  0.1280
22185SOL    HW169447   2.893   6.968   0.234 -0.4505 -0.1856 -0.7859
22185SOL    HW269448   2.743   6.980   0.221 -0.8009  2.0827  3.5520
22186SOL     OW69449   0.753   2.250   6.773 -0.5194  0.7311 -0.0239
22186SOL    HW169450   0.710   2.165   6.764 -0.8209  0.6307  1.9382
22186SOL    HW269451   0.681   2.312   6.783 -0.2942  0.8200  1.3009
22187SOL     OW69452   6.709   4.209   9.490  0.0423  0.4270 -0.0524
22187SOL    HW169453   6.677   4.225   9.401 -2.4503  1.0737  0.8744
22187SOL    HW269454   6.699   4.115   9.502  3.9056 -0.3852 -1.5934
22188SOL     OW69455   4.402   4.631   9.558 -0.0520 -0.5286 -0.5044
22188SOL    HW169456   4.449   4.662   9.481 -1.9484  1.6121 -0.8998
22188SOL    HW269457   4.370   4.710   9.601 -2.1902 -1.7807  0.3923
22189SOL     OW69458   3.105   0.153   1.147  0.4080  0.6242  0.4526
22189SOL    HW169459   3.061   0.209   1.211 -0.5704  0.3875  0.0009
22189SOL    HW269460   3.136   0.213   1.079 -0.9076  0.6250 -0.1883
22190SOL     OW69461   7.054   4.995   7.972 -0.0964  0.3809 -0.4216
22190SOL    HW169462   6.959   4.989   7.964 -0.3822 -0.8875  2.4173
22190SOL    HW269463   7.081   4.905   7.991  1.5116  0.9091 -0.0754
22191SOL     OW69464   7.984   3.839   5.369 -0.1200 -0.0797  0.1987
22191SOL    HW169465   8.004   3.844   5.275 -1.0434  0.9000  0.0351
22191SOL    HW269466   7.926   3.763   5.377 -0.0778 -0.1387 -0.0411
22192SOL     OW69467   5.286   1.273   4.803 -0.3139  0.3187  0.0157
22192SOL    HW169468   5.329   1.227   4.876 -0.2125 -1.1800 -0.9459
22192SOL    HW269469   5.193   1.268   4.822 -0.2180  1.7092  1.0277
22193SOL     OW69470   8.116   7.197   8.752  0.4488 -0.3893 -0.3877
22193SOL    HW169471   8.031   7.213   8.711  0.6118  0.5731 -0.3724
22193SOL    HW269472   8.100   7.209   8.846  0.3564 -1.3417 -0.2725
22194SOL     OW69473   5.805   3.061   5.717  0.2775 -0.8580 -0.0606
22194SOL    HW169474   5.837   3.029   5.801  0.4667 -0.8956 -0.1464
22194SOL    HW269475   5.720   3.101   5.737  0.7912  0.0844  0.3373
22195SOL     OW69476   6.218   4.402   7.258 -0.5173  0.1342 -0.2046
22195SOL    HW169477   6.240   4.391   7.351  0.3088  0.3864 -0.3649
22195SOL    HW269478   6.261   4.328   7.215 -1.4827 -0.3797 -0.3097
22196SOL     OW69479   2.925   0.385   9.609  0.2416  0.4757 -0.0070
22196SOL    HW169480   2.900   0.420   9.523  0.2391 -0.3937 -0.3652
22196SOL    HW269481   2.861   0.424   9.669 -0.6032  0.0320 -0.5963
22197SOL     OW69482   0.338   7.175   3.636  0.9788 -0.3555 -0.4360
22197SOL    HW169483   0.292   7.258   3.624  0.4828 -0.5019  0.3591
22197SOL    HW269484   0.345   7.166   3.731 -2.1493 -2.9404 -0.3016
22198SOL     OW69485   3.914   6.447   5.724  0.5059 -0.5974 -0.4877
22198SOL    HW169486   4.004   6.430   5.753  0.6695  0.5472 -0.2606
22198SOL    HW269487   3.894   6.375   5.665  2.0230 -0.2576 -1.4834
22199SOL     OW69488   3.649   0.659   9.625  0.3268  0.5369  0.1412
22199SOL    HW169489   3.596   0.638   9.702  0.3609 -1.6815 -0.3664
22199SOL    HW269490   3.589   0.706   9.567 -0.5670 -0.3077  0.3519
22200SOL     OW69491   2.809   0.561   3.273  0.0835 -0.3279 -0.1200
22200SOL    HW169492   2.818   0.466   3.285 -0.9355 -0.6329 -1.4523
22200SOL    HW269493   2.813   0.574   3.178 -0.0845  0.9328  0.0263
22201SOL     OW69494   4.380   1.941   9.462 -0.2566  0.1430 -0.4773
22201SOL    HW169495   4.296   1.976   9.430 -0.2511  1.7877  1.1154
22201SOL    HW269496   4.444   1.971   9.398 -0.5360  1.3982 -0.1961
22202SOL     OW69497   8.898   7.934   2.131 -0.4136  0.5718  0.1345
22202SOL    HW169498   8.806   7.959   2.135 -0.3401  0.9117 -0.1803
22202SOL    HW269499   8.936   7.995   2.068 -0.6289 -1.5111 -2.2040
22203SOL     OW69500   2.206   6.050   3.718  0.0149  0.5464 -0.0444
22203SOL    HW169501   2.231   5.979   3.777  0.2825  1.7951  1.3869
22203SOL    HW269502   2.284   6.106   3.714 -0.2401  0.8452 -1.0401
22204SOL     OW69503   4.596   1.891   7.848  0.0535  0.7685  0.3110
22204SOL    HW169504   4.684   1.856   7.832 -0.1377  0.6031 -0.4293
22204SOL    HW269505   4.538   1.815   7.835 -0.1959  0.8636  0.8484
22205SOL     OW69506   5.349   9.548   7.738  0.1913 -0.0987 -0.0346
22205SOL    HW169507   5.311   9.465   7.707 -1.4271  1.0527 -1.3213
22205SOL    HW269508   5.285   9.581   7.801 -0.2146  1.0932 -1.0179
22206SOL     OW69509   5.257   2.859   6.378  0.4793 -0.5159  0.2251
22206SOL    HW169510   5.194   2.788   6.370 -0.4872  0.1192  1.7656
22206SOL    HW269511   5.258   2.900   6.292 -0.3668 -1.2252 -0.1333
22207SOL     OW69512   1.492   5.866   6.419  0.3187  0.5165  0.2298
22207SOL    HW169513   1.578   5.908   6.417  0.5596  0.1121  1.4502
22207SOL    HW269514   1.511   5.775   6.444 -0.1734 -0.3992 -2.3674
22208SOL     OW69515   0.109   2.293   8.766 -0.4916  0.1075  0.4183
22208SOL    HW169516   0.097   2.370   8.710 -1.9921  2.0304  3.1555
22208SOL    HW269517   0.178   2.319   8.827  2.7242 -2.7502 -1.5882
22209SOL     OW69518   2.444   6.121   2.500 -0.3342 -0.4157  0.2271
22209SOL    HW169519   2.370   6.071   2.536 -0.9918 -0.0481 -0.5710
22209SOL    HW269520   2.461   6.080   2.415 -0.8195  0.6194 -0.3957
22210SOL     OW69521   7.651   6.684   1.992  0.3234  0.4038 -0.3770
22210SOL    HW169522   7.590   6.700   1.920  0.7720 -0.3856 -0.9511
22210SOL    HW269523   7.722   6.747   1.978 -0.6879  1.8730  0.7416
22211SOL     OW69524   0.428   2.741   4.563  0.1189  0.6782 -0.1435
22211SOL    HW169525   0.427   2.654   4.601 -1.1045  1.4869  1.8002
22211SOL    HW269526   0.367   2.736   4.489  0.3258 -0.1792 -0.2628
22212SOL     OW69527   1.626   1.939   3.296 -0.2605 -0.6014 -0.1681
22212SOL    HW169528   1.584   1.859   3.264 -1.1926 -0.3479  0.3735
22212SOL    HW269529   1.633   1.926   3.391  2.2037 -1.2247 -0.3838
22213SOL     OW69530   8.143   6.743   8.082 -0.1910  0.6969 -0.2010
22213SOL    HW169531   8.174   6.832   8.093 -0.4032  0.7524 -0.0420
22213SOL    HW269532   8.059   6.751   8.037 -0.2243  0.5796 -0.1612
22214SOL     OW69533   7.023   7.574   0.899  0.0084  0.4037  0.0791
22214SOL    HW169534   7.115   7.553   0.880  0.2162 -0.3035  1.6467
22214SOL    HW269535   7.026   7.663   0.934 -0.2365  1.2767 -1.9795
22215SOL     OW69536   1.173   5.240   8.259 -0.1633  0.2842 -0.1864
22215SOL    HW169537   1.094   5.210   8.305  0.7505  0.1182  1.3537
22215SOL    HW269538   1.148   5.239   8.167 -1.4034 -1.5204  0.1019
22216SOL     OW69539   6.166   7.192   7.496  0.1964  0.4655  0.6774
22216SOL    HW169540   6.188   7.284   7.480  1.6467 -0.1568 -1.5412
22216SOL    HW269541   6.087   7.176   7.444  1.4429 -0.1012 -1.1520
22217SOL     OW69542   4.254   5.741   5.142 -0.1477  0.1736 -0.1261
22217SOL    HW169543   4.218   5.793   5.213  0.0985 -0.2886  0.3384
22217SOL    HW269544   4.270   5.655   5.180  1.1362  0.2649 -0.3901
22218SOL     OW69545   0.240   9.477   6.331 -0.2215  0.0049 -0.3384
22218SOL    HW169546   0.216   9.509   6.418 -0.8319  1.5208 -1.0239
22218SOL    HW269547   0.179   9.405   6.315 -2.2312  1.6998 -0.7265
22219SOL     OW69548   8.746   4.606   2.260 -0.2014  0.0540  0.1214
22219SOL    HW169549   8.742   4.641   2.349  2.0772 -0.5078  0.5053
22219SOL    HW269550   8.709   4.675   2.206  1.6631  2.0053  1.1610
22220SOL     OW69551   3.860   5.128   2.865  0.0257 -0.4284 -0.6857
22220SOL    HW169552   3.896   5.208   2.827  0.4061  0.1371  0.8206
22220SOL    HW269553   3.767   5.132   2.847 -0.3039  1.3602  1.0584
22221SOL     OW69554   1.565   9.333   4.313 -0.3638  0.5269 -0.0376
22221SOL    HW169555   1.541   9.383   4.234 -0.5150 -0.1018 -0.3970
22221SOL    HW269556   1.533   9.386   4.386 -2.4839 -0.0632 -0.4742
22222SOL     OW69557   8.474   6.121   0.999  0.2136 -0.4915  0.2852
22222SOL    HW169558   8.463   6.146   0.908 -1.2725 -0.3183  0.4823
22222SOL    HW269559   8.499   6.029   0.996  3.7231  0.3512 -0.3757
22223SOL     OW69560   5.210   5.270   6.399  0.8391 -0.0013  0.3454
22223SOL    HW169561   5.260   5.231   6.327  0.5886 -0.6665  0.5195
22223SOL    HW269562   5.262   5.250   6.477 -0.0804 -1.4436  0.6358
22224SOL     OW69563   8.427   2.543   7.270 -0.8627 -0.5007  0.2476
22224SOL    HW169564   8.463   2.511   7.353  0.1227  0.6374  0.2843
22224SOL    HW269565   8.418   2.637   7.283 -0.9846 -0.3555 -0.8396
22225SOL     OW69566   0.785   4.470   3.798 -0.2943 -0.6105 -0.1899
22225SOL    HW169567   0.818   4.530   3.731 -0.6313 -1.3415 -1.0442
22225SOL    HW269568   0.834   4.492   3.877 -1.0643  1.4053 -0.2202
22226SOL     OW69569   5.299   2.291   0.125  0.2647  0.1578  0.0838
22226SOL    HW169570   5.276   2.287   0.032 -0.3850  0.3835  0.2336
22226SOL    HW269571   5.226   2.337   0.166  0.1039 -0.7812  0.8623
22227SOL     OW69572   7.047   7.875   0.948 -0.4434  0.1346 -0.1878
22227SOL    HW169573   6.955   7.899   0.937 -0.0815  1.2558 -0.9556
22227SOL    HW269574   7.089   7.954   0.983  0.4748  0.1104 -1.1688
22228SOL     OW69575   3.492   5.666   2.463  0.0124  0.3601  0.2844
22228SOL    HW169576   3.526   5.719   2.392  1.0561 -0.0843  0.4293
22228SOL    HW269577   3.532   5.703   2.542 -0.0881  0.0281  0.4954
22229SOL     OW69578   6.866   3.701   8.802 -0.3507 -0.4459  0.3907
22229SOL    HW169579   6.802   3.768   8.829 -2.4189 -1.5766 -1.4214
22229SOL    HW269580   6.849   3.628   8.862 -0.1191 -0.4291  0.4771
22230SOL     OW69581   3.191   1.526   3.020  0.3576 -0.5811 -0.4920
22230SOL    HW169582   3.229   1.611   3.043  1.6487 -1.2880  0.0865
22230SOL    HW269583   3.205   1.519   2.926 -1.7803  0.7857 -0.9901
22231SOL     OW69584   2.978   7.977   1.781 -0.1697  0.1963  0.0998
22231SOL    HW169585   2.993   8.071   1.771  1.9684  0.0002  1.0363
22231SOL    HW269586   2.997   7.959   1.873 -0.7080 -1.1444 -0.0226
22232SOL     OW69587   8.921   3.801   6.909  0.6275 -0.0482 -0.4129
22232SOL    HW169588   8.949   3.867   6.972 -1.6246  1.2609 -0.6674
22232SOL    HW269589   8.934   3.843   6.824 -0.9441  0.1626 -0.5724
22233SOL     OW69590   4.345   9.619   5.648  0.8634  0.4343 -0.2699
22233SOL    HW169591   4.303   9.538   5.676  2.8131 -0.1499  1.2041
22233SOL    HW269592   4.276   9.668   5.604 -0.5971 -1.6265 -0.4128
22234SOL     OW69593   5.061   9.057   3.142  0.3126  0.0034 -0.2173
22234SOL    HW169594   5.071   8.989   3.208 -3.3587  0.3220  0.8524
22234SOL    HW269595   5.150   9.072   3.109  1.6010 -3.4934  1.2487
22235SOL     OW69596   9.145   6.549   6.664  0.1174  0.0841  0.2901
22235SOL    HW169597   9.057   6.584   6.679 -0.3275 -0.5272 -0.7930
22235SOL    HW269598   9.182   6.538   6.752 -1.0712 -0.1068  0.7754
22236SOL     OW69599   3.840   0.786   0.507 -0.1456 -0.7033  0.2842
22236SOL    HW169600   3.759   0.831   0.529 -1.9951 -2.6564 -1.9686
22236SOL    HW269601   3.909   0.847   0.533 -2.2594  0.8687  2.6833
22237SOL     OW69602   7.801   6.402   5.825  0.2067 -0.0504 -0.3623
22237SOL    HW169603   7.716   6.365   5.847 -0.2861  0.6043 -1.1097
22237SOL    HW269604   7.781   6.490   5.792  1.2010  0.2332 -0.2477
22238SOL     OW69605   0.925   4.042   4.328 -0.0470 -0.1026  0.5391
22238SOL    HW169606   1.012   4.023   4.292  1.7068  1.6153  3.4536
22238SOL    HW269607   0.896   4.119   4.280  0.6892  0.1373  0.4603
22239SOL     OW69608   0.637   0.443   0.612 -0.7780  0.1259  0.2747
22239SOL    HW169609   0.674   0.448   0.700  0.7692  2.8241 -0.4016
22239SOL    HW269610   0.603   0.354   0.605  0.4390 -0.6653  3.0292
22240SOL     OW69611   7.322   9.034   9.639 -0.3464 -0.0698  0.0093
22240SOL    HW169612   7.399   8.978   9.629 -0.5342  0.0080 -2.8348
22240SOL    HW269613   7.254   8.976   9.672  0.4680 -0.5433  0.8910
22241SOL     OW69614   2.813   1.474   2.392  0.4710 -0.0852  0.3274
22241SOL    HW169615   2.766   1.398   2.426  0.2890  0.6989  1.9461
22241SOL    HW269616   2.750   1.517   2.334 -1.0278  1.1078  2.6872
22242SOL     OW69617   7.626   3.249   0.744 -0.1491  0.2751  0.0503
22242SOL    HW169618   7.646   3.157   0.760  0.5471  0.6564  1.5516
22242SOL    HW269619   7.710   3.294   0.755  0.0160  0.8948 -2.8618
22243SOL     OW69620   4.456   0.070   6.974 -0.1514  0.6313  0.0968
22243SOL    HW169621   4.374   0.117   6.958 -1.2823 -1.4952 -0.6451
22243SOL    HW269622   4.468   0.073   7.068 -1.0178  1.0637  0.2011
22244SOL     OW69623   4.357   2.022   0.741  0.3475 -0.0385  0.1972
22244SOL    HW169624   4.405   1.955   0.790 -0.3248  0.4422  1.5578
22244SOL    HW269625   4.271   2.025   0.783 -0.7947 -0.6263 -1.9501
22245SOL     OW69626   5.591   5.619   3.618  0.3640 -0.4027  0.8380
22245SOL    HW169627   5.515   5.608   3.561  0.9104 -2.2876  0.4100
22245SOL    HW269628   5.579   5.705   3.658 -1.0587  0.0999 -0.5873
22246SOL     OW69629   4.821   5.698   9.455 -0.2033  0.0446 -0.4724
22246SOL    HW169630   4.848   5.651   9.376 -2.4291 -2.1788 -0.0469
22246SOL    HW269631   4.874   5.659   9.525 -0.2497 -0.0235 -0.4746
22247SOL     OW69632   0.262   9.096   9.321  0.2470 -0.5789 -0.2981
22247SOL    HW169633   0.298   9.184   9.317 -1.6498  0.2025 -2.8091
22247SOL    HW269634   0.309   9.054   9.394  0.9114  2.5765  1.2724
22248SOL     OW69635   1.282   8.181   0.536  0.1044  0.1383  0.2011
22248SOL    HW169636   1.244   8.250   0.481 -0.6889  0.7883  1.5159
22248SOL    HW269637   1.283   8.104   0.480  0.4971  1.0682 -1.1263
22249SOL     OW69638   6.110   7.688   0.696 -0.5137 -0.5057  0.0910
22249SOL    HW169639   6.063   7.686   0.779  0.1138 -1.7377  0.4381
22249SOL    HW269640   6.173   7.616   0.702  1.3748  1.0165 -0.3810
22250SOL     OW69641   3.574   9.051   6.617  0.0282  0.2830  0.0707
22250SOL    HW169642   3.626   8.975   6.641 -2.0109 -0.9019  0.9933
22250SOL    HW269643   3.594   9.116   6.684  1.3656  0.4108 -0.4126
22251SOL     OW69644   2.089   8.002   9.533  0.3908 -0.0080  0.0182
22251SOL    HW169645   2.131   7.942   9.595  0.6774 -0.7659 -0.8851
22251SOL    HW269646   2.008   7.958   9.508  0.4537  0.1293 -0.4265
22252SOL     OW69647   7.893   9.071   7.398 -0.5882  0.0952 -0.1684
22252SOL    HW169648   7.858   9.106   7.316 -0.2911 -0.6112 -0.6023
22252SOL    HW269649   7.983   9.103   7.402 -0.2155 -0.8470 -0.7190
22253SOL     OW69650   2.384   9.063   5.702 -0.7538  0.7931 -0.3746
22253SOL    HW169651   2.341   9.132   5.651  0.9061  1.5745 -0.8058
22253SOL    HW269652   2.477   9.082   5.693 -0.2871 -0.9910  0.2640
22254SOL     OW69653   0.204   8.645   0.319 -0.3347  0.0704  0.6922
22254SOL    HW169654   0.139   8.714   0.328 -0.7194 -0.1704 -0.0922
22254SOL    HW269655   0.153   8.568   0.294  0.1448 -0.3690  1.0409
22255SOL     OW69656   2.568   2.353   1.200 -0.0951  0.6409  0.3419
22255SOL    HW169657   2.508   2.294   1.154  0.3028  0.8307 -0.4349
22255SOL    HW269658   2.537   2.440   1.176  0.3252  0.7388  0.1557
22256SOL     OW69659   5.945   0.451   0.969  0.1516 -0.1268  0.2991
22256SOL    HW169660   6.016   0.402   0.927  0.5628  0.6120  0.1119
22256SOL    HW269661   5.981   0.475   1.054  0.5261  1.1352 -0.1948
22257SOL     OW69662   3.540   0.819   8.017  0.2921 -0.2626 -0.3062
22257SOL    HW169663   3.496   0.735   8.028 -0.8108  0.5180  1.8854
22257SOL    HW269664   3.626   0.806   8.056 -0.5816  0.1086  1.8688
22258SOL     OW69665   1.026   0.389   0.280 -0.0184 -0.5659 -0.2516
22258SOL    HW169666   1.080   0.357   0.208 -0.7387 -2.0108 -0.1841
22258SOL    HW269667   0.936   0.368   0.254 -0.3776 -0.1224  0.5896
22259SOL     OW69668   0.231   1.006   7.849 -0.7954 -0.2006  0.2035
22259SOL    HW169669   0.318   1.031   7.878 -0.1257 -2.2541  0.0898
22259SOL    HW269670   0.177   1.011   7.928 -0.6154  1.0883  0.2727
22260SOL     OW69671   8.697   8.793   4.282 -0.5077 -0.9649 -0.1147
22260SOL    HW169672   8.619   8.738   4.275 -0.7357 -0.5857 -0.5950
22260SOL    HW269673   8.664   8.883   4.277 -0.0361 -0.8036 -0.4155
22261SOL     OW69674   5.902   7.978   6.548 -0.4611  0.1871  0.0210
22261SOL    HW169675   5.936   8.023   6.471  1.1961  2.0202  1.7394
22261SOL    HW269676   5.913   7.885   6.528  0.9631  0.6432 -1.5286
22262SOL     OW69677   8.567   2.712   8.146 -0.4133 -0.4488 -0.0391
22262SOL    HW169678   8.600   2.798   8.120  0.1007 -0.3435  0.9254
22262SOL    HW269679   8.472   2.718   8.136 -0.3390  0.0704 -0.4361
22263SOL     OW69680   0.943   5.340   3.145  0.1003 -0.6343  0.2865
22263SOL    HW169681   0.888   5.329   3.067  0.5217 -0.5791 -0.0239
22263SOL    HW269682   0.943   5.434   3.161 -0.6584 -0.7226  0.8520
22264SOL     OW69683   0.052   5.092   8.483  0.5956 -0.2218 -0.0275
22264SOL    HW169684   0.068   5.070   8.575 -1.0821 -0.8367  0.1561
22264SOL    HW269685   0.032   5.185   8.484  1.1431 -0.1007  0.1376
22265SOL     OW69686   8.846   7.015   3.153 -0.0471  0.4175 -0.0915
22265SOL    HW169687   8.907   6.943   3.136 -0.2435  0.3184 -0.3881
22265SOL    HW269688   8.860   7.036   3.246  0.9343  0.8800 -0.3346
22266SOL     OW69689   8.152   2.549   0.929 -0.1061  0.4216  0.0952
22266SOL    HW169690   8.091   2.493   0.880 -1.0998  1.7977 -0.2991
22266SOL    HW269691   8.230   2.552   0.874 -0.3283  0.0566 -0.2538
22267SOL     OW69692   1.033   9.037   1.411  0.0232 -0.1328  0.6300
22267SOL    HW169693   1.076   8.966   1.460 -0.6580 -2.0092 -1.3140
22267SOL    HW269694   0.942   9.035   1.441 -0.3122 -1.0474 -0.3749
22268SOL     OW69695   1.832   9.281   4.241 -0.4715 -0.5488 -0.2109
22268SOL    HW169696   1.809   9.247   4.155 -1.1661  1.6207 -0.9598
22268SOL    HW269697   1.749   9.299   4.284 -0.1623  0.3296  0.0581
22269SOL     OW69698   7.938   2.790   5.253 -0.6241  0.0898 -0.1600
22269SOL    HW169699   7.933   2.813   5.160  2.3831 -0.2703 -0.5203
22269SOL    HW269700   7.966   2.699   5.254 -1.9701 -0.3392  1.1463
22270SOL     OW69701   2.513   3.425   8.660 -0.9999  0.1249  0.1436
22270SOL    HW169702   2.447   3.491   8.677 -1.5812 -0.3653 -0.1729
22270SOL    HW269703   2.475   3.370   8.592  0.3767  0.7565 -1.1874
22271SOL     OW69704   9.338   2.078   3.415  0.5833 -0.0984 -0.0792
22271SOL    HW169705   9.397   2.011   3.451  1.9160  1.3363  0.5181
22271SOL    HW269706   9.314   2.133   3.490 -0.8885 -0.1608 -0.4684
22272SOL     OW69707   0.225   6.132   1.315  0.3637 -0.1152 -0.0339
22272SOL    HW169708   0.191   6.114   1.227  0.9078 -0.1753 -0.2357
22272SOL    HW269709   0.272   6.215   1.306 -1.6425  1.1501  0.7674
22273SOL     OW69710   7.597   0.481   7.269 -0.3008  0.0429 -0.2677
22273SOL    HW169711   7.693   0.474   7.267 -0.3053 -0.2367  0.4472
22273SOL    HW269712   7.567   0.390   7.271 -0.5013  0.0887  2.4696
22274SOL     OW69713   2.878   2.877   7.815 -0.2472  0.3684 -0.1396
22274SOL    HW169714   2.844   2.797   7.855 -0.4092  1.6066  2.3906
22274SOL    HW269715   2.939   2.912   7.879  1.0854  1.4726 -1.9120
22275SOL     OW69716   0.998   5.226   2.345  0.0699  0.1953 -0.3124
22275SOL    HW169717   1.070   5.257   2.400 -0.7661  1.5456  0.0812
22275SOL    HW269718   0.927   5.209   2.407  0.6210 -3.1729 -0.4336
22276SOL     OW69719   8.459   6.141   9.006  0.0402 -0.1454  0.1240
22276SOL    HW169720   8.508   6.096   8.937 -0.0811 -2.8868  1.6715
22276SOL    HW269721   8.371   6.152   8.970 -0.2605 -2.3220  0.0724
22277SOL     OW69722   0.942   2.960   4.342 -0.8431  0.0440 -0.1135
22277SOL    HW169723   0.888   2.896   4.297 -0.1138 -1.4953  1.1171
22277SOL    HW269724   0.906   2.966   4.430 -1.6269  2.2595 -0.5198
22278SOL     OW69725   8.440   6.609   3.094  0.0067  0.2147 -0.0938
22278SOL    HW169726   8.533   6.621   3.113 -0.2210  0.1564  1.1269
22278SOL    HW269727   8.400   6.693   3.116 -0.1832  0.3593 -0.9727
22279SOL     OW69728   8.169   8.889   6.894  0.4301 -0.3668  0.0792
22279SOL    HW169729   8.207   8.977   6.888  0.1461 -0.3124 -2.0359
22279SOL    HW269730   8.242   8.830   6.877  0.2008 -0.4014 -0.8625
22280SOL     OW69731   0.717   1.044   8.591 -0.0321  0.1236 -0.1694
22280SOL    HW169732   0.759   1.120   8.551  0.3294 -0.0436 -0.1137
22280SOL    HW269733   0.781   1.012   8.654  0.1182 -0.6471 -0.6999
22281SOL     OW69734   6.212   1.892   8.113  0.1800  0.6338  0.0143
22281SOL    HW169735   6.143   1.849   8.062  0.2010  1.5231 -0.7944
22281SOL    HW269736   6.177   1.896   8.202 -1.1767  1.7991 -0.5398
22282SOL     OW69737   4.390   2.948   4.058  0.2776 -0.9537  0.2855
22282SOL    HW169738   4.484   2.928   4.065  0.4812 -0.3525 -0.5183
22282SOL    HW269739   4.353   2.919   4.141  1.6115  1.0428  1.6724
22283SOL     OW69740   8.869   2.687   3.881 -0.5188  0.0833 -0.1586
22283SOL    HW169741   8.871   2.781   3.866  2.9689  0.5260  2.0003
22283SOL    HW269742   8.840   2.678   3.972 -0.7983 -0.9399 -0.3335
22284SOL     OW69743   8.707   1.553   5.454  0.1375 -0.3719 -0.6397
22284SOL    HW169744   8.725   1.486   5.520  1.5373 -0.2719 -0.9080
22284SOL    HW269745   8.792   1.579   5.421 -0.3192  1.8993 -0.2230
22285SOL     OW69746   8.140   4.744   6.021  0.3683 -0.5283 -0.4198
22285SOL    HW169747   8.138   4.718   6.113 -1.5277 -0.7422 -0.4836
22285SOL    HW269748   8.175   4.668   5.975 -0.1122 -0.9916 -0.0291
22286SOL     OW69749   6.235   8.159   1.542  0.3960  0.7203  0.8260
22286SOL    HW169750   6.201   8.088   1.596  1.1699 -1.2034 -1.0575
22286SOL    HW269751   6.160   8.216   1.527 -1.3286 -1.7222 -0.6424
22287SOL     OW69752   5.458   1.053   2.179 -0.0009  0.2777 -0.0954
22287SOL    HW169753   5.388   1.006   2.225 -0.7115  1.9295  0.5883
22287SOL    HW269754   5.538   1.029   2.226 -0.3822 -0.0582  0.3925
22288SOL     OW69755   1.687   4.087   6.652 -0.0266  0.5586  0.2936
22288SOL    HW169756   1.776   4.107   6.681  0.0689  0.8750 -0.2074
22288SOL    HW269757   1.656   4.169   6.613  0.6165 -0.3883 -2.4360
22289SOL     OW69758   3.045   3.339   4.710 -0.0536 -0.1295  0.0296
22289SOL    HW169759   3.110   3.269   4.710  1.6974  1.4108  0.3512
22289SOL    HW269760   3.033   3.360   4.803 -0.5771 -0.0226 -0.0620
22290SOL     OW69761   4.480   2.952   6.749  0.0434 -0.4515 -0.1792
22290SOL    HW169762   4.564   2.939   6.706  0.1782 -1.6947  0.4036
22290SOL    HW269763   4.473   2.878   6.810 -1.4254 -0.3194 -0.1545
22291SOL     OW69764   0.287   8.286   5.108 -0.3640  0.0373 -0.2884
22291SOL    HW169765   0.267   8.205   5.155  1.0403 -0.7782 -1.0098
22291SOL    HW269766   0.206   8.309   5.064 -0.6373 -1.3217 -0.5418
22292SOL     OW69767   6.480   6.924   4.007 -0.2623  0.4921  0.6383
22292SOL    HW169768   6.545   6.854   4.007  0.9224  1.5313  1.5888
22292SOL    HW269769   6.532   7.005   4.010 -1.5626  1.4526 -0.8843
22293SOL     OW69770   4.548   7.824   1.493  0.7075  0.1382  0.2732
22293SOL    HW169771   4.569   7.784   1.577  0.4593  0.9021  0.7026
22293SOL    HW269772   4.626   7.875   1.470  0.5980  0.2994  0.2601
22294SOL     OW69773   3.788   7.285   5.991 -0.3851  0.6543  0.5288
22294SOL    HW169774   3.789   7.204   6.042 -3.5927  1.9474  3.0271
22294SOL    HW269775   3.710   7.278   5.935 -1.7552  2.5652  2.0455
22295SOL     OW69776   5.986   1.994   5.992  0.3001 -0.2209  0.4513
22295SOL    HW169777   5.921   2.010   5.924  1.3415  1.5579 -0.1886
22295SOL    HW269778   6.052   1.939   5.951  1.3778  1.5667 -0.3381
22296SOL     OW69779   3.362   4.812   4.083 -0.3534  0.1858  0.2937
22296SOL    HW169780   3.429   4.853   4.028  0.1038  0.0875  0.7676
22296SOL    HW269781   3.327   4.883   4.136  1.4275 -0.2194  2.1328
22297SOL     OW69782   5.317   5.937   3.814  0.2542  0.7620  0.4507
22297SOL    HW169783   5.260   5.876   3.861 -0.3595  1.4942  0.6746
22297SOL    HW269784   5.315   5.906   3.724 -0.1660  0.5320  0.5348
22298SOL     OW69785   2.108   7.839   4.956  0.3612  0.0322 -0.5470
22298SOL    HW169786   2.106   7.801   5.044  0.5459  1.2720  0.0065
22298SOL    HW269787   2.026   7.887   4.949  1.2026  1.5455 -0.3024
22299SOL     OW69788   2.061   9.450   6.053 -0.2744 -0.1042  0.1983
22299SOL    HW169789   2.096   9.530   6.091  0.2081 -0.3947  0.3783
22299SOL    HW269790   2.135   9.389   6.054 -0.7343 -0.6714  0.4234
22300SOL     OW69791   4.947   3.826   6.320 -0.0522  0.0852 -0.9750
22300SOL    HW169792   4.918   3.908   6.360 -0.6876 -0.5150 -0.1916
22300SOL    HW269793   5.033   3.847   6.285  0.3266  0.7737  0.2839
22301SOL     OW69794   0.178   6.046   3.471  0.4409 -0.2095 -0.0481
22301SOL    HW169795   0.102   5.988   3.477  0.2777  0.1322  1.5842
22301SOL    HW269796   0.141   6.133   3.461  0.5908 -0.0234  0.9207
22302SOL     OW69797   6.124   3.522   9.199  0.0261  0.0246  0.2316
22302SOL    HW169798   6.195   3.482   9.248 -0.0574 -2.0296 -1.1930
22302SOL    HW269799   6.167   3.562   9.123 -0.2426 -0.7291 -0.3344
22303SOL     OW69800   2.232   4.756   3.854  0.6806 -0.1085 -0.0913
22303SOL    HW169801   2.230   4.674   3.903 -1.1503  0.0105  0.1041
22303SOL    HW269802   2.262   4.821   3.918  0.0975 -0.2797  0.3734
22304SOL     OW69803   1.623   2.187   3.188 -0.1421 -0.5623  0.2658
22304SOL    HW169804   1.656   2.250   3.251  0.4699  0.1613 -0.7427
22304SOL    HW269805   1.640   2.102   3.228  0.4049 -0.1207  0.9889
22305SOL     OW69806   6.383   9.074   6.926 -0.0301 -0.0820 -0.2271
22305SOL    HW169807   6.417   9.164   6.932  0.2109 -0.2269  0.8562
22305SOL    HW269808   6.429   9.027   6.996 -2.5469 -0.2677  1.4423
22306SOL     OW69809   4.777   2.581   0.185 -0.2205 -0.1991 -0.0715
22306SOL    HW169810   4.697   2.625   0.213  0.6358  0.7094  1.0593
22306SOL    HW269811   4.780   2.502   0.239 -0.3839 -0.2777 -0.1748
22307SOL     OW69812   7.609   2.797   8.269  0.1697 -0.3703 -0.6619
22307SOL    HW169813   7.647   2.848   8.340  1.1844  0.2317 -1.5943
22307SOL    HW269814   7.517   2.822   8.267  0.3221  0.2602 -0.1206
22308SOL     OW69815   3.547   7.831   1.819 -0.5403  0.1398  0.5060
22308SOL    HW169816   3.615   7.831   1.752 -0.5694  1.7849  0.4320
22308SOL    HW269817   3.464   7.834   1.770 -0.7575 -2.4898  0.5802
22309SOL     OW69818   2.924   3.762   8.239 -0.0994  0.4892  0.1575
22309SOL    HW169819   2.952   3.850   8.262 -1.2232  1.0028 -0.3511
22309SOL    HW269820   2.836   3.754   8.277 -0.3157 -0.1259 -0.4536
22310SOL     OW69821   2.895   0.571   2.111 -0.6133  0.3966 -0.2642
22310SOL    HW169822   2.963   0.529   2.164 -0.6461 -0.1970 -0.6780
22310SOL    HW269823   2.919   0.664   2.111  0.4219  0.1548 -0.6935
22311SOL     OW69824   8.280   6.759   4.832  0.3321  0.6048 -0.1228
22311SOL    HW169825   8.240   6.672   4.844 -0.4870  0.8501 -0.9296
22311SOL    HW269826   8.286   6.769   4.737  2.5009  0.5219 -0.0384
22312SOL     OW69827   7.050   5.247   0.406  0.0497  0.0177  0.1337
22312SOL    HW169828   7.093   5.238   0.491  2.5983  0.5130 -1.0162
22312SOL    HW269829   7.038   5.157   0.376 -1.0804 -0.1705  1.0708
22313SOL     OW69830   6.966   9.044   1.009  0.4518  0.0876 -0.6835
22313SOL    HW169831   6.980   8.968   0.953  2.0461 -0.9992  1.0485
22313SOL    HW269832   6.919   9.008   1.085 -0.0796  1.1527 -0.4944
22314SOL     OW69833   1.512   3.285   7.715  0.0448 -0.0779 -0.2085
22314SOL    HW169834   1.509   3.236   7.797  0.2968 -0.5861 -0.4966
22314SOL    HW269835   1.455   3.236   7.656 -0.6742  0.6704 -0.1341
22315SOL     OW69836   5.722   7.454   4.649 -0.8466  0.3174 -0.1033
22315SOL    HW169837   5.673   7.494   4.577 -0.1294  1.5492  0.0605
22315SOL    HW269838   5.680   7.369   4.663 -1.2818  0.2472 -1.6693
22316SOL     OW69839   4.819   7.485   0.454 -0.4269 -0.6020  0.0294
22316SOL    HW169840   4.772   7.548   0.399 -0.4335  0.3454  1.0597
22316SOL    HW269841   4.880   7.539   0.504 -1.5744 -1.1702  2.1510
22317SOL     OW69842   0.664   1.698   0.876 -0.1994 -0.3011 -0.4458
22317SOL    HW169843   0.689   1.710   0.968 -0.0346 -0.6082 -0.4504
22317SOL    HW269844   0.571   1.721   0.873 -0.0805  0.2206 -0.3037
22318SOL     OW69845   9.381   6.493   5.924  0.2999 -0.3151 -0.0113
22318SOL    HW169846   9.341   6.513   6.008 -0.3318 -0.6902 -0.2199
22318SOL    HW269847   9.354   6.564   5.867  0.3954 -0.2729 -0.0035
22319SOL     OW69848   7.445   8.145   5.722 -0.0653 -0.2072  0.3680
22319SOL    HW169849   7.482   8.148   5.634  0.0224 -0.2900  0.4019
22319SOL    HW269850   7.481   8.065   5.760  0.2283  0.0463  0.6248
22320SOL     OW69851   0.364   5.561   5.059  0.3267  0.0120  0.0162
22320SOL    HW169852   0.431   5.611   5.012 -0.9767  0.5170 -1.3635
22320SOL    HW269853   0.322   5.625   5.117  1.4626 -0.4614  1.4412
22321SOL     OW69854   7.835   1.741   8.709 -0.1253  0.3642 -0.3818
22321SOL    HW169855   7.917   1.727   8.662  0.4357 -0.4898  0.7955
22321SOL    HW269856   7.844   1.689   8.789 -3.5076 -3.3395 -2.0652
22322SOL     OW69857   3.822   2.029   1.671  0.0704  0.0118 -0.2103
22322SOL    HW169858   3.840   1.987   1.755  0.8362 -0.9918 -0.8530
22322SOL    HW269859   3.891   2.094   1.661 -0.3368  0.5092  0.1767
22323SOL     OW69860   7.626   4.235   0.503 -0.5449 -0.0033 -0.3916
22323SOL    HW169861   7.671   4.161   0.545  0.1963 -0.2152 -1.5102
22323SOL    HW269862   7.578   4.277   0.574  0.9040 -0.1616  0.7375
22324SOL     OW69863   5.782   5.641   6.682  0.7004 -0.6949 -0.6599
22324SOL    HW169864   5.827   5.698   6.620 -0.6595 -1.7661 -2.7634
22324SOL    HW269865   5.853   5.599   6.732  1.7453  2.3183  0.6063
22325SOL     OW69866   5.663   8.445   4.467 -0.3636  0.0276 -0.1905
22325SOL    HW169867   5.725   8.513   4.441  1.2751 -1.6705 -0.9080
22325SOL    HW269868   5.635   8.405   4.385 -0.5551 -0.8111  0.2725
22326SOL     OW69869   6.354   1.459   4.449  0.0981  0.6556  0.6663
22326SOL    HW169870   6.347   1.380   4.394  0.0767  0.6335  0.7005
22326SOL    HW269871   6.372   1.425   4.536  2.3372  0.7721  0.2945
22327SOL     OW69872   2.736   6.717   2.532  0.1659  0.1831  0.0556
22327SOL    HW169873   2.711   6.690   2.620 -1.4172 -1.3653 -0.8007
22327SOL    HW269874   2.656   6.709   2.480  1.5717 -1.4004 -2.0603
22328SOL     OW69875   0.850   3.399   0.679 -0.1098  0.2029 -0.3127
22328SOL    HW169876   0.915   3.382   0.747 -0.9892  0.9050  0.7398
22328SOL    HW269877   0.806   3.315   0.667  0.8031 -0.2122 -0.8470
22329SOL     OW69878   0.166   3.261   1.449  0.0393 -0.1882 -0.2784
22329SOL    HW169879   0.098   3.236   1.512  0.1030  1.5805  0.5760
22329SOL    HW269880   0.134   3.229   1.365 -1.6249  0.1499  0.1828
22330SOL     OW69881   4.392   5.350   3.681 -0.0128  0.3783 -0.0539
22330SOL    HW169882   4.475   5.324   3.720 -0.9430 -1.5990  0.7373
22330SOL    HW269883   4.346   5.268   3.666 -1.1042  1.3130 -2.1805
22331SOL     OW69884   4.393   8.636   8.521  0.4280  0.2042 -0.1630
22331SOL    HW169885   4.324   8.651   8.586  0.4857 -1.4604  0.3115
22331SOL    HW269886   4.346   8.605   8.443  0.6017 -0.7490  0.0989
22332SOL     OW69887   7.705   4.651   5.072 -0.6531  0.1120  0.0883
22332SOL    HW169888   7.733   4.562   5.092  0.4370  0.7803  1.8006
22332SOL    HW269889   7.713   4.659   4.977 -0.5590 -1.5274 -0.0597
22333SOL     OW69890   0.030   8.976   6.498  0.4027  0.5301 -0.4414
22333SOL    HW169891  -0.055   8.947   6.466  0.4838  0.8884 -0.9793
22333SOL    HW269892   0.086   8.898   6.490  0.4206  0.6125 -1.1683
22334SOL     OW69893   5.954   3.932   5.700  0.7313  0.1542  0.1517
22334SOL    HW169894   5.971   3.962   5.610 -1.0067  0.6455 -0.0450
22334SOL    HW269895   6.031   3.879   5.722  2.3190  1.9603 -0.7375
22335SOL     OW69896   2.527   3.343   7.808 -0.7666 -0.7228  0.2761
22335SOL    HW169897   2.446   3.293   7.813 -0.9217 -0.4789  0.2385
22335SOL    HW269898   2.585   3.301   7.871 -1.0407 -0.6894  0.5544
22336SOL     OW69899   0.707   8.642   2.406 -0.3540  0.3095  0.6311
22336SOL    HW169900   0.626   8.629   2.455 -0.0750  0.1044  1.0393
22336SOL    HW269901   0.709   8.568   2.344 -0.9113  0.7943  0.0153
22337SOL     OW69902   5.191   3.792   9.562  0.0874  0.8784  0.2919
22337SOL    HW169903   5.228   3.706   9.541 -0.5514  0.9293 -1.1603
22337SOL    HW269904   5.259   3.835   9.614  0.7838 -0.1704  0.2819
22338SOL     OW69905   3.624   7.034   4.797  0.3358 -0.3606  0.4356
22338SOL    HW169906   3.581   7.057   4.715  2.9824 -2.7633 -1.8310
22338SOL    HW269907   3.709   7.078   4.793  0.8337 -1.1607  1.4956
22339SOL     OW69908   3.382   2.694   9.323  0.4941 -0.1013 -0.0328
22339SOL    HW169909   3.457   2.663   9.272  1.5687  1.0700  0.7615
22339SOL    HW269910   3.371   2.628   9.392 -1.1592 -1.8517 -1.8473
22340SOL     OW69911   3.829   2.911   6.486 -0.3633 -0.5231 -0.1080
22340SOL    HW169912   3.777   2.838   6.451  0.3314 -0.4313 -1.3852
22340SOL    HW269913   3.894   2.868   6.542 -0.6711 -0.7776  0.0635
22341SOL     OW69914   6.864   4.168   2.344 -0.0209 -0.0288  0.1943
22341SOL    HW169915   6.795   4.199   2.402 -0.6123 -0.0962 -0.4622
22341SOL    HW269916   6.824   4.096   2.295  0.9309 -0.9813  0.7623
22342SOL     OW69917   8.664   3.491   6.479  0.1781  0.0422  0.2462
22342SOL    HW169918   8.722   3.436   6.530  2.6492  1.5363 -0.7711
22342SOL    HW269919   8.696   3.483   6.389 -1.3457  0.7681 -0.3971
22343SOL     OW69920   4.449   9.417   5.303  0.2671  0.1727  0.1807
22343SOL    HW169921   4.359   9.428   5.336  0.3238 -0.4505  0.5678
22343SOL    HW269922   4.465   9.495   5.252  0.0671  1.0501  1.4046
22344SOL     OW69923   8.796   7.080   0.668  0.6375 -0.1327  0.5057
22344SOL    HW169924   8.753   7.021   0.605  2.0011 -2.4647  1.6227
22344SOL    HW269925   8.760   7.054   0.753  3.3506 -1.4766  1.3556
22345SOL     OW69926   0.523   7.423   3.252  0.6429 -0.3863  0.3155
22345SOL    HW169927   0.577   7.463   3.320 -1.7479  0.9007  1.6049
22345SOL    HW269928   0.453   7.486   3.236  0.4035 -1.2253 -2.4816
22346SOL     OW69929   6.491   4.317   7.336  0.2052 -0.5214 -0.2932
22346SOL    HW169930   6.430   4.312   7.410  0.9251  0.4541  0.3822
22346SOL    HW269931   6.574   4.284   7.370  0.5075 -0.2087 -0.7110
22347SOL     OW69932   7.032   6.140   8.071  0.3061 -0.4286  1.0789
22347SOL    HW169933   7.035   6.057   8.119  0.4822 -0.1300  1.5952
22347SOL    HW269934   7.047   6.207   8.138 -1.4667  0.1399  0.9754
22348SOL     OW69935   7.086   8.736   7.125 -0.0725  0.4785 -0.2043
22348SOL    HW169936   7.172   8.768   7.151 -0.1500  1.2344 -0.8178
22348SOL    HW269937   7.102   8.686   7.045 -0.1273  0.0631  0.0379
22349SOL     OW69938   6.984   0.142   0.934 -0.1776  0.0206 -0.0433
22349SOL    HW169939   7.043   0.080   0.978  2.5205  1.1318 -1.7901
22349SOL    HW269940   6.959   0.204   1.002  0.2048 -0.8281  0.8984
22350SOL     OW69941   5.244   6.035   0.656 -0.0406  0.5397  0.0353
22350SOL    HW169942   5.327   6.047   0.610  0.3866  1.0304  0.8993
22350SOL    HW269943   5.188   6.105   0.623  0.6181  1.5628  1.0037
22351SOL     OW69944   8.672   0.475   4.919  0.0686  0.4218  0.0566
22351SOL    HW169945   8.745   0.537   4.925 -0.4088  0.9975  0.0479
22351SOL    HW269946   8.609   0.506   4.983  0.0696 -0.4083  0.4639
22352SOL     OW69947   5.183   0.249   6.268  0.4555  0.1845  0.4746
22352SOL    HW169948   5.118   0.316   6.290  1.7715  1.6464  0.0819
22352SOL    HW269949   5.254   0.298   6.228  0.4115 -1.7518 -2.1787
22353SOL     OW69950   0.207   2.356   2.811 -0.4381 -0.1746  0.3148
22353SOL    HW169951   0.160   2.335   2.892  1.5846 -2.1639  1.0660
22353SOL    HW269952   0.152   2.320   2.742 -0.6844 -1.3171  1.0710
22354SOL     OW69953   3.222   3.220   0.969  0.1177 -0.4061  0.8145
22354SOL    HW169954   3.297   3.209   0.911 -1.0708  0.7730 -1.0061
22354SOL    HW269955   3.169   3.141   0.955 -0.0635 -0.2205  0.4521
22355SOL     OW69956   3.198   4.348   4.646 -0.0371 -0.1027 -0.0409
22355SOL    HW169957   3.207   4.277   4.709 -1.4928 -1.6459 -1.4925
22355SOL    HW269958   3.131   4.318   4.585  1.7348  1.0407 -2.7348
22356SOL     OW69959   4.131   2.018   3.385 -0.1737 -0.0253  0.5911
22356SOL    HW169960   4.214   2.054   3.416  0.9621 -2.0187  0.0723
22356SOL    HW269961   4.139   2.018   3.290 -0.2612 -1.2775  0.5654
22357SOL     OW69962   4.235   6.956   5.390  0.1233  0.7364  0.2271
22357SOL    HW169963   4.304   6.905   5.348 -0.7702 -0.8717  0.6340
22357SOL    HW269964   4.281   7.009   5.456  0.9429 -0.6961  0.8646
22358SOL     OW69965   7.488   9.264   7.226  0.1293 -0.3251  0.4398
22358SOL    HW169966   7.474   9.233   7.316  1.1566  2.9795  1.8885
22358SOL    HW269967   7.426   9.214   7.174 -2.2165 -0.7513  3.3405
22359SOL     OW69968   3.391   3.066   2.600 -0.2158 -0.6922 -0.2362
22359SOL    HW169969   3.424   3.153   2.576 -1.1665 -0.4511 -0.6985
22359SOL    HW269970   3.334   3.082   2.675 -0.2602 -0.9407 -0.2179
22360SOL     OW69971   2.604   6.703   9.441  0.2097  0.4912  0.1043
22360SOL    HW169972   2.525   6.684   9.390  0.2634  1.7307 -0.4838
22360SOL    HW269973   2.668   6.639   9.410 -0.1243  0.4302 -0.4967
22361SOL     OW69974   9.457   2.205   2.862 -0.5528 -0.7585 -0.2852
22361SOL    HW169975   9.366   2.199   2.832 -0.6125  1.6630 -0.8000
22361SOL    HW269976   9.506   2.230   2.783 -0.0808  1.6615  0.6883
22362SOL     OW69977   2.685   4.728   9.306 -0.0076  0.4571 -0.1309
22362SOL    HW169978   2.714   4.648   9.350  0.3271  0.3241 -0.5826
22362SOL    HW269979   2.736   4.798   9.346 -0.7241  0.5215  0.6750
22363SOL     OW69980   5.628   9.212   8.074  0.2797 -0.4796 -0.1778
22363SOL    HW169981   5.533   9.211   8.085  0.4252 -0.3650  1.3838
22363SOL    HW269982   5.647   9.295   8.030 -0.0873  1.6896  3.3015
22364SOL     OW69983   9.271   1.319   2.182 -0.3175 -0.7835  0.0116
22364SOL    HW169984   9.310   1.332   2.095 -1.6135  0.9381 -0.3626
22364SOL    HW269985   9.190   1.270   2.165 -1.4109  0.9544 -0.0006
22365SOL     OW69986   7.163   1.002   6.775  0.1586 -0.1046 -0.3933
22365SOL    HW169987   7.159   1.083   6.723  2.1013 -1.4415 -2.8628
22365SOL    HW269988   7.075   0.993   6.811 -0.7431  1.9981 -1.8156
22366SOL     OW69989   6.097   5.921   3.946 -0.0293 -0.0507  0.5387
22366SOL    HW169990   6.014   5.878   3.927 -0.6297  1.5489 -0.7404
22366SOL    HW269991   6.157   5.850   3.967 -1.8701 -1.2036  2.2015
22367SOL     OW69992   9.062   1.517   9.247 -0.2930 -0.5995 -0.0429
22367SOL    HW169993   9.146   1.550   9.215 -0.2949  0.2672  0.7850
22367SOL    HW269994   9.081   1.485   9.335 -0.9979  0.4761  0.5298
22368SOL     OW69995   3.985   9.579   5.008  0.0475 -0.7629 -0.1350
22368SOL    HW169996   3.981   9.665   4.968  0.7260 -0.7689 -0.2305
22368SOL    HW269997   4.076   9.571   5.039  0.1321 -1.6285 -0.5719
22369SOL     OW69998   4.921   7.762   3.892  0.3739  0.0097 -0.1614
22369SOL    HW169999   4.886   7.685   3.937 -0.1443  0.8316  0.8713
22369SOL    HW270000   4.889   7.754   3.802 -1.3264  0.0231  0.4197
22370SOL     OW70001   6.202   4.541   5.355  0.3913 -0.7619  0.4428
22370SOL    HW170002   6.294   4.560   5.337  0.5594 -0.6891  1.3068
22370SOL    HW270003   6.170   4.498   5.276  0.3233  1.9368 -1.0885
22371SOL     OW70004   6.852   1.495   0.172  0.2596  0.2922 -0.0226
22371SOL    HW170005   6.937   1.462   0.202  1.2752  0.7078 -2.2568
22371SOL    HW270006   6.851   1.476   0.079 -1.8386  0.9517 -0.1771
22372SOL     OW70007   3.774   4.466   7.937 -0.0714  0.8090 -0.2698
22372SOL    HW170008   3.839   4.493   8.002 -0.2818 -0.0167  0.3036
22372SOL    HW270009   3.826   4.436   7.862  0.2437 -0.1723  0.3172
22373SOL     OW70010   4.959   6.135   6.304  0.3847 -0.3307 -0.1037
22373SOL    HW170011   4.871   6.173   6.297  0.0672 -1.1366 -0.6431
22373SOL    HW270012   4.948   6.062   6.366  0.7341 -0.2466  0.0552
22374SOL     OW70013   0.692   3.446   2.023 -0.3934 -0.1491 -0.0831
22374SOL    HW170014   0.697   3.353   2.047  0.2004 -0.0610  0.1652
22374SOL    HW270015   0.614   3.478   2.067  0.0410 -0.2671  0.8044
22375SOL     OW70016   7.012   6.668   9.359 -0.8485 -0.4334 -0.4838
22375SOL    HW170017   7.088   6.687   9.414 -0.2362 -2.1230 -0.6926
22375SOL    HW270018   6.948   6.630   9.419 -1.3864  0.5830 -0.3920
22376SOL     OW70019   6.061   4.517   8.362  0.5638 -0.3471 -0.1826
22376SOL    HW170020   6.037   4.443   8.306  0.4846 -0.3201 -0.1843
22376SOL    HW270021   6.002   4.511   8.437  0.9040 -0.5880  0.0708
22377SOL     OW70022   5.080   5.520   4.751 -0.0303 -0.3240 -0.0469
22377SOL    HW170023   5.035   5.547   4.831 -1.0742 -0.4135 -0.5921
22377SOL    HW270024   5.119   5.435   4.774 -1.4908 -1.0198 -0.0310
22378SOL     OW70025   2.385   6.563   0.117 -0.0255 -0.3273 -0.1285
22378SOL    HW170026   2.290   6.556   0.130 -0.0329 -1.4693 -0.7059
22378SOL    HW270027   2.421   6.547   0.204 -0.3792  1.3584  0.3691
22379SOL     OW70028   8.325   5.967   0.309  0.2042  0.0527  0.2990
22379SOL    HW170029   8.266   6.021   0.257  1.6238  0.1957 -1.2683
22379SOL    HW270030   8.329   5.884   0.262  1.2487  0.0561  0.3471
22380SOL     OW70031   3.402   8.422   3.669 -0.6982 -0.8519  0.4490
22380SOL    HW170032   3.361   8.467   3.743 -0.1850  1.8622 -0.7658
22380SOL    HW270033   3.496   8.428   3.686 -0.6311 -1.8428  0.4416
22381SOL     OW70034   3.586   9.240   7.196  0.0880  0.4222  0.5421
22381SOL    HW170035   3.662   9.294   7.219  0.5560 -0.1245  0.2956
22381SOL    HW270036   3.613   9.151   7.219  0.3075 -0.0657 -1.4635
22382SOL     OW70037   6.933   9.254   0.479 -0.6745 -0.1664 -0.0391
22382SOL    HW170038   6.967   9.228   0.565 -1.4226 -3.7396 -0.6743
22382SOL    HW270039   6.848   9.294   0.497 -0.2705  0.3060  0.9146
22383SOL     OW70040   7.825   8.333   4.417  0.2907  0.0132  0.2490
22383SOL    HW170041   7.816   8.266   4.349 -0.8079 -0.7737  1.1364
22383SOL    HW270042   7.743   8.382   4.414  0.1388 -0.1751  1.1523
22384SOL     OW70043   4.103   5.721   5.440 -0.4161 -0.3786 -0.3132
22384SOL    HW170044   4.051   5.641   5.435  1.1100 -1.4201 -0.3566
22384SOL    HW270045   4.164   5.706   5.512 -1.8656  1.9051  1.5402
22385SOL     OW70046   5.721   8.073   7.569 -0.3672 -0.2455  0.5015
22385SOL    HW170047   5.743   7.985   7.540 -1.2382  0.4040 -2.4179
22385SOL    HW270048   5.796   8.127   7.543 -1.2627  0.4013 -0.8098
22386SOL     OW70049   4.815   1.570   3.925 -0.1552 -0.1486  0.1073
22386SOL    HW170050   4.798   1.476   3.925  1.7734 -0.5364  0.3071
22386SOL    HW270051   4.774   1.602   3.845 -1.3196 -1.0506  0.3230
22387SOL     OW70052   5.630   3.923   2.003 -0.1098 -0.0091  0.0301
22387SOL    HW170053   5.621   3.836   2.043 -0.1629  0.4909  1.1594
22387SOL    HW270054   5.593   3.982   2.069 -1.0826  0.7783 -1.1801
22388SOL     OW70055   7.885   0.894   5.840  0.2678  0.0509 -0.0503
22388SOL    HW170056   7.977   0.882   5.816  0.6604  1.1602  0.8210
22388SOL    HW270057   7.888   0.942   5.923 -1.0979  0.6701 -0.3354
22389SOL     OW70058   2.444   2.755   5.529  0.2370 -0.1896 -1.0323
22389SOL    HW170059   2.506   2.712   5.588  0.1029  0.5301 -0.3576
22389SOL    HW270060   2.479   2.843   5.517 -1.3055  0.6615  0.3866
22390SOL     OW70061   2.323   2.511   6.114 -0.0200 -0.8287  0.1025
22390SOL    HW170062   2.306   2.421   6.084  0.7891 -1.0253  0.2005
22390SOL    HW270063   2.244   2.535   6.162 -1.4942 -0.3909 -2.3710
22391SOL     OW70064   9.230   2.792   5.486 -0.0092  0.3195 -0.4797
22391SOL    HW170065   9.202   2.701   5.476 -0.8517  0.6767 -1.6519
22391SOL    HW270066   9.292   2.805   5.415 -2.1221  1.4471 -2.2601
22392SOL     OW70067   6.915   3.708   9.332 -0.0715  0.1322  0.2386
22392SOL    HW170068   6.916   3.641   9.400  0.1584 -1.6447 -1.4391
22392SOL    HW270069   6.834   3.691   9.283  0.0343  1.0391 -0.2775
22393SOL     OW70070   8.220   1.462   1.167  0.2862 -0.3223 -0.3206
22393SOL    HW170071   8.313   1.483   1.154  0.7164 -1.3768  0.8856
22393SOL    HW270072   8.189   1.529   1.228  0.8245 -1.2278  0.9735
22394SOL     OW70073   0.848   0.990   7.036 -0.0567 -0.1027  0.7590
22394SOL    HW170074   0.804   0.923   7.089 -0.2744  0.4901  1.3463
22394SOL    HW270075   0.903   1.037   7.099  1.6363 -0.9945 -0.0081
22395SOL     OW70076   7.654   1.809   2.574 -0.0108 -0.2148 -0.2890
22395SOL    HW170077   7.712   1.738   2.545  1.6643  0.3253  1.5598
22395SOL    HW270078   7.629   1.784   2.663 -0.1070  1.0758  0.0667
22396SOL     OW70079   5.953   4.353   5.592  0.1438  0.3807 -0.2514
22396SOL    HW170080   5.863   4.357   5.558 -0.3272  2.5320  1.0641
22396SOL    HW270081   6.006   4.391   5.522  0.2014 -1.5025 -1.3153
22397SOL     OW70082   0.067   6.300   3.479  0.2910 -0.4325 -0.2458
22397SOL    HW170083   0.045   6.337   3.564  1.4651 -1.5493  0.5753
22397SOL    HW270084   0.055   6.372   3.417  0.9099  0.8322  1.0679
22398SOL     OW70085   8.053   0.588   7.911 -0.1500 -0.0280  0.3124
22398SOL    HW170086   8.035   0.552   7.998  0.0642 -0.7272  0.0669
22398SOL    HW270087   8.148   0.590   7.905 -0.1567  0.5817  0.3178
22399SOL     OW70088   0.217   5.369   7.679 -0.3480  0.1051 -0.3408
22399SOL    HW170089   0.167   5.306   7.629 -0.0012  0.1156 -0.7015
22399SOL    HW270090   0.305   5.367   7.641  0.2039 -0.6075  0.8889
22400SOL     OW70091   3.859   3.008   0.021 -0.5288 -0.0545  0.0118
22400SOL    HW170092   3.863   2.975   0.110  1.9280 -0.2814 -0.1383
22400SOL    HW270093   3.936   2.972  -0.022 -0.9562  1.1189 -1.8509
22401SOL     OW70094   1.364   2.813   9.204 -0.3246  0.0770  0.3685
22401SOL    HW170095   1.395   2.843   9.288  1.0504 -1.4468  0.4541
22401SOL    HW270096   1.319   2.888   9.166 -1.7368  0.5458  2.7940
22402SOL     OW70097   8.568   4.150   0.584 -0.5660  0.0263  0.4732
22402SOL    HW170098   8.597   4.231   0.544  2.2056 -1.7683 -1.5118
22402SOL    HW270099   8.624   4.138   0.660  0.3393 -0.8603 -0.3016
22403SOL     OW70100   0.628   2.649   3.901 -0.0110  0.1084  0.2545
22403SOL    HW170101   0.681   2.696   3.965 -0.7219 -1.8010  2.3718
22403SOL    HW270102   0.565   2.600   3.953 -1.2950 -0.7883 -1.9872
22404SOL     OW70103   4.420   1.326   7.888 -0.7700 -0.2362  0.8439
22404SOL    HW170104   4.493   1.380   7.918 -0.4896  0.9461 -1.6707
22404SOL    HW270105   4.351   1.389   7.868 -1.9826 -1.2166  1.7787
22405SOL     OW70106   8.709   6.586   0.239  0.3724  0.0079  0.6639
22405SOL    HW170107   8.659   6.668   0.229  0.7780  0.2132  0.2855
22405SOL    HW270108   8.655   6.521   0.195 -0.1030  0.0028  1.2340
22406SOL     OW70109   2.448   3.005   5.158  0.4948  0.0099  0.1280
22406SOL    HW170110   2.429   2.913   5.139 -0.8663  0.4971 -1.0952
22406SOL    HW270111   2.445   3.048   5.072 -0.8318  1.5058  0.8682
22407SOL     OW70112   2.221   2.962   5.314 -0.3907 -0.1657  0.4310
22407SOL    HW170113   2.301   2.995   5.273  0.6346 -1.0749  1.6370
22407SOL    HW270114   2.160   3.036   5.310  0.6306  0.6711 -0.1497
22408SOL     OW70115   4.101   9.572   0.781 -0.0049 -0.2785  0.1411
22408SOL    HW170116   4.181   9.593   0.828  1.0504 -1.6135 -0.9634
22408SOL    HW270117   4.125   9.500   0.723 -2.4099 -1.9009  0.9794
22409SOL     OW70118   7.177   7.767   1.419 -0.0943  0.4652 -0.1512
22409SOL    HW170119   7.250   7.827   1.404 -0.2782  0.1378 -2.8790
22409SOL    HW270120   7.194   7.694   1.359 -1.6098 -0.5898  0.6623
22410SOL     OW70121   8.593   4.070   8.308 -0.5411  0.6126 -0.0707
22410SOL    HW170122   8.547   4.150   8.280 -1.2411 -0.3175 -1.7021
22410SOL    HW270123   8.679   4.076   8.266 -0.2520  0.9126  0.5420
22411SOL     OW70124   4.056   6.607   5.019  0.3734  0.3362  0.1824
22411SOL    HW170125   4.143   6.584   4.988  0.0035  0.7369 -1.2431
22411SOL    HW270126   4.068   6.691   5.064  0.9546 -0.3501  1.3480
22412SOL     OW70127   6.151   1.918   4.424  0.6656  0.3279 -0.1906
22412SOL    HW170128   6.066   1.904   4.383  0.6346 -0.0340 -0.0037
22412SOL    HW270129   6.130   1.940   4.515  0.7336  1.1094 -0.3558
22413SOL     OW70130   0.942   0.488   6.697  0.1057  0.4585 -0.0310
22413SOL    HW170131   0.883   0.529   6.760 -0.1900  0.4753 -0.3182
22413SOL    HW270132   0.908   0.514   6.611 -1.3975 -2.1083 -0.3201
22414SOL     OW70133   6.308   4.883   0.842  0.0763 -0.2766 -0.1670
22414SOL    HW170134   6.271   4.832   0.770  0.6753 -0.2332 -0.5131
22414SOL    HW270135   6.395   4.909   0.811 -0.3253  1.2097 -0.1223
22415SOL     OW70136   8.879   2.846   4.603 -0.0403  0.0848 -0.2448
22415SOL    HW170137   8.807   2.910   4.601 -0.3369 -0.1713  0.9636
22415SOL    HW270138   8.835   2.762   4.618  0.3717 -0.3673 -1.4830
22416SOL     OW70139   5.686   8.425   6.224  0.4796  0.6158 -0.5886
22416SOL    HW170140   5.728   8.345   6.257  0.5514  0.4456 -1.0841
22416SOL    HW270141   5.739   8.450   6.148 -0.4671  0.2572 -1.3783
22417SOL     OW70142   6.284   8.090   5.550 -0.1387 -0.4057 -0.3688
22417SOL    HW170143   6.262   8.036   5.475 -0.3386 -0.7320 -0.0767
22417SOL    HW270144   6.206   8.087   5.606 -0.2773  0.4429 -0.5011
22418SOL     OW70145   9.058   5.081   7.069  0.0329 -0.6109  0.3545
22418SOL    HW170146   9.128   5.145   7.080 -1.3247  0.8851  0.5914
22418SOL    HW270147   9.048   5.042   7.156  1.9120 -2.3540 -0.1339
22419SOL     OW70148   2.312   2.607   6.963  0.6902 -0.1198 -0.1807
22419SOL    HW170149   2.352   2.529   7.002 -0.8868 -1.3669 -0.9292
22419SOL    HW270150   2.343   2.680   7.017 -0.9721 -1.6600  3.1593
22420SOL     OW70151   7.614   7.703   1.387 -0.7069  0.4736  0.5467
22420SOL    HW170152   7.576   7.749   1.462 -0.1418  1.2906  0.3435
22420SOL    HW270153   7.707   7.699   1.406 -1.0369 -3.5388  2.1359
22421SOL     OW70154   5.297   8.411   9.420 -0.2717 -0.0534 -0.5227
22421SOL    HW170155   5.333   8.351   9.485 -2.7595  0.1546  1.1697
22421SOL    HW270156   5.317   8.498   9.454 -4.0765  0.1474  1.7391
22422SOL     OW70157   4.499   3.290   4.880  0.5561 -0.3065  0.1442
22422SOL    HW170158   4.406   3.287   4.902  0.2888  0.4320 -0.7866
22422SOL    HW270159   4.532   3.203   4.903 -0.2655 -0.4337  0.8929
22423SOL     OW70160   7.071   4.419   8.588 -0.5183 -0.1261  0.1710
22423SOL    HW170161   7.101   4.334   8.622  1.1191  0.3913  0.0874
22423SOL    HW270162   7.069   4.476   8.665  1.8480  0.6776 -0.3094
22424SOL     OW70163   8.687   6.054   7.455 -0.0917  0.5925 -0.8181
22424SOL    HW170164   8.643   6.074   7.538 -0.7259 -1.0935 -0.6994
22424SOL    HW270165   8.621   6.071   7.388 -0.0794  0.4995 -0.8536
22425SOL     OW70166   9.161   6.810   5.501  0.1962  0.1529  0.0638
22425SOL    HW170167   9.201   6.760   5.429  1.4076 -0.5533  1.1930
22425SOL    HW270168   9.173   6.901   5.475 -0.8078 -0.0858 -1.3704
22426SOL     OW70169   5.971   4.800   7.636 -0.2239 -0.3170 -0.7068
22426SOL    HW170170   6.058   4.761   7.627 -0.3539 -1.1311  1.1526
22426SOL    HW270171   5.914   4.742   7.586  0.0736 -0.6365 -0.6815
22427SOL     OW70172   2.406   9.049   2.939  0.4902  0.1487 -0.4043
22427SOL    HW170173   2.466   8.978   2.965  0.0707  0.1799  0.6792
22427SOL    HW270174   2.461   9.127   2.939  1.0344 -0.2035 -1.9224
22428SOL     OW70175   5.315   1.535   2.279  0.2194 -0.7598  0.4853
22428SOL    HW170176   5.263   1.498   2.207  1.4934 -0.5228 -0.5862
22428SOL    HW270177   5.364   1.461   2.315 -1.5536 -1.2050  2.2011
22429SOL     OW70178   5.797   6.787   4.206  0.5414 -0.1057 -0.5760
22429SOL    HW170179   5.764   6.711   4.253 -0.1293  0.4166 -0.1774
22429SOL    HW270180   5.777   6.769   4.114 -2.8484  1.0625 -0.2263
22430SOL     OW70181   2.589   3.431   4.359  0.2628 -0.0672 -0.0568
22430SOL    HW170182   2.550   3.420   4.272 -0.6064 -2.5636  0.5679
22430SOL    HW270183   2.515   3.446   4.417  0.8612  1.8157  0.2592
22431SOL     OW70184   2.077   5.564   4.355 -0.5181  0.0026 -0.1809
22431SOL    HW170185   2.044   5.590   4.440 -1.0249 -1.5917  0.1412
22431SOL    HW270186   2.023   5.612   4.292 -1.8832 -0.7681  0.3703
22432SOL     OW70187   1.323   4.638   4.875  0.8483  0.5182 -0.3007
22432SOL    HW170188   1.351   4.699   4.943  1.4579 -0.5805  0.4592
22432SOL    HW270189   1.245   4.596   4.911  0.6947  0.5111 -0.6338
22433SOL     OW70190   6.225   7.018   8.447  0.1454 -0.4366 -0.0046
22433SOL    HW170191   6.218   6.996   8.540  0.5652 -0.2909  0.0624
22433SOL    HW270192   6.170   6.953   8.404  2.5844 -2.7290  0.0400
22434SOL     OW70193   3.464   2.410   5.530  0.2855 -0.3666  0.1542
22434SOL    HW170194   3.473   2.400   5.625 -0.8790 -1.2537  0.1933
22434SOL    HW270195   3.543   2.369   5.494  0.8688  0.2235  0.7399
22435SOL     OW70196   6.169   2.758   8.503 -0.1829 -0.6774  0.5208
22435SOL    HW170197   6.164   2.761   8.598  0.0849  2.1918  0.5203
22435SOL    HW270198   6.080   2.739   8.474 -1.4700  3.3232  1.3372
22436SOL     OW70199   6.370   7.041   7.453 -0.0861  0.0928 -0.5652
22436SOL    HW170200   6.401   6.970   7.510 -0.3085  1.2555  1.0747
22436SOL    HW270201   6.300   7.082   7.503  0.3738  1.7705 -1.2467
22437SOL     OW70202   8.580   2.884   1.592 -0.0399 -0.1570  0.4927
22437SOL    HW170203   8.639   2.842   1.529 -0.2244  0.9422 -0.4404
22437SOL    HW270204   8.628   2.881   1.675  1.7921  1.5189 -0.4133
22438SOL     OW70205   3.003   6.464   8.564 -0.0133 -0.5648  0.1622
22438SOL    HW170206   2.940   6.410   8.517 -0.3611 -1.0268  1.1164
22438SOL    HW270207   2.958   6.486   8.646  0.6597  0.0019  0.3866
22439SOL     OW70208   3.104   2.636   2.588  0.1319  0.0660  0.3884
22439SOL    HW170209   3.116   2.581   2.511 -1.9599  0.2215 -0.0972
22439SOL    HW270210   3.110   2.725   2.556  0.8284  0.1442  0.7085
22440SOL     OW70211   0.375   1.912   7.810  0.0932 -0.5234  0.0683
22440SOL    HW170212   0.352   1.838   7.754 -0.3648 -0.9716  0.8256
22440SOL    HW270213   0.454   1.949   7.770  0.5475 -1.6514 -0.1150
22441SOL     OW70214   2.628   5.117   7.340 -0.0998 -0.0612 -0.3337
22441SOL    HW170215   2.714   5.146   7.311  0.3876 -0.5317  0.5749
22441SOL    HW270216   2.621   5.027   7.307 -0.8053  0.4089 -1.5198
22442SOL     OW70217   8.840   0.118   8.791  0.3002  0.1130 -0.3311
22442SOL    HW170218   8.758   0.165   8.778  0.7968  0.7977 -1.1141
22442SOL    HW270219   8.819   0.027   8.773 -0.5963  0.0701  0.8602
22443SOL     OW70220   5.699   4.146   6.518 -0.3223 -0.6230  1.0405
22443SOL    HW170221   5.632   4.114   6.457 -1.0208  0.6274  1.1258
22443SOL    HW270222   5.701   4.241   6.504  1.7920 -0.6613  0.6926
22444SOL     OW70223   4.182   8.036   1.574 -0.3389  0.3870 -0.3384
22444SOL    HW170224   4.239   8.006   1.644  0.6662  1.7887 -0.5209
22444SOL    HW270225   4.159   7.956   1.526 -1.0101 -0.5872  1.5019
22445SOL     OW70226   2.034   4.513   1.530  0.1384 -0.2186 -0.2714
22445SOL    HW170227   2.052   4.444   1.594  0.2791 -0.3710 -0.4730
22445SOL    HW270228   2.058   4.594   1.575 -1.0406 -0.1933  0.3508
22446SOL     OW70229   5.915   5.310   5.359  0.3129  0.2043 -0.2022
22446SOL    HW170230   5.993   5.259   5.339  1.8007  1.7943  1.2357
22446SOL    HW270231   5.946   5.400   5.366 -1.6942  0.9191  0.2221
22447SOL     OW70232   2.707   4.993   2.141 -0.2614  0.1220  0.3252
22447SOL    HW170233   2.615   4.994   2.167 -0.0717  0.2207  1.0287
22447SOL    HW270234   2.750   4.939   2.208  0.3157  0.7378  0.4665
22448SOL     OW70235   9.395   1.467   7.679  0.1630  0.1750  0.2757
22448SOL    HW170236   9.463   1.400   7.690  0.4402  0.7943  3.2421
22448SOL    HW270237   9.335   1.452   7.753 -0.0816  2.7737  0.6821
22449SOL     OW70238   0.289   5.549   7.032 -0.3865  0.0515  0.4915
22449SOL    HW170239   0.221   5.485   7.052 -0.5205 -0.5363 -1.6373
22449SOL    HW270240   0.358   5.531   7.097 -2.8615  1.8972  3.9744
22450SOL     OW70241   4.989   6.421   2.212  0.2746  0.3826  0.4619
22450SOL    HW170242   5.035   6.481   2.154 -0.9830 -0.0010 -0.9803
22450SOL    HW270243   4.914   6.390   2.161 -1.8398  1.2585  2.8174
22451SOL     OW70244   1.435   8.189   8.843 -0.3785 -0.3712  0.0930
22451SOL    HW170245   1.503   8.250   8.871  0.1016 -0.6459 -0.4475
22451SOL    HW270246   1.481   8.106   8.831 -0.4098 -0.1009 -2.2046
22452SOL     OW70247   2.504   2.524   0.049 -0.2021 -0.1237 -0.7137
22452SOL    HW170248   2.563   2.491   0.117 -1.7345 -0.6123  0.4458
22452SOL    HW270249   2.437   2.574   0.097 -1.1852 -0.2602 -1.8798
22453SOL     OW70250   3.534   4.989   3.084  0.6611 -0.3122 -0.2062
22453SOL    HW170251   3.440   4.984   3.099  1.0483 -0.6459  2.5787
22453SOL    HW270252   3.546   4.958   2.994 -1.6854 -2.5215  0.1315
22454SOL     OW70253   3.469   4.676   9.297 -0.2320 -0.2179  0.0758
22454SOL    HW170254   3.456   4.689   9.203  1.5564  0.4597 -0.1239
22454SOL    HW270255   3.418   4.598   9.319 -2.5162  0.8940 -0.9746
22455SOL     OW70256   0.864   4.436   9.641  0.8079  0.0749 -0.0260
22455SOL    HW170257   0.814   4.424   9.722  1.3503  1.8701  0.6344
22455SOL    HW270258   0.899   4.349   9.621 -1.3140 -0.9180  0.3035
22456SOL     OW70259   3.465   7.718   8.100 -0.9252  0.6827 -0.1255
22456SOL    HW170260   3.417   7.658   8.157  0.4540  0.3337  0.6942
22456SOL    HW270261   3.543   7.670   8.073 -1.0018  1.2478 -1.4295
22457SOL     OW70262   8.828   1.036   1.979 -0.1467 -0.1127  0.0105
22457SOL    HW170263   8.780   1.001   1.904  0.7544 -1.8276  0.1985
22457SOL    HW270264   8.773   1.016   2.054 -0.0726 -0.2774  0.0208
22458SOL     OW70265   7.818   4.856   9.374  0.1711 -0.0119 -0.5117
22458SOL    HW170266   7.767   4.888   9.448 -0.2829  1.8535 -1.5706
22458SOL    HW270267   7.755   4.807   9.320 -0.4580  1.8707 -1.5657
22459SOL     OW70268   2.148   3.721   4.752 -0.3222 -0.6922 -0.3036
22459SOL    HW170269   2.093   3.752   4.823  0.6692 -2.1075  1.1386
22459SOL    HW270270   2.238   3.730   4.784  0.5644  2.7859 -3.0808
22460SOL     OW70271   7.407   5.758   1.592  0.1869  0.1808  0.2997
22460SOL    HW170272   7.441   5.842   1.622 -1.9762  0.2996  2.7915
22460SOL    HW270273   7.314   5.760   1.615 -0.7190 -1.6056 -2.6356
22461SOL     OW70274   2.194   2.964   5.973  0.0968  0.2174 -0.2923
22461SOL    HW170275   2.233   2.893   5.921 -0.2746  0.6542 -1.1962
22461SOL    HW270276   2.258   3.035   5.968 -0.6675  0.8648 -1.6139
22462SOL     OW70277   7.621   4.713   5.324  0.2913 -0.1778 -0.0435
22462SOL    HW170278   7.701   4.732   5.372  0.3387  1.5685 -0.7608
22462SOL    HW270279   7.650   4.696   5.235 -0.2090  1.7244 -0.6019
22463SOL     OW70280   0.263   8.532   2.677 -0.3866  0.1736  0.3137
22463SOL    HW170281   0.204   8.604   2.698  0.1282  0.7591 -0.1782
22463SOL    HW270282   0.213   8.476   2.617 -0.6944  0.2757  0.4761
22464SOL     OW70283   5.916   1.765   4.017 -0.8385  0.2288  0.5025
22464SOL    HW170284   5.878   1.852   4.022 -1.4801 -0.0129 -0.0550
22464SOL    HW270285   5.927   1.748   3.923  0.2512  0.1201  0.6378
22465SOL     OW70286   2.253   7.114   5.746  0.1786 -0.0500 -0.0611
22465SOL    HW170287   2.279   7.124   5.655  0.2384 -1.5821 -0.2428
22465SOL    HW270288   2.277   7.024   5.768  1.4980  0.7336  1.9280
22466SOL     OW70289   8.588   0.242   8.789  0.3433 -0.0162 -0.8197
22466SOL    HW170290   8.544   0.297   8.724  0.5681 -0.0990 -1.0419
22466SOL    HW270291   8.519   0.186   8.825 -0.1268  1.1484  0.1922
22467SOL     OW70292   1.839   5.398   2.406 -0.4634  0.1883  0.2238
22467SOL    HW170293   1.764   5.416   2.348 -0.4270 -1.9661 -0.5989
22467SOL    HW270294   1.868   5.311   2.380  2.2525  0.8825  0.6437
22468SOL     OW70295   9.536   8.304   0.848  0.5624 -0.1891 -0.1834
22468SOL    HW170296   9.593   8.256   0.788 -0.3693 -0.3419 -0.9646
22468SOL    HW270297   9.484   8.237   0.891 -0.1264  0.0346 -0.6373
22469SOL     OW70298   1.783   1.265   5.559 -0.1272 -0.0476  0.4812
22469SOL    HW170299   1.731   1.311   5.494 -0.3306  0.6368  1.1191
22469SOL    HW270300   1.842   1.209   5.507 -0.6008  0.1342 -0.2692
22470SOL     OW70301   7.790   0.619   9.023 -0.5144  0.4902 -0.2945
22470SOL    HW170302   7.853   0.618   8.951 -0.7608  0.7587 -0.5181
22470SOL    HW270303   7.820   0.551   9.083 -0.2943  0.2809 -0.6420
22471SOL     OW70304   0.541   6.898   4.400 -0.4468 -0.2505 -0.0749
22471SOL    HW170305   0.582   6.814   4.419  1.4420  0.2899 -1.4516
22471SOL    HW270306   0.448   6.877   4.388 -0.0116 -2.1688 -0.4783
22472SOL     OW70307   0.461   5.735   6.504 -0.4610 -0.1766 -0.2616
22472SOL    HW170308   0.374   5.696   6.495  0.0659 -1.5184  0.3211
22472SOL    HW270309   0.477   5.736   6.598 -0.0914  0.6556 -0.3242
22473SOL     OW70310   4.949   8.083   7.907  0.0337 -0.2517  0.5115
22473SOL    HW170311   5.001   8.006   7.881  1.0391  0.7063 -0.3957
22473SOL    HW270312   4.866   8.072   7.859  0.1281 -0.8127  0.4619
22474SOL     OW70313   7.733   0.052   5.937 -0.2645  0.0652  0.4714
22474SOL    HW170314   7.826   0.040   5.955  0.0461 -1.0970 -1.5930
22474SOL    HW270315   7.717   0.001   5.857 -2.6581  0.3110  0.7215
22475SOL     OW70316   8.981   3.311   8.423  0.0670 -0.1942 -0.2343
22475SOL    HW170317   9.047   3.267   8.476  0.2920 -0.7816 -0.9829
22475SOL    HW270318   9.003   3.404   8.430  0.5300 -0.3262  0.1071
22476SOL     OW70319   4.953   3.417   3.571  0.1858 -0.3791  0.3647
22476SOL    HW170320   4.988   3.337   3.610  1.5317  0.0648  0.1257
22476SOL    HW270321   4.952   3.399   3.477  0.1281 -0.2497  0.3406
22477SOL     OW70322   6.652   3.566   0.095 -0.2568 -0.0404  0.0759
22477SOL    HW170323   6.608   3.483   0.114  1.1425 -0.8383 -0.0157
22477SOL    HW270324   6.687   3.554   0.006 -0.8119  0.9971 -0.2887
22478SOL     OW70325   4.434   8.455   7.223  0.0619 -0.1361  0.0839
22478SOL    HW170326   4.377   8.427   7.295 -1.2142 -2.0131 -1.5727
22478SOL    HW270327   4.509   8.396   7.227  0.2333  0.0794  0.1286
22479SOL     OW70328   9.533   1.021   6.454 -0.0903 -0.2359  0.1459
22479SOL    HW170329   9.604   1.083   6.474 -0.3522  0.5394 -1.2155
22479SOL    HW270330   9.524   1.024   6.359 -1.9886 -0.2480  0.2757
22480SOL     OW70331   1.262   3.500   9.085 -0.0524  0.4219 -0.2623
22480SOL    HW170332   1.179   3.453   9.089  0.2548 -0.0334  1.2309
22480SOL    HW270333   1.265   3.551   9.166  0.8903  0.8386 -0.5388
22481SOL     OW70334   1.053   9.389   9.643  0.0139 -0.4518  0.2475
22481SOL    HW170335   1.090   9.456   9.701 -0.7245  0.6822 -0.5308
22481SOL    HW270336   1.009   9.440   9.574 -0.3612 -1.7550 -0.5027
22482SOL     OW70337   3.348   8.221   3.129 -0.1848  0.7096 -0.9184
22482SOL    HW170338   3.386   8.137   3.152 -1.6854  0.6127  1.4954
22482SOL    HW270339   3.416   8.286   3.150  0.5365  0.2273 -1.6875
22483SOL     OW70340   2.593   9.139   4.735 -0.1479  0.2230  0.2593
22483SOL    HW170341   2.579   9.198   4.809  2.0365  0.1197  0.8383
22483SOL    HW270342   2.595   9.196   4.658 -0.5215  0.5878  0.5199
22484SOL     OW70343   5.778   0.501   9.268 -0.1135 -0.0880  0.0216
22484SOL    HW170344   5.698   0.454   9.242  0.7659 -2.0187  0.6090
22484SOL    HW270345   5.848   0.454   9.224  0.9214 -0.0328  1.5461
22485SOL     OW70346   6.545   6.580   9.049 -0.1527  0.4224 -0.0532
22485SOL    HW170347   6.623   6.525   9.036  1.6541  2.6687  0.5019
22485SOL    HW270348   6.511   6.595   8.961 -1.2741 -2.2117 -0.1733
22486SOL     OW70349   2.642   7.991   6.314 -0.3129 -0.2232 -0.7003
22486SOL    HW170350   2.574   8.056   6.293  0.4529  0.3850 -1.3428
22486SOL    HW270351   2.715   8.013   6.257  0.4283 -0.8811 -0.0290
22487SOL     OW70352   6.129   8.035   2.917 -0.2525 -0.0259  0.1417
22487SOL    HW170353   6.180   7.986   2.852 -2.0637 -0.1977 -1.2280
22487SOL    HW270354   6.055   7.979   2.938 -0.6559  0.7921  1.0022
22488SOL     OW70355   9.148   9.215   3.239 -0.6870 -0.2339  0.0526
22488SOL    HW170356   9.124   9.297   3.282 -0.2004 -0.0873  0.0484
22488SOL    HW270357   9.188   9.243   3.156  1.6769 -0.3707  1.0910
22489SOL     OW70358   6.079   0.310   5.694 -1.0043  0.2386 -0.0101
22489SOL    HW170359   5.999   0.286   5.742 -0.4760 -0.8725  0.3651
22489SOL    HW270360   6.142   0.329   5.763 -0.2220 -1.4126 -0.2121
22490SOL     OW70361   2.022   0.967   1.785 -0.2421  0.0994 -0.0541
22490SOL    HW170362   2.003   0.927   1.700  0.9283 -0.1553 -0.2086
22490SOL    HW270363   2.010   0.896   1.848  1.0222 -0.3140 -0.2458
22491SOL     OW70364   7.938   8.641   1.503  0.1290  0.0142  0.5532
22491SOL    HW170365   7.849   8.677   1.505 -0.2907 -1.0209  1.1267
22491SOL    HW270366   7.992   8.713   1.470 -0.9453  0.6003  0.0166
22492SOL     OW70367   7.030   9.053   5.551 -0.2130  0.6973 -0.1183
22492SOL    HW170368   7.096   9.122   5.562  0.6539  0.2406 -2.0149
22492SOL    HW270369   7.079   8.972   5.559 -0.0177  0.3234 -3.5222
22493SOL     OW70370   2.303   6.538   7.508  0.1959 -0.2385 -0.8581
22493SOL    HW170371   2.329   6.614   7.455  0.0752 -0.0879 -0.7049
22493SOL    HW270372   2.212   6.523   7.485 -1.0477  2.0668  1.8537
22494SOL     OW70373   6.447   8.841   3.782  0.2024 -0.0653  0.1714
22494SOL    HW170374   6.377   8.804   3.836 -0.4702  3.3673  1.9065
22494SOL    HW270375   6.404   8.860   3.698  0.8953 -4.0687 -1.3100
22495SOL     OW70376   1.572   2.616   8.219  0.3549  0.8267 -0.3701
22495SOL    HW170377   1.537   2.686   8.274 -0.8220  0.8756 -1.1303
22495SOL    HW270378   1.570   2.652   8.130  0.0940 -0.0309 -0.7208
22496SOL     OW70379   3.324   9.241   6.054  0.1604  0.2544 -0.0853
22496SOL    HW170380   3.390   9.182   6.090  1.3935  0.5787 -1.7081
22496SOL    HW270381   3.349   9.328   6.086  0.9924  0.4799 -1.2839
22497SOL     OW70382   9.144   6.671   1.353 -0.0401  0.4339  0.0719
22497SOL    HW170383   9.183   6.740   1.299  0.6747  0.3298  0.4436
22497SOL    HW270384   9.072   6.714   1.398 -2.8281 -0.1964 -3.3716
22498SOL     OW70385   5.477   5.130   1.827  0.3694 -0.2323  0.0958
22498SOL    HW170386   5.571   5.145   1.837  0.6479 -1.0087 -1.1303
22498SOL    HW270387   5.446   5.109   1.915  1.5061 -0.8089  0.3717
22499SOL     OW70388   1.603   9.511   0.660 -0.1318  0.3055  0.0381
22499SOL    HW170389   1.522   9.495   0.709 -0.2655 -0.3527 -0.3765
22499SOL    HW270390   1.671   9.470   0.713 -0.0641  0.9009  0.4112
22500SOL     OW70391   6.418   2.833   5.255 -0.3312 -0.1368  0.0135
22500SOL    HW170392   6.385   2.745   5.273  0.9381 -0.4207  1.1071
22500SOL    HW270393   6.351   2.891   5.292 -0.6872 -0.6495  0.1918
22501SOL     OW70394   7.975   1.933   8.294  0.0167  0.1433 -0.0707
22501SOL    HW170395   7.969   1.837   8.296 -1.2029  0.1943  1.7845
22501SOL    HW270396   7.926   1.961   8.372  0.0311  2.2945 -0.7799
22502SOL     OW70397   0.999   4.439   2.715 -0.3781  0.1742  0.1201
22502SOL    HW170398   0.958   4.447   2.802  0.1041  1.3442  0.2679
22502SOL    HW270399   0.988   4.347   2.692 -0.2232 -0.2428  1.5749
22503SOL     OW70400   1.611   2.482   0.399 -0.1610  0.0957 -0.0295
22503SOL    HW170401   1.598   2.454   0.489 -0.6956 -0.6573 -0.3377
22503SOL    HW270402   1.706   2.496   0.392 -0.2017  0.9835  0.8714
22504SOL     OW70403   6.373   9.467   4.131 -0.0186  0.2007  0.2216
22504SOL    HW170404   6.376   9.388   4.077 -1.6522 -1.7332  2.6982
22504SOL    HW270405   6.457   9.467   4.178 -0.0600 -0.1623  0.2989
22505SOL     OW70406   5.112   4.568   1.152 -0.5371  0.0151  0.1942
22505SOL    HW170407   5.157   4.526   1.226 -1.6940 -2.9113 -0.6052
22505SOL    HW270408   5.157   4.533   1.075 -0.5133  1.6273 -0.5596
22506SOL     OW70409   2.271   8.177   3.968 -0.3232  0.3749 -0.4365
22506SOL    HW170410   2.289   8.223   4.050  0.7998  0.0024 -0.4578
22506SOL    HW270411   2.340   8.208   3.908 -1.4647  1.0881 -1.4349
22507SOL     OW70412   5.488   3.095   4.281 -0.1173  0.8642 -0.1793
22507SOL    HW170413   5.574   3.126   4.308 -0.3313 -0.6471  2.6651
22507SOL    HW270414   5.427   3.154   4.325 -0.4743 -1.2109  2.4059
22508SOL     OW70415   2.579   7.244   7.422 -0.1625  0.1625  0.3144
22508SOL    HW170416   2.519   7.290   7.363  1.7133  1.4236 -0.6818
22508SOL    HW270417   2.646   7.207   7.365  0.5149 -0.4663  1.4798
22509SOL     OW70418   2.672   1.820   3.605  0.1030  0.0643 -0.0378
22509SOL    HW170419   2.633   1.759   3.542 -0.7158  0.3559  0.1728
22509SOL    HW270420   2.711   1.889   3.551  1.0890 -0.6494 -0.2814
22510SOL     OW70421   5.868   7.658   9.282 -0.1275 -0.5925  0.2583
22510SOL    HW170422   5.780   7.624   9.299 -0.4049  0.6991  1.6265
22510SOL    HW270423   5.877   7.655   9.186 -2.1384  0.3502 -0.0071
22511SOL     OW70424   7.312   6.800   8.886 -0.1486  0.5796 -0.3958
22511SOL    HW170425   7.250   6.780   8.815 -0.7625  1.3621 -0.1058
22511SOL    HW270426   7.358   6.718   8.901 -1.0029  0.0112 -0.7377
22512SOL     OW70427   7.151   8.850   0.068 -0.3013  0.1473  0.0104
22512SOL    HW170428   7.169   8.785   0.001  0.0780  0.3519 -0.0880
22512SOL    HW270429   7.099   8.803   0.133  1.6307 -0.8335  0.9329
22513SOL     OW70430   5.933   6.293   5.112  0.2059  0.5173  0.1780
22513SOL    HW170431   5.944   6.292   5.017 -0.3388 -2.3473  0.0518
22513SOL    HW270432   6.016   6.327   5.146  1.0776 -0.0487 -1.3012
22514SOL     OW70433   0.125   5.520   2.211  0.1137  0.3849  0.0632
22514SOL    HW170434   0.198   5.518   2.274 -1.3498  1.0312  1.8930
22514SOL    HW270435   0.100   5.429   2.200 -0.4941  0.3419  1.5695
22515SOL     OW70436   2.874   0.508   7.184 -0.1557  0.0044 -0.1223
22515SOL    HW170437   2.899   0.425   7.142  2.1451 -0.5884  2.1673
22515SOL    HW270438   2.825   0.481   7.262  1.6676  0.6602  1.3094
22516SOL     OW70439   0.341   8.826   7.385 -0.3264 -0.3547 -0.9466
22516SOL    HW170440   0.317   8.919   7.381 -2.1749 -0.7929 -1.0086
22516SOL    HW270441   0.434   8.825   7.363  0.0984  1.6092  0.4102
22517SOL     OW70442   0.719   0.219   4.917  0.2979  0.3786 -0.6436
22517SOL    HW170443   0.672   0.137   4.901  1.4348 -0.8799  1.8306
22517SOL    HW270444   0.711   0.268   4.836 -0.5258 -2.1489 -2.1995
22518SOL     OW70445   6.099   4.960   8.841 -0.0596 -0.0632 -0.1204
22518SOL    HW170446   6.137   4.901   8.776 -2.9677 -0.5367 -1.5985
22518SOL    HW270447   6.090   4.907   8.920  2.2672  0.1084  0.3236
22519SOL     OW70448   8.666   8.630   2.496 -0.1548  0.1888  0.3242
22519SOL    HW170449   8.623   8.550   2.529 -0.5733 -0.1841 -1.0780
22519SOL    HW270450   8.612   8.701   2.531 -1.2844 -0.2389 -0.4813
22520SOL     OW70451   5.430   9.597   8.881  0.0381  0.5945 -0.1366
22520SOL    HW170452   5.414   9.561   8.968  0.9449  1.1127  0.2587
22520SOL    HW270453   5.521   9.577   8.862  0.5179  2.4328  0.0060
22521SOL     OW70454   6.739   2.736   2.408  0.2552  0.0771 -0.0656
22521SOL    HW170455   6.644   2.742   2.399  0.1237 -1.3185  0.0936
22521SOL    HW270456   6.771   2.731   2.318 -0.0126 -1.4253 -0.1074
22522SOL     OW70457   7.390   0.392   1.710  0.1362 -0.5866 -0.2974
22522SOL    HW170458   7.346   0.477   1.708  2.0841  0.5322  1.3069
22522SOL    HW270459   7.321   0.330   1.733 -1.1393  0.6829 -0.5629
22523SOL     OW70460   7.792   1.191   0.038  0.2382 -0.2798 -0.2046
22523SOL    HW170461   7.725   1.236   0.090  1.0728  1.2457 -0.3846
22523SOL    HW270462   7.778   1.098   0.057 -0.1823  0.1441  1.8902
22524SOL     OW70463   2.982   2.561   2.814 -0.5685 -0.2258  0.3370
22524SOL    HW170464   3.024   2.577   2.729  0.9309  0.5557  1.1859
22524SOL    HW270465   2.888   2.575   2.797 -0.2990 -0.0399 -1.1698
22525SOL     OW70466   6.383   5.891   2.875  0.4854 -0.0699  0.2594
22525SOL    HW170467   6.378   5.936   2.791 -0.1087 -0.5299  0.0385
22525SOL    HW270468   6.469   5.915   2.910  0.3429  0.9028 -0.0248
22526SOL     OW70469   3.266   2.791   1.398 -0.1775 -0.0055 -0.0735
22526SOL    HW170470   3.286   2.798   1.491 -0.4805  1.4669 -0.0965
22526SOL    HW270471   3.266   2.697   1.380  2.1063 -0.2639  0.9237
22527SOL     OW70472   5.013   6.298   4.585 -0.0273  0.0177 -0.2191
22527SOL    HW170473   4.945   6.253   4.636 -1.2089  1.1768 -0.7100
22527SOL    HW270474   4.965   6.361   4.531  1.4720  1.1584 -0.2951
22528SOL     OW70475   6.162   4.358   6.582 -0.1854 -0.2981 -0.6360
22528SOL    HW170476   6.129   4.270   6.564  1.1825 -0.8464 -0.6205
22528SOL    HW270477   6.101   4.416   6.538 -0.5393 -1.3081 -1.5200
22529SOL     OW70478   1.344   7.340   8.658  0.3847 -0.1230  0.3308
22529SOL    HW170479   1.355   7.309   8.748 -2.5684  1.5483  1.3995
22529SOL    HW270480   1.348   7.261   8.604  0.8878 -1.3193  2.0441
22530SOL     OW70481   2.592   8.270   6.858 -0.2418 -0.1905 -0.0387
22530SOL    HW170482   2.633   8.183   6.855  1.7558  0.5726  1.8982
22530SOL    HW270483   2.518   8.259   6.918 -0.1368 -0.6140  0.0205
22531SOL     OW70484   0.940   0.680   5.214 -0.0076 -0.1874 -0.0557
22531SOL    HW170485   1.004   0.649   5.279  1.9028 -0.9142 -2.1559
22531SOL    HW270486   0.980   0.758   5.176 -0.7167 -0.2189 -0.8916
22532SOL     OW70487   6.147   3.113   5.091 -0.0924 -0.6741  0.0697
22532SOL    HW170488   6.141   3.045   5.158  1.4993 -0.0636  0.8887
22532SOL    HW270489   6.224   3.088   5.039  1.4327  1.1764  1.2696
22533SOL     OW70490   3.214   6.657   6.673  0.1874 -0.4748  0.1394
22533SOL    HW170491   3.151   6.728   6.661  0.7459  0.2395  1.2180
22533SOL    HW270492   3.221   6.616   6.587 -0.2272  0.7068 -0.4852
22534SOL     OW70493   8.352   0.006   8.663  0.0492  0.4330  0.1930
22534SOL    HW170494   8.369  -0.088   8.672 -0.7197  0.1156 -1.2541
22534SOL    HW270495   8.318   0.033   8.748  0.5794 -0.5222  0.7288
22535SOL     OW70496   7.339   7.552   0.892  0.2638 -0.5361  0.4333
22535SOL    HW170497   7.430   7.555   0.863  0.8180 -1.7306  1.8950
22535SOL    HW270498   7.341   7.583   0.982 -0.4599 -2.2241  1.0817
22536SOL     OW70499   4.341   4.284   8.348  0.0154 -0.4322 -0.0017
22536SOL    HW170500   4.345   4.189   8.359 -0.6386 -0.5920 -0.9929
22536SOL    HW270501   4.252   4.307   8.376 -0.3410 -0.3359 -1.1535
22537SOL     OW70502   2.418   5.581   9.467 -0.2605  0.0300 -0.1485
22537SOL    HW170503   2.371   5.549   9.391 -2.8528  0.6395  1.0881
22537SOL    HW270504   2.374   5.663   9.489  0.2187 -0.2772  2.1619
22538SOL     OW70505   0.403   4.064   4.136  0.2484 -0.2303 -0.1955
22538SOL    HW170506   0.455   4.077   4.056  1.2574 -1.1645  0.2837
22538SOL    HW270507   0.320   4.108   4.117  0.4442 -0.4619 -1.7775
22539SOL     OW70508   1.707   0.063   3.124 -0.3308  0.4328 -0.1384
22539SOL    HW170509   1.723   0.141   3.071 -1.8066  0.6589 -0.2964
22539SOL    HW270510   1.759  -0.006   3.083 -0.7546  0.8105 -1.3656
22540SOL     OW70511   9.518   4.144   3.650 -0.1728  0.2363  0.1566
22540SOL    HW170512   9.485   4.196   3.577  1.0891  0.5725 -0.1828
22540SOL    HW270513   9.439   4.119   3.698 -1.0056  0.2393 -1.1493
22541SOL     OW70514   6.192   2.010   2.945 -0.6717 -0.0684 -0.1629
22541SOL    HW170515   6.277   1.979   2.914  0.6296  2.0294  1.0957
22541SOL    HW270516   6.134   2.000   2.869  0.5072 -2.0709 -0.8714
22542SOL     OW70517   3.303   1.331   4.163 -0.3868  0.4810 -0.4404
22542SOL    HW170518   3.386   1.377   4.161  0.3308 -0.3519  3.2827
22542SOL    HW270519   3.307   1.270   4.090  2.5833  0.0458 -0.0088
22543SOL     OW70520   1.547   1.682   3.341 -0.3725  1.1224 -0.0595
22543SOL    HW170521   1.496   1.608   3.375  0.5259  0.3738 -0.2826
22543SOL    HW270522   1.617   1.695   3.406 -0.2976  1.5189 -0.2174
22544SOL     OW70523   9.320   7.926   3.985 -0.7111 -0.4992 -0.5166
22544SOL    HW170524   9.280   7.967   4.062  0.9121  1.1341 -0.4549
22544SOL    HW270525   9.252   7.929   3.918 -1.3008  0.5107  0.0993
22545SOL     OW70526   8.977   0.919   6.424 -0.2771 -0.6067  0.5425
22545SOL    HW170527   9.030   0.996   6.445 -1.7757 -0.0517  2.5382
22545SOL    HW270528   9.035   0.845   6.442  1.5315 -0.0613 -2.3758
22546SOL     OW70529   4.433   4.655   7.882  0.3923  0.1158 -0.4174
22546SOL    HW170530   4.390   4.719   7.939 -2.5773 -1.0131 -1.2099
22546SOL    HW270531   4.376   4.649   7.806  3.2371  0.1491 -2.7203
22547SOL     OW70532   6.946   4.935   1.418  0.1629 -0.1694  0.2454
22547SOL    HW170533   6.853   4.956   1.423  0.1043 -0.3630  0.0107
22547SOL    HW270534   6.952   4.868   1.349  0.2023 -1.7423  1.7258
22548SOL     OW70535   6.210   7.274   0.592  0.3400  0.1465 -0.2968
22548SOL    HW170536   6.227   7.203   0.655  0.8477 -0.2560 -0.8810
22548SOL    HW270537   6.230   7.236   0.507  2.1306  1.4678 -0.5062
22549SOL     OW70538   2.784   6.384   6.200  0.1440 -0.0691 -0.0868
22549SOL    HW170539   2.852   6.401   6.136 -1.9270  0.7419 -2.2059
22549SOL    HW270540   2.743   6.302   6.171 -1.6027  0.9310 -0.6036
22550SOL     OW70541   5.170   5.772   4.650  0.5496 -1.0050  0.0163
22550SOL    HW170542   5.128   5.692   4.682  1.9990 -2.2023 -0.9189
22550SOL    HW270543   5.263   5.750   4.647  0.9170  0.5580 -0.7750
22551SOL     OW70544   6.226   5.461   3.447  0.2994  0.3325  0.2547
22551SOL    HW170545   6.214   5.439   3.539 -0.3856 -0.6786 -0.0628
22551SOL    HW270546   6.138   5.478   3.414  0.4349 -0.2086 -0.4196
22552SOL     OW70547   0.181   8.542   8.544 -0.1248 -0.3078 -0.2307
22552SOL    HW170548   0.150   8.631   8.529  0.2998 -0.0906  0.1679
22552SOL    HW270549   0.267   8.540   8.502  0.6840  0.0311  1.3593
22553SOL     OW70550   4.140   7.997   5.503  0.4730  0.4208 -0.5315
22553SOL    HW170551   4.218   7.993   5.449  0.6034 -0.1208 -0.3188
22553SOL    HW270552   4.086   8.065   5.464  0.6623  0.1862 -1.2082
22554SOL     OW70553   5.900   8.279   3.000  0.0084 -0.1420  0.4709
22554SOL    HW170554   5.859   8.303   3.083  0.5910  0.6701  0.5392
22554SOL    HW270555   5.937   8.192   3.016 -2.2477 -1.2249  0.1847
22555SOL     OW70556   0.408   2.369   8.090 -0.5625  0.6347  0.0318
22555SOL    HW170557   0.405   2.290   8.036  1.1078  0.6653 -0.1348
22555SOL    HW270558   0.392   2.337   8.179 -0.0165  0.1206 -0.0515
22556SOL     OW70559   3.758   3.557   5.299 -0.1500 -0.0673 -0.0132
22556SOL    HW170560   3.713   3.516   5.225 -0.9861 -2.1509  1.5245
22556SOL    HW270561   3.689   3.607   5.343 -0.1803 -0.4971  0.4480
22557SOL     OW70562   3.404   7.017   6.688  0.4186  0.4474 -0.0998
22557SOL    HW170563   3.431   7.094   6.638  1.8023  0.9125  1.3038
22557SOL    HW270564   3.321   7.042   6.728  0.2201  0.7314 -0.6817
22558SOL     OW70565   1.690   9.605   2.556 -0.1200  0.0040  0.0179
22558SOL    HW170566   1.612   9.644   2.594  0.3087  0.6512  0.2392
22558SOL    HW270567   1.749   9.678   2.540 -0.7799  0.0140 -3.1704
22559SOL     OW70568   1.035   4.660   9.643 -0.2861  0.9479  0.1543
22559SOL    HW170569   0.953   4.611   9.633 -0.5192  1.5753 -1.2174
22559SOL    HW270570   1.010   4.742   9.684 -0.4513  1.3639 -0.7489
22560SOL     OW70571   4.230   5.138   0.730  0.4462 -0.6460 -0.0387
22560SOL    HW170572   4.202   5.100   0.647 -1.0166 -2.1885  1.0799
22560SOL    HW270573   4.312   5.092   0.751  0.0617 -1.3078  0.0462
22561SOL     OW70574   5.649   1.517   6.033 -0.0678  0.0173 -0.2680
22561SOL    HW170575   5.738   1.500   6.063  0.0146 -0.5713 -0.8190
22561SOL    HW270576   5.614   1.580   6.095  0.8913  0.6083 -0.3131
22562SOL     OW70577   4.014   3.534   1.394  0.2737  0.6502 -0.2405
22562SOL    HW170578   4.049   3.452   1.358  1.3149  1.1353 -0.3550
22562SOL    HW270579   4.091   3.583   1.423 -0.3455  1.5333 -0.0447
22563SOL     OW70580   5.110   1.845   1.054  0.4523 -0.1993  0.3609
22563SOL    HW170581   5.041   1.872   1.115 -1.0402 -0.8133 -0.9928
22563SOL    HW270582   5.191   1.863   1.101 -0.5940  1.3248  1.6900
22564SOL     OW70583   1.559   7.068   7.227  0.1627 -0.0147 -0.1318
22564SOL    HW170584   1.541   7.107   7.312 -0.4669 -0.2822 -0.1316
22564SOL    HW270585   1.478   7.021   7.205  0.2291  0.2577 -0.9913
22565SOL     OW70586   9.204   9.193   1.242 -0.2863 -0.3940  0.4196
22565SOL    HW170587   9.292   9.230   1.239 -0.5473  0.1916 -0.8450
22565SOL    HW270588   9.211   9.110   1.195 -0.2689 -0.6792  0.9193
22566SOL     OW70589   1.995   2.761   2.679 -0.7230 -0.1028  0.1066
22566SOL    HW170590   1.978   2.674   2.716 -1.8801 -0.3454 -0.9341
22566SOL    HW270591   2.076   2.749   2.628  0.5856  0.1080  2.0361
22567SOL     OW70592   7.429   7.938   6.739 -0.4486  0.1119 -0.2185
22567SOL    HW170593   7.524   7.937   6.728 -0.2208 -0.2933  1.4663
22567SOL    HW270594   7.404   8.030   6.727  0.3947  0.5122  0.9301
22568SOL     OW70595   4.391   6.883   0.051 -0.3162  0.4192 -0.2766
22568SOL    HW170596   4.307   6.836   0.046 -0.8101  1.4455 -2.2705
22568SOL    HW270597   4.442   6.850  -0.023  1.4472 -0.8212  1.3884
22569SOL     OW70598   8.922   4.915   1.907 -1.1280  0.2406  0.2211
22569SOL    HW170599   8.845   4.927   1.963 -2.5072 -1.6824 -1.1356
22569SOL    HW270600   8.896   4.950   1.822  0.3090  1.5086  0.2608
22570SOL     OW70601   8.137   6.438   3.684 -0.0913  0.0552  0.5226
22570SOL    HW170602   8.102   6.521   3.717  2.2474  0.6884  1.6213
22570SOL    HW270603   8.211   6.463   3.630 -0.4329 -1.2699 -0.6150
22571SOL     OW70604   8.673   9.321   7.735 -0.1547 -0.0533 -0.3000
22571SOL    HW170605   8.742   9.307   7.669  0.7649  2.3335  0.0664
22571SOL    HW270606   8.616   9.387   7.696  0.2732  1.2343  1.1669
22572SOL     OW70607   6.681   6.001   8.020 -0.1185 -0.4341 -0.2401
22572SOL    HW170608   6.709   6.013   7.929  1.2296  1.4323  0.3377
22572SOL    HW270609   6.588   6.020   8.019  0.0652  0.5481 -1.0992
22573SOL     OW70610   2.652   7.048   3.245  0.3151 -0.3434  0.6647
22573SOL    HW170611   2.663   7.142   3.251  0.7584 -0.3425  0.0495
22573SOL    HW270612   2.702   7.023   3.167 -0.8038 -0.9225  0.1009
22574SOL     OW70613   9.236   3.513   6.022  0.0510 -0.2171 -0.4860
22574SOL    HW170614   9.212   3.596   5.980 -0.9391 -1.3129 -2.1892
22574SOL    HW270615   9.266   3.539   6.109  0.5750  2.0050 -1.2548
22575SOL     OW70616   2.092   5.309   6.644  0.1338 -0.3369  0.6570
22575SOL    HW170617   2.035   5.233   6.652  0.0864 -0.2491  1.2165
22575SOL    HW270618   2.072   5.345   6.557  0.5694 -1.2826  0.1492
22576SOL     OW70619   9.093   8.013   6.942  0.2506 -0.2433  0.6610
22576SOL    HW170620   9.174   8.063   6.929 -0.2269  0.2182 -0.6630
22576SOL    HW270621   9.123   7.923   6.957  1.0494  0.1381  1.4489
22577SOL     OW70622   1.470   5.344   3.988 -0.2161  0.7081  0.0002
22577SOL    HW170623   1.549   5.384   4.024 -1.9913  2.7594  1.9880
22577SOL    HW270624   1.420   5.317   4.065 -1.6649 -0.0588 -1.1649
22578SOL     OW70625   4.419   4.614   4.515  0.2680  0.0173  0.2375
22578SOL    HW170626   4.440   4.584   4.603  0.9482 -1.1665 -0.3104
22578SOL    HW270627   4.494   4.589   4.462 -1.0359 -1.2357 -1.0981
22579SOL     OW70628   3.019   7.693   4.583 -0.1656 -0.1792 -0.2139
22579SOL    HW170629   3.076   7.616   4.581 -0.9575 -0.7810 -0.4134
22579SOL    HW270630   2.971   7.689   4.500  0.3575  0.9860 -0.5854
22580SOL     OW70631   3.336   8.653   5.896  0.2000 -0.4730  0.3785
22580SOL    HW170632   3.372   8.655   5.985 -0.7034 -1.8997  0.8134
22580SOL    HW270633   3.353   8.564   5.865 -0.7439 -0.4163 -0.3441
22581SOL     OW70634   4.611   8.662   1.890  0.1796  0.0934 -0.2468
22581SOL    HW170635   4.585   8.587   1.942  2.8362  0.3403  1.6368
22581SOL    HW270636   4.579   8.738   1.938  1.6799  0.2804  0.5247
22582SOL     OW70637   2.771   0.600   0.374 -0.3561  0.4920  0.0265
22582SOL    HW170638   2.823   0.561   0.444  1.1010  0.6167 -0.9606
22582SOL    HW270639   2.697   0.640   0.420  0.5056  0.4952  1.4938
22583SOL     OW70640   8.034   5.906   9.473  0.1725  0.7107  0.1557
22583SOL    HW170641   7.940   5.896   9.456  0.2338  0.6295 -0.1274
22583SOL    HW270642   8.056   5.831   9.529 -0.0441  1.0265  0.6791
22584SOL     OW70643   0.776   0.362   4.690 -0.2372  0.1540 -0.5041
22584SOL    HW170644   0.863   0.371   4.729 -0.7027  1.2007  0.3520
22584SOL    HW270645   0.792   0.323   4.604  0.8450 -2.0593  0.6219
22585SOL     OW70646   5.980   4.048   7.687  0.3983 -0.3202  0.2182
22585SOL    HW170647   6.043   4.103   7.733 -0.0644  2.8616 -2.6179
22585SOL    HW270648   6.028   4.014   7.612 -0.5813  0.1569 -0.6477
22586SOL     OW70649   8.958   0.542   4.040  0.0463  0.1445  0.5680
22586SOL    HW170650   8.888   0.495   3.995 -0.4970  0.1358  1.3990
22586SOL    HW270651   9.034   0.533   3.982 -0.2027 -1.2386  0.4148
22587SOL     OW70652   1.428   6.970   5.012  0.1045  0.3060  0.6363
22587SOL    HW170653   1.373   7.021   5.071 -1.3324 -1.1978  0.6605
22587SOL    HW270654   1.432   6.883   5.052  1.3837  0.0077 -0.0882
22588SOL     OW70655   4.109   4.393   7.817 -0.4957 -0.8261  0.1482
22588SOL    HW170656   4.191   4.400   7.866 -1.0151  0.2569  0.9007
22588SOL    HW270657   4.070   4.311   7.848 -0.7941 -0.1878  1.5652
22589SOL     OW70658   2.425   5.354   4.224  0.0047 -0.6759 -0.1424
22589SOL    HW170659   2.459   5.435   4.187 -0.9221 -0.2836 -0.1502
22589SOL    HW270660   2.497   5.319   4.276  0.9735 -0.6972 -1.4581
22590SOL     OW70661   2.508   9.156   9.644  0.2838  0.4011  0.5478
22590SOL    HW170662   2.601   9.172   9.625  0.5823  0.6408  2.1102
22590SOL    HW270663   2.481   9.092   9.579  1.1495  1.4127 -0.8742
22591SOL     OW70664   4.858   1.453   1.420 -0.5461 -0.0050 -0.0859
22591SOL    HW170665   4.791   1.395   1.457  0.6663 -0.6195  1.2429
22591SOL    HW270666   4.929   1.452   1.484  1.2728 -0.3400 -2.0032
22592SOL     OW70667   8.740   3.252   8.291  0.4282 -0.0399 -0.1252
22592SOL    HW170668   8.679   3.224   8.359  0.0059 -2.5810 -1.4224
22592SOL    HW270669   8.816   3.283   8.340 -1.0575  1.2778  1.5061
22593SOL     OW70670   0.593   5.670   0.580  0.0125 -0.0305  0.3404
22593SOL    HW170671   0.531   5.600   0.560  0.3214  0.4429 -2.6200
22593SOL    HW270672   0.542   5.750   0.577  0.3184  0.1618  0.2101
22594SOL     OW70673   1.158   3.101   5.499 -0.3336 -0.4154  0.6746
22594SOL    HW170674   1.141   3.077   5.590 -0.7881 -1.6261  0.2878
22594SOL    HW270675   1.150   3.019   5.450 -0.5876  0.2934 -0.5248
22595SOL     OW70676   4.409   7.446   6.868  0.0413  0.1603 -0.0739
22595SOL    HW170677   4.410   7.394   6.788 -0.7821  0.8197 -0.5202
22595SOL    HW270678   4.319   7.478   6.875  0.8293  2.6651 -0.5551
22596SOL     OW70679   9.252   0.184   4.189  0.9313 -0.3499  0.2990
22596SOL    HW170680   9.334   0.146   4.158 -0.2570 -2.4755 -0.4735
22596SOL    HW270681   9.219   0.234   4.114  0.5756 -1.2011 -0.1369
22597SOL     OW70682   1.229   6.138   1.985  0.2540  0.2671  0.2767
22597SOL    HW170683   1.227   6.057   1.935  0.1747  0.3092  0.2105
22597SOL    HW270684   1.222   6.111   2.076  0.8087  0.1650  0.2899
22598SOL     OW70685   4.570   9.242   2.219  0.3374 -0.1437  0.1465
22598SOL    HW170686   4.603   9.298   2.289 -1.0799  1.6975 -0.5792
22598SOL    HW270687   4.640   9.241   2.153  0.2727  1.0564  0.0389
22599SOL     OW70688   8.494   7.359   7.861 -0.4436 -0.7852 -0.0274
22599SOL    HW170689   8.483   7.353   7.956 -2.6202 -2.7477 -0.3196
22599SOL    HW270690   8.573   7.308   7.843  0.8545  0.8350  0.8000
22600SOL     OW70691   1.724   5.939   3.273  0.0339  0.1511 -0.0267
22600SOL    HW170692   1.677   5.857   3.264 -0.0072  0.1492  0.1982
22600SOL    HW270693   1.656   6.006   3.272 -0.0845  0.0839  1.3928
22601SOL     OW70694   9.071   4.976   3.333  0.3088 -0.5345 -0.3068
22601SOL    HW170695   9.006   4.916   3.370  0.0315  0.3432  0.6632
22601SOL    HW270696   9.044   4.987   3.242 -1.3770  0.3927  0.2612
22602SOL     OW70697   5.363   7.199   8.849 -0.3027  0.1079 -0.4313
22602SOL    HW170698   5.405   7.268   8.798  0.3030 -0.3403 -0.5526
22602SOL    HW270699   5.274   7.193   8.814 -0.0777  0.2152 -1.0260
22603SOL     OW70700   5.821   1.777   2.990 -0.2088 -0.8703 -0.3526
22603SOL    HW170701   5.834   1.774   3.084  1.6327  1.8825 -0.3905
22603SOL    HW270702   5.854   1.693   2.958  0.3822 -1.3103  1.3305
22604SOL     OW70703   3.539   4.017   2.353 -0.5528  0.0840  0.5038
22604SOL    HW170704   3.539   4.087   2.287  0.7075 -1.0222 -0.7272
22604SOL    HW270705   3.629   4.014   2.384 -0.7382 -0.5998  0.9857
22605SOL     OW70706   6.462   9.429   1.010  0.0042 -0.0467  0.4231
22605SOL    HW170707   6.545   9.471   0.987  0.6265 -0.0530  2.4376
22605SOL    HW270708   6.395   9.493   0.989  0.7294  0.8961  0.9072
22606SOL     OW70709   1.259   4.807   8.608 -0.2906 -0.2516  0.6519
22606SOL    HW170710   1.321   4.761   8.552 -0.7153  0.3496 -0.3401
22606SOL    HW270711   1.311   4.873   8.652 -0.3954  1.1661 -1.2071
22607SOL     OW70712   5.675   8.573   5.528 -0.0899  0.2165 -0.2950
22607SOL    HW170713   5.615   8.624   5.473 -0.2488  2.2096  1.6095
22607SOL    HW270714   5.762   8.606   5.506 -0.0300  0.0881 -0.2527
22608SOL     OW70715   4.242   7.331   2.494  1.0869  0.1144  0.4436
22608SOL    HW170716   4.202   7.254   2.454 -1.4943  0.5390  1.9509
22608SOL    HW270717   4.329   7.302   2.522  1.5687 -1.1736 -2.1251
22609SOL     OW70718   1.535   5.126   6.363  0.2962 -0.7115 -0.4423
22609SOL    HW170719   1.564   5.190   6.298  0.1289  0.4445  0.5935
22609SOL    HW270720   1.450   5.158   6.393  1.1214 -0.2383  1.5869
22610SOL     OW70721   0.995   5.657   0.983  0.6763  0.3292  0.4220
22610SOL    HW170722   1.016   5.565   0.971  1.9379  0.6792 -0.3770
22610SOL    HW270723   1.058   5.703   0.926 -2.2888  1.5226 -2.1721
22611SOL     OW70724   8.158   3.927   3.268  0.0757  0.3260  0.1368
22611SOL    HW170725   8.181   3.924   3.361 -0.5534  1.1940  0.3390
22611SOL    HW270726   8.219   3.990   3.230 -0.2793  0.6934  0.1636
22612SOL     OW70727   8.930   8.429   2.693 -0.3286  0.6419 -0.0388
22612SOL    HW170728   9.009   8.457   2.738  0.2194 -0.2384 -0.4269
22612SOL    HW270729   8.911   8.343   2.729 -2.0346  1.4983  1.2083
22613SOL     OW70730   2.528   3.584   5.904  0.6485  0.3440 -0.2097
22613SOL    HW170731   2.456   3.616   5.849 -1.7757 -2.6651  0.9104
22613SOL    HW270732   2.592   3.550   5.842 -0.2498  0.4501 -1.2332
22614SOL     OW70733   5.419   4.876   3.613  0.1719  0.4395  0.1389
22614SOL    HW170734   5.466   4.946   3.567 -1.5139  0.4153 -1.7649
22614SOL    HW270735   5.331   4.910   3.625 -0.7075 -1.3191 -0.8861
22615SOL     OW70736   4.136   7.962   7.602 -0.1275  0.1597  0.0658
22615SOL    HW170737   4.109   8.046   7.566  1.0118  0.4656 -0.1210
22615SOL    HW270738   4.071   7.900   7.571 -0.4439  0.8139 -0.5992
22616SOL     OW70739   4.826   7.502   3.926  0.1242  0.1027 -0.4324
22616SOL    HW170740   4.760   7.442   3.963 -0.2200  0.1016 -1.0354
22616SOL    HW270741   4.898   7.445   3.900  2.1317  0.4140  3.7395
22617SOL     OW70742   2.207   4.781   2.854  0.4634  0.6970  0.9176
22617SOL    HW170743   2.146   4.718   2.891  0.7945 -1.1518 -1.4197
22617SOL    HW270744   2.175   4.797   2.765  3.0380  0.0179 -0.2266
22618SOL     OW70745   4.775   0.789   7.724  0.3565  0.0823 -0.5443
22618SOL    HW170746   4.854   0.753   7.685  0.1500  0.6052 -1.4654
22618SOL    HW270747   4.720   0.814   7.650 -0.3996  0.3230  0.0808
22619SOL     OW70748   2.434   4.959   2.163  0.1173  0.0311 -0.1294
22619SOL    HW170749   2.361   4.946   2.102  1.1515 -0.1346 -1.3597
22619SOL    HW270750   2.410   4.908   2.240 -1.4527  0.6450 -0.1666
22620SOL     OW70751   2.823   6.662   0.634 -0.7463  1.1084 -0.2265
22620SOL    HW170752   2.733   6.661   0.668 -0.0731  0.7837  1.6839
22620SOL    HW270753   2.821   6.600   0.561 -1.3756 -1.6118  1.8994
22621SOL     OW70754   2.356   1.026   5.808  0.2518 -0.0490  0.4827
22621SOL    HW170755   2.410   0.986   5.876  0.8524  0.2107  0.1653
22621SOL    HW270756   2.267   1.019   5.842  0.5794  0.5527  1.5528
22622SOL     OW70757   8.770   7.546   7.946  0.4640  0.3801 -0.9809
22622SOL    HW170758   8.786   7.639   7.929  0.6328  0.2301 -1.7164
22622SOL    HW270759   8.680   7.542   7.979 -0.0203  0.6808 -2.2020
22623SOL     OW70760   2.055   7.524   8.475 -0.4566  0.2162  0.0729
22623SOL    HW170761   1.996   7.597   8.456 -0.7496  0.2875  1.1684
22623SOL    HW270762   2.007   7.447   8.445  1.1614  0.5774 -4.1854
22624SOL     OW70763   2.422   8.559   4.275  0.4218  0.1342  0.3890
22624SOL    HW170764   2.348   8.616   4.296  0.8704  1.0375 -0.3990
22624SOL    HW270765   2.490   8.619   4.243  1.0254 -0.8156 -0.1490
22625SOL     OW70766   4.867   4.828   6.896  0.0966  0.4940 -0.8520
22625SOL    HW170767   4.828   4.891   6.835  0.3476  2.1762  0.6383
22625SOL    HW270768   4.956   4.815   6.864  0.0897  1.0155 -1.0895
22626SOL     OW70769   5.224   9.446   0.141  0.0236  0.2312 -0.3921
22626SOL    HW170770   5.233   9.375   0.077  0.0971 -0.0217 -0.0982
22626SOL    HW270771   5.182   9.406   0.216  2.1964 -0.0757  0.7241
22627SOL     OW70772   1.165   4.484   6.511  0.3547 -0.5680  0.3921
22627SOL    HW170773   1.095   4.470   6.448  1.8044 -0.6428 -1.2831
22627SOL    HW270774   1.141   4.565   6.557 -0.3843 -0.0948 -0.7884
22628SOL     OW70775   0.995   5.419   1.435  0.2720 -0.4309 -0.1147
22628SOL    HW170776   1.053   5.482   1.393  0.9119  0.0188  1.3683
22628SOL    HW270777   1.022   5.419   1.527 -1.1491 -1.2658  0.3375
22629SOL     OW70778   2.573   3.771   9.337 -0.6949  0.6113  0.0802
22629SOL    HW170779   2.482   3.742   9.336 -1.1343  1.9089 -0.1995
22629SOL    HW270780   2.604   3.752   9.425 -1.2751  0.2568  0.2085
22630SOL     OW70781   0.278   1.935   8.920  0.8153  0.6251  0.6697
22630SOL    HW170782   0.238   1.995   8.983 -1.6847  0.9730 -1.1190
22630SOL    HW270783   0.318   1.993   8.855 -1.1040  0.4542 -0.7534
22631SOL     OW70784   5.413   3.200   1.026  0.2194  0.0813 -0.1931
22631SOL    HW170785   5.362   3.252   1.088  0.0518  1.5409 -1.4917
22631SOL    HW270786   5.347   3.158   0.970  0.3861 -0.7256  0.1946
22632SOL     OW70787   8.868   0.548   9.618  0.2261 -0.4754  0.2127
22632SOL    HW170788   8.812   0.618   9.584 -0.5290 -1.8570 -1.5412
22632SOL    HW270789   8.826   0.522   9.700  0.0108  0.5064  0.4265
22633SOL     OW70790   5.591   5.892   5.979  0.4661  0.0030 -0.0795
22633SOL    HW170791   5.626   5.959   5.921 -1.0980 -0.2262 -1.3440
22633SOL    HW270792   5.657   5.822   5.978  0.7696  0.2895 -1.0494
22634SOL     OW70793   5.769   7.108   9.356  0.6072  0.0398 -0.0590
22634SOL    HW170794   5.808   7.162   9.287  1.4626  0.3985  0.6886
22634SOL    HW270795   5.809   7.140   9.437 -1.4263  0.6064  0.7851
22635SOL     OW70796   5.879   2.151   3.057 -0.0997 -0.3519  0.0153
22635SOL    HW170797   5.823   2.216   3.013  0.9128  1.5936  1.4308
22635SOL    HW270798   5.871   2.072   3.004 -0.0386  1.4240 -2.8282
22636SOL     OW70799   1.812   0.594   4.027  0.5000  0.3544 -0.0703
22636SOL    HW170800   1.850   0.506   4.030 -1.0436 -0.3935 -1.2705
22636SOL    HW270801   1.727   0.584   4.070  0.1599  1.1893 -0.5411
22637SOL     OW70802   8.784   6.298   3.557  0.5155  0.6147 -0.7578
22637SOL    HW170803   8.859   6.239   3.569 -1.4775 -2.4901 -2.2531
22637SOL    HW270804   8.789   6.359   3.630  2.3175 -1.9533  1.4371
22638SOL     OW70805   3.242   7.047   4.914  0.3771  0.0585 -0.0176
22638SOL    HW170806   3.256   6.953   4.917  0.1024  0.0363  1.1028
22638SOL    HW270807   3.194   7.062   4.833 -1.0387 -0.9828  0.5837
22639SOL     OW70808   8.392   2.133   6.352  0.9964 -0.3170 -0.2049
22639SOL    HW170809   8.317   2.160   6.405  1.9511  1.0710  0.4906
22639SOL    HW270810   8.389   2.189   6.275  1.6262  0.1329  0.0933
22640SOL     OW70811   9.411   8.044   8.486 -0.2226  0.1115  0.1714
22640SOL    HW170812   9.363   7.961   8.488 -1.4681  0.7403 -1.3134
22640SOL    HW270813   9.353   8.106   8.530  0.5781  0.2669  1.0286
22641SOL     OW70814   9.368   7.529   3.698 -0.2110 -0.1434 -0.0770
22641SOL    HW170815   9.315   7.599   3.737 -1.1150 -1.3761  1.0145
22641SOL    HW270816   9.391   7.561   3.611 -0.1939  1.6943  0.5598
22642SOL     OW70817   7.913   6.585   8.350 -0.1423 -0.0111 -0.0223
22642SOL    HW170818   8.008   6.572   8.343 -0.3360 -1.6974 -0.0127
22642SOL    HW270819   7.893   6.569   8.442 -0.5458 -0.6697 -0.2140
22643SOL     OW70820   5.082   3.034   9.176  0.2197 -0.4412  0.5498
22643SOL    HW170821   5.134   2.959   9.205  1.9500  0.0960 -0.9687
22643SOL    HW270822   5.003   2.996   9.137  0.8498 -1.4516  0.2389
22644SOL     OW70823   4.869   5.333   4.383 -0.4487  0.2104  0.4115
22644SOL    HW170824   4.915   5.256   4.417 -0.7347 -0.0269  0.2640
22644SOL    HW270825   4.781   5.302   4.364 -0.8878  0.8412  1.3561
22645SOL     OW70826   7.531   3.647   5.865 -0.4064 -0.0505  0.2368
22645SOL    HW170827   7.611   3.698   5.848 -1.7725  2.0313 -0.2798
22645SOL    HW270828   7.507   3.671   5.955 -0.5317 -0.5789  0.3469
22646SOL     OW70829   3.135   2.315   4.491  0.9419 -0.1085 -0.0598
22646SOL    HW170830   3.179   2.269   4.420  3.3276  0.9486  0.6032
22646SOL    HW270831   3.186   2.395   4.503 -1.4594  1.4395  0.5749
22647SOL     OW70832   0.806   0.536   2.380 -0.0950 -0.4473 -0.0210
22647SOL    HW170833   0.867   0.605   2.410 -0.3715  0.4922 -1.5217
22647SOL    HW270834   0.740   0.531   2.450  0.5964 -0.0601  0.6816
22648SOL     OW70835   4.458   2.604   7.150  0.0031  0.6785 -0.1200
22648SOL    HW170836   4.441   2.521   7.105 -0.9314  0.8935 -0.1827
22648SOL    HW270837   4.399   2.667   7.108  1.3962  1.6133 -0.7375
22649SOL     OW70838   0.652   4.716   2.501  0.1309 -0.4980  0.0247
22649SOL    HW170839   0.656   4.732   2.406  0.4136  0.7275  0.2236
22649SOL    HW270840   0.574   4.661   2.512  0.8642 -1.8011 -1.0462
22650SOL     OW70841   7.800   6.872   8.572 -0.1950  0.2331  0.1006
22650SOL    HW170842   7.889   6.877   8.539  0.0859  0.3714  0.8571
22650SOL    HW270843   7.773   6.964   8.582 -0.1715  0.1990  0.5138
22651SOL     OW70844   7.195   1.842   1.374  0.1128 -0.1620  0.2977
22651SOL    HW170845   7.103   1.820   1.391  0.6855 -1.7038  1.6003
22651SOL    HW270846   7.244   1.795   1.441  2.1162 -1.8744 -2.1423
22652SOL     OW70847   2.068   0.744   0.290  0.2021 -0.1210 -0.0255
22652SOL    HW170848   2.117   0.826   0.282 -0.7853  0.7117  1.8502
22652SOL    HW270849   1.989   0.758   0.238  1.7563 -1.4371 -2.9900
22653SOL     OW70850   9.128   2.867   0.607 -0.4092  0.2408 -0.1067
22653SOL    HW170851   9.123   2.931   0.678  0.3385  0.2941 -0.0936
22653SOL    HW270852   9.062   2.801   0.629 -0.0181  0.1239  0.7762
22654SOL     OW70853   8.348   9.509   0.334 -0.2630  0.0621 -0.9582
22654SOL    HW170854   8.422   9.549   0.289 -0.0281  0.0895 -0.5498
22654SOL    HW270855   8.328   9.431   0.282  1.2607 -0.9859 -0.0232
22655SOL     OW70856   5.025   0.451   6.344 -0.7734 -0.3344  0.3509
22655SOL    HW170857   5.020   0.541   6.310  0.3708 -0.6760 -0.8090
22655SOL    HW270858   4.954   0.405   6.300 -1.0025 -0.1324  0.5080
22656SOL     OW70859   5.561   9.304   5.237  0.1475  0.3370  0.2528
22656SOL    HW170860   5.614   9.269   5.165 -0.5658  0.0481 -0.1415
22656SOL    HW270861   5.621   9.362   5.285  0.8859 -0.1691 -0.0374
22657SOL     OW70862   3.649   8.849   4.578 -0.4349 -0.0043 -0.9123
22657SOL    HW170863   3.678   8.800   4.655  1.2756  0.2466 -1.3533
22657SOL    HW270864   3.554   8.849   4.584 -0.3590  1.3876  2.0781
22658SOL     OW70865   9.130   0.112   7.216  0.5017  0.4145 -0.0802
22658SOL    HW170866   9.093   0.178   7.157  1.0727  0.4511 -0.4022
22658SOL    HW270867   9.196   0.067   7.164 -0.4536 -0.9841 -0.1292
22659SOL     OW70868   9.607   9.323   2.670  0.4423 -0.0978 -0.2300
22659SOL    HW170869   9.545   9.252   2.686  0.8042 -0.4695 -0.4487
22659SOL    HW270870   9.684   9.301   2.723 -0.1509  1.1324  1.2260
22660SOL     OW70871   7.101   5.691   0.289  0.2376 -0.4368 -0.4331
22660SOL    HW170872   7.168   5.745   0.332  0.8596 -0.6707 -1.0928
22660SOL    HW270873   7.032   5.753   0.265  0.5917 -0.0611 -0.4850
22661SOL     OW70874   5.716   9.310   3.046  0.8956 -0.0641 -0.4571
22661SOL    HW170875   5.656   9.250   3.000  1.3707  0.0730 -1.2770
22661SOL    HW270876   5.658   9.371   3.092  0.3925  0.2054 -1.4192
22662SOL     OW70877   3.650   4.144   4.083 -0.7730 -0.0749 -0.8042
22662SOL    HW170878   3.729   4.189   4.114  0.6190 -0.8140 -3.0595
22662SOL    HW270879   3.659   4.055   4.115 -1.3246  0.1269 -0.0576
22663SOL     OW70880   5.340   2.021   9.629  0.7404  0.1876 -0.0236
22663SOL    HW170881   5.247   1.999   9.626  0.8283 -0.0597 -1.8202
22663SOL    HW270882   5.343   2.115   9.610  0.8384  0.3092  0.5632
22664SOL     OW70883   3.376   2.919   2.373 -0.2837 -0.0746  0.2351
22664SOL    HW170884   3.398   3.008   2.401  0.0243  0.7040 -2.2111
22664SOL    HW270885   3.292   2.901   2.415 -1.0375  1.9464 -0.2664
22665SOL     OW70886   2.185   0.699   4.698 -0.7586 -0.1884 -0.1128
22665SOL    HW170887   2.247   0.699   4.772 -0.7639 -1.8613 -0.0518
22665SOL    HW270888   2.211   0.623   4.646 -1.2371  0.5291 -1.4448
22666SOL     OW70889   9.312   6.064   4.024  0.2055 -0.0018 -0.8176
22666SOL    HW170890   9.373   6.076   3.951  1.5934  1.7129  0.5620
22666SOL    HW270891   9.248   6.135   4.013  0.8323  0.7027  0.0119
22667SOL     OW70892   7.686   0.462   2.606 -0.0873  0.1661 -0.4211
22667SOL    HW170893   7.592   0.444   2.613  0.1112 -1.0419 -0.7682
22667SOL    HW270894   7.711   0.429   2.520  0.8606 -0.5014  0.0896
22668SOL     OW70895   1.215   3.261   7.385  0.4216  0.6363 -0.2148
22668SOL    HW170896   1.253   3.184   7.340  0.2374  0.3635  0.0925
22668SOL    HW270897   1.150   3.224   7.444 -0.4434  1.1127 -0.8499
22669SOL     OW70898   7.914   6.314   3.790 -0.0382 -0.3573  0.3296
22669SOL    HW170899   7.984   6.365   3.751 -0.6298  0.8767  0.8238
22669SOL    HW270900   7.892   6.248   3.724 -0.2044  0.9122 -0.9306
22670SOL     OW70901   2.768   3.693   5.448  0.8582  0.1463 -0.5273
22670SOL    HW170902   2.800   3.697   5.538  0.4755  1.9932 -0.4268
22670SOL    HW270903   2.673   3.703   5.456  0.8664  0.8361 -1.1541
22671SOL     OW70904   7.978   8.005   7.137 -0.1028 -0.2163 -0.2331
22671SOL    HW170905   8.045   8.073   7.147  0.1346 -0.4990  0.1262
22671SOL    HW270906   8.027   7.923   7.136 -0.3850 -0.3824 -0.7167
22672SOL     OW70907   5.107   2.355   1.866  0.0929  0.0932 -0.1003
22672SOL    HW170908   5.092   2.422   1.932 -1.9162  0.4139 -0.8023
22672SOL    HW270909   5.190   2.314   1.891  0.0719  1.1069  1.8038
22673SOL     OW70910   5.652   4.295   7.253  0.3727 -0.2925  0.1878
22673SOL    HW170911   5.592   4.231   7.215  0.1820 -0.0616  0.0993
22673SOL    HW270912   5.662   4.363   7.186 -1.2544  0.9591  1.1315
22674SOL     OW70913   8.710   8.643   5.782  0.6588 -0.1722  0.3119
22674SOL    HW170914   8.654   8.585   5.730 -1.3420  1.7916  0.1181
22674SOL    HW270915   8.683   8.628   5.872  0.7733 -0.1746  0.3460
22675SOL     OW70916   0.839   2.519   9.595  0.4695 -0.0905 -0.0362
22675SOL    HW170917   0.785   2.440   9.595 -1.0517  0.8730  1.1642
22675SOL    HW270918   0.798   2.575   9.529  1.1983 -0.0796 -0.4851
22676SOL     OW70919   8.450   0.202   6.956  0.0600 -0.4371 -0.0138
22676SOL    HW170920   8.427   0.277   6.902 -0.7284  0.2194  1.1683
22676SOL    HW270921   8.542   0.185   6.938  0.5297  1.4598  0.4142
22677SOL     OW70922   5.146   8.913   8.752  0.2689  0.0272  0.8556
22677SOL    HW170923   5.140   8.920   8.657  1.7271 -1.1149  0.6586
22677SOL    HW270924   5.069   8.861   8.777 -0.1803  0.4263  0.3310
22678SOL     OW70925   6.811   7.560   4.502 -0.6274  0.1546 -0.0418
22678SOL    HW170926   6.763   7.547   4.584  1.3831  1.6060  1.4582
22678SOL    HW270927   6.795   7.651   4.480  0.3456  0.2868 -0.2311
22679SOL     OW70928   0.152   4.579   2.638  0.6586  0.4961  0.1686
22679SOL    HW170929   0.211   4.611   2.706 -0.6760  1.7149  0.8078
22679SOL    HW270930   0.075   4.635   2.645 -0.6521 -1.1508 -0.5385
22680SOL     OW70931   8.996   8.836   3.429  0.5691  0.5969  0.3141
22680SOL    HW170932   8.923   8.809   3.484  0.8556 -0.2447  0.3045
22680SOL    HW270933   9.045   8.755   3.414  1.7138  1.2117  0.6317
22681SOL     OW70934   8.655   1.637   6.342 -0.0938  0.1313  0.1413
22681SOL    HW170935   8.619   1.552   6.367  0.9772 -0.6108 -0.7323
22681SOL    HW270936   8.578   1.693   6.330 -0.9186 -1.1324 -0.7680
22682SOL     OW70937   0.443   2.353   1.057 -0.0576  0.2780  0.3378
22682SOL    HW170938   0.509   2.328   0.992 -0.8296  0.7847 -0.6780
22682SOL    HW270939   0.395   2.272   1.075 -0.4711  0.3380 -0.4754
22683SOL     OW70940   6.245   3.781   5.208 -0.4488 -0.2066 -0.1515
22683SOL    HW170941   6.247   3.691   5.175  0.1351  0.0836 -0.9361
22683SOL    HW270942   6.174   3.781   5.273  0.6722 -1.6909  1.1788
22684SOL     OW70943   9.098   5.216   2.710  0.2725 -0.3574 -0.2341
22684SOL    HW170944   9.170   5.279   2.712  0.5616 -0.5712 -1.9243
22684SOL    HW270945   9.134   5.140   2.664 -0.6793 -0.9573 -0.0263
22685SOL     OW70946   7.405   2.148   2.863 -0.6201 -0.1840  0.5034
22685SOL    HW170947   7.450   2.124   2.944 -1.0120 -2.6651  0.0413
22685SOL    HW270948   7.357   2.228   2.886 -0.0653 -0.3490  2.4555
22686SOL     OW70949   4.184   0.507   2.853  0.1796 -0.5155  0.1218
22686SOL    HW170950   4.160   0.599   2.842  0.0024 -0.2678  2.1340
22686SOL    HW270951   4.273   0.501   2.819 -0.0292  0.2521 -0.5949
22687SOL     OW70952   3.691   4.176   8.898  0.2000 -0.1367  0.0646
22687SOL    HW170953   3.713   4.235   8.969  0.1294 -2.9895  2.6448
22687SOL    HW270954   3.595   4.172   8.899  0.2187 -2.9914  2.4957
22688SOL     OW70955   3.487   0.795   3.720 -0.1694  0.1327  0.2157
22688SOL    HW170956   3.498   0.777   3.626 -0.7692 -0.3364  0.2256
22688SOL    HW270957   3.506   0.888   3.729 -3.2132  0.9832 -0.9265
22689SOL     OW70958   3.772   7.794   8.040 -0.0014 -0.5423  0.2950
22689SOL    HW170959   3.716   7.721   8.015  1.4556 -1.3729 -0.6885
22689SOL    HW270960   3.740   7.868   7.987 -0.9324 -0.6783  0.6607
22690SOL     OW70961   5.359   1.032   3.404  0.1340  0.2681 -0.2994
22690SOL    HW170962   5.430   0.969   3.400  0.4361  0.5022  0.9786
22690SOL    HW270963   5.391   1.108   3.355  1.6614  1.1817  1.9256
22691SOL     OW70964   8.593   8.846   5.182  0.1923 -0.2166  0.3749
22691SOL    HW170965   8.685   8.863   5.161 -0.5597  3.8052 -0.6480
22691SOL    HW270966   8.547   8.860   5.099 -1.4210 -1.3910  1.0302
22692SOL     OW70967   9.601   8.952   3.863  0.4702  0.3567 -0.3925
22692SOL    HW170968   9.511   8.971   3.839 -1.0275 -2.7519  2.0650
22692SOL    HW270969   9.646   8.939   3.779 -2.2371 -1.3710 -1.7011
22693SOL     OW70970   1.002   2.728   2.310 -0.3007 -0.3818  0.0194
22693SOL    HW170971   1.027   2.662   2.375 -1.0364  1.0367  1.8156
22693SOL    HW270972   1.085   2.770   2.285 -0.1022 -0.3248  0.7492
22694SOL     OW70973   8.963   2.929   6.157 -0.1055  0.0891  0.1034
22694SOL    HW170974   8.982   2.836   6.150  1.4072  0.3828 -0.0798
22694SOL    HW270975   8.869   2.933   6.171 -0.4879 -1.3737 -1.6683
22695SOL     OW70976   4.770   1.541   3.402 -0.2687 -0.4350 -0.4195
22695SOL    HW170977   4.704   1.543   3.472  0.0451  2.6016 -0.0692
22695SOL    HW270978   4.844   1.495   3.439 -0.7549 -0.3875  0.6355
22696SOL     OW70979   3.518   0.839   3.457 -0.5247 -0.4206  0.1513
22696SOL    HW170980   3.494   0.924   3.422  1.8234 -0.0172 -0.5875
22696SOL    HW270981   3.531   0.784   3.380  2.5286 -0.1228  0.3663
22697SOL     OW70982   5.136   6.463   6.200 -0.5524 -0.3756 -0.1998
22697SOL    HW170983   5.165   6.511   6.278  0.6232 -1.1247 -0.1587
22697SOL    HW270984   5.048   6.497   6.183 -0.2183  0.9291  0.5284
22698SOL     OW70985   8.702   1.166   0.288 -0.6993  0.5199 -0.1044
22698SOL    HW170986   8.682   1.122   0.205 -2.8131  0.1224  0.5429
22698SOL    HW270987   8.796   1.154   0.300 -0.3733  0.4513 -2.3544
22699SOL     OW70988   0.563   0.788   0.766 -0.3387 -0.0716  0.6490
22699SOL    HW170989   0.498   0.832   0.821  0.4819  2.1056  0.0046
22699SOL    HW270990   0.515   0.766   0.686 -0.8698 -0.7615  1.1492
22700SOL     OW70991   6.761   1.338   7.966  0.3236  0.4845 -0.5436
22700SOL    HW170992   6.856   1.340   7.961  0.3459  0.1339 -0.2355
22700SOL    HW270993   6.737   1.249   7.940  0.0747  0.5890 -0.6809
22701SOL     OW70994   3.433   2.648   4.277  0.3783  0.0931  0.7253
22701SOL    HW170995   3.433   2.744   4.276  0.5815  0.0945  0.2017
22701SOL    HW270996   3.518   2.624   4.240 -0.0428 -0.2860 -0.0192
22702SOL     OW70997   7.519   9.092   3.424  0.8491 -0.3195 -0.1970
22702SOL    HW170998   7.510   9.139   3.341 -1.3507  0.2396  0.2989
22702SOL    HW270999   7.579   9.145   3.476  0.4436  0.5548 -0.6052
22703SOL     OW71000   6.868   7.325   8.486 -0.4676  0.5151  0.4531
22703SOL    HW171001   6.953   7.366   8.505 -0.9213  2.2282 -0.9222
22703SOL    HW271002   6.811   7.355   8.556 -0.0963 -0.2042  1.0830
22704SOL     OW71003   2.807   7.428   5.748  0.4537  0.4237 -0.1238
22704SOL    HW171004   2.846   7.507   5.710  2.4789 -0.8111 -0.8079
22704SOL    HW271005   2.821   7.437   5.842 -2.6607  2.5064  0.2880
22705SOL     OW71006   1.986   2.760   3.924  0.0370 -0.1183 -0.3311
22705SOL    HW171007   2.068   2.773   3.876 -0.4728 -0.5784 -1.3391
22705SOL    HW271008   1.929   2.830   3.894  0.2887  0.6893  0.9584
22706SOL     OW71009   3.227   8.517   3.203 -0.5455  0.0740  0.5281
22706SOL    HW171010   3.267   8.486   3.284  1.8267 -1.9403 -1.2856
22706SOL    HW271011   3.180   8.441   3.169  1.2343 -0.1598 -1.5652
22707SOL     OW71012   9.466   5.260   7.782 -0.4617 -0.2301  0.5314
22707SOL    HW171013   9.512   5.197   7.726 -0.9701 -1.3777  1.3582
22707SOL    HW271014   9.535   5.301   7.833 -0.0769  0.2355 -0.3462
22708SOL     OW71015   7.333   4.519   7.220  0.2513  0.5124  0.8598
22708SOL    HW171016   7.280   4.440   7.226  1.0981 -0.0374  1.3181
22708SOL    HW271017   7.378   4.524   7.304  0.9950  0.9189  0.4491
22709SOL     OW71018   2.249   0.947   2.365 -0.1783 -0.1412 -0.0982
22709SOL    HW171019   2.232   1.039   2.344 -2.2785 -0.6578 -0.8978
22709SOL    HW271020   2.344   0.942   2.372  0.0231  2.0146 -0.3786
22710SOL     OW71021   9.462   2.463   3.597 -0.2861 -0.4243 -0.4157
22710SOL    HW171022   9.443   2.488   3.687  1.0857 -1.2548  0.1345
22710SOL    HW271023   9.557   2.472   3.589 -0.3972 -0.2146 -1.8327
22711SOL     OW71024   2.047   3.584   5.264  0.7351 -0.1371  0.1975
22711SOL    HW171025   2.084   3.526   5.198  0.7898 -0.0262  0.1293
22711SOL    HW271026   2.121   3.637   5.294  0.7828 -0.4477  0.6231
22712SOL     OW71027   9.342   4.670   2.495  0.0272 -0.2185 -0.9669
22712SOL    HW171028   9.365   4.736   2.429  0.3592  0.1146 -0.5250
22712SOL    HW271029   9.251   4.648   2.476 -1.0622  2.4974  0.6328
22713SOL     OW71030   4.043   2.117   4.789  0.4968 -0.4151  0.1515
22713SOL    HW171031   3.958   2.122   4.745  0.0148  0.8831  1.1372
22713SOL    HW271032   4.074   2.208   4.791  1.1024 -0.6230  1.2934
22714SOL     OW71033   5.763   2.663   2.275 -0.2401  0.5037 -0.4897
22714SOL    HW171034   5.753   2.599   2.204 -0.1483  0.8041 -0.7774
22714SOL    HW271035   5.685   2.719   2.267 -0.1465  0.6385 -0.4543
22715SOL     OW71036   4.840   7.153   5.836 -0.2528  0.2976 -0.0922
22715SOL    HW171037   4.749   7.179   5.845  0.2897  2.0474  0.7815
22715SOL    HW271038   4.876   7.210   5.768  0.0086 -0.9696 -1.0598
22716SOL     OW71039   5.696   6.110   5.878 -0.0249 -0.1895  0.5956
22716SOL    HW171040   5.781   6.153   5.884  0.1220 -0.2020 -1.0701
22716SOL    HW271041   5.679   6.101   5.784 -1.9917  0.0681  0.8740
22717SOL     OW71042   8.508   3.485   1.249  0.5769  0.4103 -0.2808
22717SOL    HW171043   8.529   3.525   1.164 -0.9415 -0.2255 -0.9969
22717SOL    HW271044   8.462   3.553   1.298 -0.7060  0.0374 -0.9315
22718SOL     OW71045   4.839   6.338   7.442 -0.1421  0.2615 -0.0674
22718SOL    HW171046   4.915   6.352   7.498 -0.0278 -1.1722  0.1887
22718SOL    HW271047   4.768   6.318   7.503 -1.0561  2.6507 -0.2244
22719SOL     OW71048   8.781   9.028   1.332 -0.5160 -0.1662  0.4310
22719SOL    HW171049   8.821   8.997   1.251  0.9404 -1.0991  1.4640
22719SOL    HW271050   8.828   9.109   1.352 -0.2415 -0.4160  0.8078
22720SOL     OW71051   2.785   8.017   4.408 -0.2135 -0.0548 -0.0978
22720SOL    HW171052   2.772   8.032   4.502 -0.9181  2.0454 -0.4935
22720SOL    HW271053   2.789   7.921   4.400  0.0811 -0.2756  2.0888
22721SOL     OW71054   4.015   6.808   6.974 -0.0363 -0.3620 -0.0477
22721SOL    HW171055   3.970   6.769   7.049 -0.6627 -1.3067 -0.8838
22721SOL    HW271056   4.072   6.739   6.942  0.6024  0.2022 -0.1381
22722SOL     OW71057   6.529   4.153   2.007 -0.5030  0.4142  0.0727
22722SOL    HW171058   6.448   4.191   1.972  0.3941  0.2371 -2.4294
22722SOL    HW271059   6.537   4.069   1.962  0.6865  0.0865  0.8600
22723SOL     OW71060   2.826   0.998   0.927  0.3611  0.0407  0.2779
22723SOL    HW171061   2.754   0.993   0.865 -0.0588 -1.3315  0.8310
22723SOL    HW271062   2.899   1.036   0.877 -0.5698  0.9358 -0.4289
22724SOL     OW71063   6.078   8.918   7.343  0.0348  0.1612 -0.0729
22724SOL    HW171064   5.996   8.873   7.365  0.7970 -0.9725  0.5681
22724SOL    HW271065   6.118   8.862   7.276 -0.6490  1.7846 -1.9011
22725SOL     OW71066   0.828   1.025   1.611 -0.2974  0.2400 -0.0677
22725SOL    HW171067   0.867   1.003   1.696 -1.6017  0.5733  0.6384
22725SOL    HW271068   0.788   1.111   1.625 -2.2620 -0.5739 -0.4083
22726SOL     OW71069   0.378   4.549   1.102  0.4461  0.2154  0.3515
22726SOL    HW171070   0.396   4.643   1.104 -1.4252  0.6421 -0.7030
22726SOL    HW271071   0.414   4.519   1.019 -2.5343  0.8885 -1.3143
22727SOL     OW71072   2.152   3.998   6.016 -0.7104  0.1540  0.1653
22727SOL    HW171073   2.079   3.985   5.955  0.1941 -0.7505 -0.7448
22727SOL    HW271074   2.181   4.088   5.999 -0.2522 -0.2031 -0.9836
22728SOL     OW71075   1.213   8.911   2.241 -0.5886  0.0917  0.0573
22728SOL    HW171076   1.274   8.924   2.314  0.9842 -0.5764 -1.0700
22728SOL    HW271077   1.191   8.818   2.246  0.4480 -0.2367 -0.9526
22729SOL     OW71078   7.035   2.348   7.477  0.3115 -0.2305 -0.6447
22729SOL    HW171079   7.060   2.386   7.392  1.3448  0.7222  0.0633
22729SOL    HW271080   7.108   2.369   7.535 -1.0582  0.5060  0.8976
22730SOL     OW71081   6.894   1.336   1.308 -0.4738  0.3596 -0.2743
22730SOL    HW171082   6.850   1.258   1.274  0.6024  0.2934 -1.6264
22730SOL    HW271083   6.902   1.393   1.232  1.7641  0.3476 -0.1068
22731SOL     OW71084   5.472   0.095   9.236  1.0446 -0.2340 -0.0997
22731SOL    HW171085   5.527   0.137   9.170  0.3314  1.6236  0.4188
22731SOL    HW271086   5.532   0.042   9.287  1.6691 -1.4984 -2.0315
22732SOL     OW71087   6.932   7.916   2.325  0.2381  0.3742  0.5121
22732SOL    HW171088   6.972   7.894   2.241 -0.3912  0.2591  0.2358
22732SOL    HW271089   6.865   7.849   2.338 -0.2416  0.8770  0.6990
22733SOL     OW71090   7.632   8.077   2.366  0.1206 -0.5982  0.2649
22733SOL    HW171091   7.589   8.119   2.440  1.3882 -0.5666  1.0063
22733SOL    HW271092   7.679   8.147   2.322  0.9589 -0.9544  0.5806
22734SOL     OW71093   1.868   5.817   3.665  0.0102 -0.1628 -0.1419
22734SOL    HW171094   1.822   5.896   3.693 -0.0634 -0.3771  0.3519
22734SOL    HW271095   1.810   5.745   3.693  0.1868 -0.3965 -0.3783
22735SOL     OW71096   6.161   2.294   0.730  0.0189  0.3642  0.3659
22735SOL    HW171097   6.078   2.299   0.776 -0.9431 -0.7822 -1.1409
22735SOL    HW271098   6.227   2.298   0.799 -1.3262 -0.4834  1.7667
22736SOL     OW71099   9.578   1.252   3.085  0.4975  0.0526  0.0534
22736SOL    HW171100   9.573   1.344   3.111 -0.9166 -0.2598  0.9553
22736SOL    HW271101   9.573   1.203   3.167 -0.4041 -0.8590 -0.5203
22737SOL     OW71102   7.620   5.855   1.296  0.0210  0.5489  0.3014
22737SOL    HW171103   7.581   5.928   1.343 -0.7059  1.2980 -1.3840
22737SOL    HW271104   7.689   5.823   1.354  0.9194  3.1121  0.7660
22738SOL     OW71105   5.027   5.656   4.222 -0.1785  0.0438  0.3983
22738SOL    HW171106   4.949   5.710   4.238  0.6293  0.8347  1.8309
22738SOL    HW271107   5.053   5.625   4.309  1.2601  0.0199 -0.0198
22739SOL     OW71108   2.297   1.429   4.074 -0.3039 -0.4633  0.2903
22739SOL    HW171109   2.279   1.344   4.035  0.8789 -1.3931  1.6818
22739SOL    HW271110   2.389   1.446   4.053 -0.8662  1.1471 -1.1265
22740SOL     OW71111   6.524   3.985   7.841  0.4124 -0.5724 -0.5150
22740SOL    HW171112   6.523   4.042   7.765 -1.4425  2.0880  1.3139
22740SOL    HW271113   6.432   3.979   7.868  0.9082 -2.1657  1.0036
22741SOL     OW71114   5.482   2.469   1.565  0.1188 -0.5000 -0.1648
22741SOL    HW171115   5.514   2.550   1.605  0.3711 -1.2151  1.1051
22741SOL    HW271116   5.456   2.496   1.476  0.0803  0.9962  0.2654
22742SOL     OW71117   6.800   7.767   5.303 -0.2252 -0.1574 -0.1323
22742SOL    HW171118   6.752   7.708   5.361  0.5615 -2.8008 -1.9913
22742SOL    HW271119   6.814   7.716   5.223  3.0311  1.5383 -0.8010
22743SOL     OW71120   9.188   0.296   4.438  0.1805  0.7120 -0.0918
22743SOL    HW171121   9.207   0.244   4.360 -0.3646  3.1158 -1.9379
22743SOL    HW271122   9.093   0.306   4.439  0.1347  0.3807  1.1530
22744SOL     OW71123   2.088   2.019   5.535  0.6966  0.0001 -0.0429
22744SOL    HW171124   2.010   1.976   5.569  0.2087  0.9567  0.0919
22744SOL    HW271125   2.161   1.971   5.574  0.2260 -1.8029 -1.2931
22745SOL     OW71126   1.471   4.917   7.121  0.1443 -0.1239 -0.1497
22745SOL    HW171127   1.386   4.944   7.088  0.6930  1.2947 -0.4711
22745SOL    HW271128   1.461   4.824   7.140 -1.0737 -0.2894 -1.4511
22746SOL     OW71129   3.484   3.633   4.359 -0.1287 -0.6957 -0.1111
22746SOL    HW171130   3.481   3.695   4.432  0.5119 -0.2737 -0.4413
22746SOL    HW271131   3.475   3.547   4.400 -0.5134 -0.4196  0.3942
22747SOL     OW71132   6.651   1.291   0.491 -0.3450 -1.2001 -0.2804
22747SOL    HW171133   6.663   1.234   0.415  1.0490 -1.7277  0.2946
22747SOL    HW271134   6.729   1.277   0.544 -0.0835  1.0689  0.0309
22748SOL     OW71135   4.526   6.181   9.229  0.5288  0.4335  0.4972
22748SOL    HW171136   4.435   6.151   9.236  0.7247 -0.1457  0.6172
22748SOL    HW271137   4.570   6.112   9.179  0.5885  1.4051 -0.8391
22749SOL     OW71138   1.014   6.159   0.270 -0.1836  0.2672 -0.3229
22749SOL    HW171139   1.099   6.173   0.228 -0.2227  1.5007 -0.0221
22749SOL    HW271140   0.971   6.095   0.214  0.1333  1.1786 -1.6686
22750SOL     OW71141   3.475   7.591   0.257  0.3541 -0.2315  0.9253
22750SOL    HW171142   3.477   7.671   0.310  0.9366  0.6981 -0.4317
22750SOL    HW271143   3.415   7.533   0.303  0.6747  0.6056  2.4761
22751SOL     OW71144   8.914   1.734   5.318  0.6335 -0.1963  0.0060
22751SOL    HW171145   8.921   1.757   5.225  0.8763  0.5446  0.2010
22751SOL    HW271146   8.976   1.662   5.329  0.1176 -0.7389 -0.5403
22752SOL     OW71147   8.864   6.439   2.346 -0.0753  0.4916 -0.1203
22752SOL    HW171148   8.825   6.363   2.303  0.3742 -0.2091  0.6723
22752SOL    HW271149   8.958   6.418   2.349 -0.1509  0.2761  1.6208
22753SOL     OW71150   7.574   2.751   7.873  0.0043  0.1312  0.0920
22753SOL    HW171151   7.602   2.718   7.958 -0.9287 -2.1742 -0.4083
22753SOL    HW271152   7.655   2.767   7.826  0.5182 -0.1461  0.8639
22754SOL     OW71153   5.455   1.281   8.213 -0.8501 -0.1075 -0.0801
22754SOL    HW171154   5.397   1.233   8.154  1.4652  1.2076 -3.7890
22754SOL    HW271155   5.538   1.233   8.208  0.0795  1.4223  0.1729
22755SOL     OW71156   1.763   6.826   8.016 -0.0411  0.3441 -0.1450
22755SOL    HW171157   1.752   6.892   8.084 -0.6020  1.3388 -1.1638
22755SOL    HW271158   1.674   6.799   7.993  0.1965 -1.9739  1.3339
22756SOL     OW71159   5.520   6.814   1.358  0.3465 -0.4274 -0.1985
22756SOL    HW171160   5.483   6.831   1.444 -0.4546  1.5120 -0.8705
22756SOL    HW271161   5.579   6.740   1.371  0.1164 -0.2804  1.9561
22757SOL     OW71162   1.825   9.152   3.987  0.5086  0.2952  0.6597
22757SOL    HW171163   1.822   9.087   4.058  0.8147  0.3654  0.7363
22757SOL    HW271164   1.900   9.126   3.934 -0.7885 -0.8677 -0.7133
22758SOL     OW71165   4.153   5.536   6.765 -0.2863 -0.5865 -0.1981
22758SOL    HW171166   4.194   5.583   6.838  1.4672  2.2617 -2.8063
22758SOL    HW271167   4.183   5.446   6.775  0.5033 -0.1487  2.1217
22759SOL     OW71168   8.320   1.655   7.738 -0.3673  0.2811  0.2568
22759SOL    HW171169   8.398   1.704   7.764 -0.8129  0.8782  0.4980
22759SOL    HW271170   8.354   1.576   7.696  0.3965  1.2767 -1.0920
22760SOL     OW71171   0.225   6.123   2.609 -0.1937  0.2477 -0.2747
22760SOL    HW171172   0.206   6.171   2.689  0.5060 -0.0260  0.0645
22760SOL    HW271173   0.271   6.044   2.638  0.7613  0.5215 -0.9876
22761SOL     OW71174   9.021   8.654   1.927 -0.2104 -0.4558 -0.1221
22761SOL    HW171175   8.998   8.688   2.014  0.1807  1.8269 -0.8412
22761SOL    HW271176   8.937   8.640   1.883 -0.3917  0.7686 -0.2015
22762SOL     OW71177   3.026   1.669   5.899 -0.1744  0.1437 -0.1089
22762SOL    HW171178   2.995   1.653   5.810 -2.6308  3.4907 -0.0479
22762SOL    HW271179   3.114   1.632   5.901 -1.3405 -3.3160 -2.7196
22763SOL     OW71180   3.483   6.937   3.724  0.7840 -0.6341 -0.1193
22763SOL    HW171181   3.432   6.869   3.769  0.0291 -0.2876 -0.4405
22763SOL    HW271182   3.544   6.969   3.790 -2.1435  1.8533  1.6428
22764SOL     OW71183   4.589   2.971   1.722  0.4616 -0.1801  0.2314
22764SOL    HW171184   4.659   2.977   1.787 -0.7252 -1.1664  1.6552
22764SOL    HW271185   4.512   2.946   1.772 -0.9136  0.7550 -1.3161
22765SOL     OW71186   4.254   3.209   3.379  0.4451  0.1743 -0.0462
22765SOL    HW171187   4.298   3.238   3.459  0.5854  0.7663 -0.3381
22765SOL    HW271188   4.267   3.114   3.378  0.1701  0.1222  0.7974
22766SOL     OW71189   8.614   3.694   4.994  0.5593  0.2622  0.2822
22766SOL    HW171190   8.535   3.683   5.047 -1.6877 -1.6186 -3.0699
22766SOL    HW271191   8.599   3.775   4.945  0.2862 -0.4881 -0.9129
22767SOL     OW71192   3.935   1.367   9.062  0.1006  0.2947 -0.5549
22767SOL    HW171193   4.013   1.339   9.015  0.8907  0.4144  0.6347
22767SOL    HW271194   3.928   1.307   9.137 -1.0763  0.1489 -0.7611
22768SOL     OW71195   8.207   3.507   2.546 -0.1016  0.5878  0.1117
22768SOL    HW171196   8.174   3.418   2.561 -0.9220  0.7923 -0.3590
22768SOL    HW271197   8.215   3.545   2.633 -0.5960  0.3394  0.2709
22769SOL     OW71198   7.818   0.432   7.578 -0.3844  0.4596  0.4282
22769SOL    HW171199   7.786   0.349   7.614 -1.2122  1.3448  1.8374
22769SOL    HW271200   7.910   0.416   7.558 -1.0207 -1.3868 -1.2567
22770SOL     OW71201   2.361   7.712   2.981 -0.7501  0.1386 -0.5868
22770SOL    HW171202   2.365   7.635   2.925  3.0601  1.0541 -1.8597
22770SOL    HW271203   2.339   7.784   2.922 -1.0455  0.5160 -0.0261
22771SOL     OW71204   5.460   8.443   4.794 -0.2559  0.1581 -0.3383
22771SOL    HW171205   5.497   8.374   4.738 -0.4334 -0.4099  0.2258
22771SOL    HW271206   5.534   8.500   4.814  0.5385 -1.3635  1.3634
22772SOL     OW71207   7.867   5.826   1.156 -0.8048  0.4851 -0.7418
22772SOL    HW171208   7.943   5.882   1.143  0.0482 -0.7151 -1.0883
22772SOL    HW271209   7.800   5.884   1.192  0.1483  1.6440 -0.7899
22773SOL     OW71210   1.095   0.307   2.400 -0.3774 -0.1820  0.2958
22773SOL    HW171211   1.063   0.344   2.318  0.8121 -0.2969 -0.2433
22773SOL    HW271212   1.174   0.358   2.420 -0.9034  0.1617  1.6268
22774SOL     OW71213   2.007   2.956   9.514  0.3158 -0.7206  0.5036
22774SOL    HW171214   1.967   3.043   9.514  0.5294 -0.5901 -1.4868
22774SOL    HW271215   2.064   2.955   9.437  3.4065 -1.2506  2.6014
22775SOL     OW71216   3.459   3.224   2.380  0.4365 -0.1422 -0.1849
22775SOL    HW171217   3.547   3.258   2.367  0.1983 -0.2168 -2.2508
22775SOL    HW271218   3.402   3.290   2.341 -0.6242  0.7541  2.6047
22776SOL     OW71219   8.769   7.367   2.613 -0.2938  0.0447 -0.5581
22776SOL    HW171220   8.792   7.421   2.538  1.3060 -0.7667 -0.6925
22776SOL    HW271221   8.728   7.289   2.575 -0.7413  0.2386 -0.4851
22777SOL     OW71222   0.414   0.741   6.067  0.2557  0.1718  0.1018
22777SOL    HW171223   0.459   0.715   5.987  1.3057 -0.4779  0.8801
22777SOL    HW271224   0.484   0.768   6.127 -0.5685  1.5987  0.4936
22778SOL     OW71225   9.452   2.424   2.486  0.2627  0.1138 -0.3111
22778SOL    HW171226   9.437   2.453   2.576  0.7660  0.4947 -0.3536
22778SOL    HW271227   9.364   2.416   2.449  0.0505 -0.0955  0.2266
22779SOL     OW71228   2.221   8.755   9.545 -0.7235 -0.6872 -0.1653
22779SOL    HW171229   2.137   8.708   9.548 -0.5786 -0.8977  1.6508
22779SOL    HW271230   2.277   8.709   9.608 -0.3141  1.4014  1.1155
22780SOL     OW71231   2.580   5.020   4.168 -0.2521  0.2781 -0.3274
22780SOL    HW171232   2.545   5.069   4.242  0.4958  0.3390 -0.0044
22780SOL    HW271233   2.653   5.073   4.136 -0.4721  0.1767 -1.0131
22781SOL     OW71234   3.208   1.235   7.115 -0.0699 -0.5492  0.4781
22781SOL    HW171235   3.236   1.311   7.064  1.1589 -1.6803 -0.5914
22781SOL    HW271236   3.181   1.272   7.199  0.7972  1.0342  0.1039
22782SOL     OW71237   9.053   0.574   7.745 -0.0576 -0.4043  0.0747
22782SOL    HW171238   9.024   0.485   7.764  0.7488 -1.0343 -1.5282
22782SOL    HW271239   9.074   0.574   7.652 -1.6043  1.9243 -0.3710
22783SOL     OW71240   0.119   0.340   9.561 -0.1756  0.4378 -0.0853
22783SOL    HW171241   0.154   0.371   9.478 -1.7809 -0.6064 -1.1994
22783SOL    HW271242   0.034   0.383   9.569  0.6480  1.8761  1.9053
22784SOL     OW71243   5.983   4.454   2.256  0.2595 -0.0624 -0.0167
22784SOL    HW171244   5.965   4.529   2.199 -0.4594 -1.0357 -1.1219
22784SOL    HW271245   5.941   4.380   2.212  1.0847 -1.1509  0.9596
22785SOL     OW71246   2.902   0.530   7.795 -0.1223  0.0826 -0.6195
22785SOL    HW171247   2.925   0.440   7.774 -0.4090 -0.4962  1.3919
22785SOL    HW271248   2.807   0.534   7.784 -0.1660  0.0209 -0.2502
22786SOL     OW71249   1.167   0.862   1.991  0.6138  0.3073  0.2010
22786SOL    HW171250   1.205   0.942   2.026  1.2073 -0.4117  1.2790
22786SOL    HW271251   1.220   0.842   1.913  0.4742  0.9406 -0.0586
22787SOL     OW71252   4.837   8.244   0.892 -0.0748 -0.2700  0.4268
22787SOL    HW171253   4.869   8.290   0.814 -1.1318 -0.7153 -0.2937
22787SOL    HW271254   4.910   8.190   0.920  0.7718  0.9001  0.5585
22788SOL     OW71255   8.193   3.689   4.453 -0.0301 -0.2167 -0.3596
22788SOL    HW171256   8.283   3.708   4.424 -0.6275  1.3566 -1.3193
22788SOL    HW271257   8.204   3.650   4.539  1.5570  0.6259 -0.1285
22789SOL     OW71258   1.898   3.148   8.459 -0.5184  0.1969  0.5638
22789SOL    HW171259   1.993   3.151   8.472 -0.5965 -0.1552  1.2438
22789SOL    HW271260   1.888   3.107   8.373 -0.0531  0.3412  0.4343
22790SOL     OW71261   2.414   7.959   6.705  0.0802 -0.4894 -0.4661
22790SOL    HW171262   2.380   7.898   6.640  0.2144 -0.9656 -0.0953
22790SOL    HW271263   2.459   8.027   6.654  0.7458 -1.1984 -0.8440
22791SOL     OW71264   8.631   0.410   4.656  0.1319 -0.0942  0.0269
22791SOL    HW171265   8.655   0.453   4.738  0.9260  1.1481 -0.8163
22791SOL    HW271266   8.582   0.476   4.608  2.1571  0.2842 -1.6856
22792SOL     OW71267   8.846   3.463   3.465 -0.0928 -0.5548 -0.1397
22792SOL    HW171268   8.848   3.487   3.558  0.5830 -2.8027  0.4809
22792SOL    HW271269   8.771   3.404   3.457  0.2319 -0.8786 -0.8871
22793SOL     OW71270   3.698   4.281   5.088 -0.1060 -0.1746 -0.1789
22793SOL    HW171271   3.695   4.188   5.066  1.1953 -0.2496 -0.0760
22793SOL    HW271272   3.619   4.318   5.047 -0.7931 -1.3566  0.0288
22794SOL     OW71273   3.379   1.442   1.699  0.5287  0.3997  0.0162
22794SOL    HW171274   3.369   1.533   1.728 -0.0260  0.0594  0.9241
22794SOL    HW271275   3.454   1.409   1.747  1.0233  0.5037 -0.6671
22795SOL     OW71276   6.486   9.247   0.806  0.2755  0.0308  0.3328
22795SOL    HW171277   6.442   9.240   0.722  3.8712  0.3820 -1.7758
22795SOL    HW271278   6.446   9.324   0.848  0.1381  1.4550 -2.2482
22796SOL     OW71279   2.079   4.781   2.598  0.0412 -0.1358  0.0101
22796SOL    HW171280   1.994   4.756   2.560 -0.0198 -1.0967  0.7221
22796SOL    HW271281   2.140   4.716   2.564 -0.0286 -1.0779  1.5334
22797SOL     OW71282   4.487   5.908   6.385  0.5126  0.7112  0.4472
22797SOL    HW171283   4.449   5.985   6.343 -0.3996  1.0880  1.9035
22797SOL    HW271284   4.424   5.838   6.368  0.1203  0.8743  1.2028
22798SOL     OW71285   4.400   0.209   3.605  0.3108  0.4722 -0.6325
22798SOL    HW171286   4.388   0.124   3.646  0.9094  0.1656 -1.0762
22798SOL    HW271287   4.333   0.265   3.644  1.6333  0.5426  1.7027
22799SOL     OW71288   0.123   7.803   6.382 -0.5014  0.2332  0.7949
22799SOL    HW171289   0.045   7.748   6.390  0.2319 -1.0016 -0.1265
22799SOL    HW271290   0.194   7.741   6.366  0.1500  1.5141 -1.7337
22800SOL     OW71291   0.699   2.470   2.178  0.1431  0.0518  0.0737
22800SOL    HW171292   0.787   2.435   2.163  0.2438  0.1467  0.4516
22800SOL    HW271293   0.696   2.489   2.271  0.0168  0.8734 -0.0918
22801SOL     OW71294   3.987   7.631   1.728  0.0499 -0.0156 -0.0723
22801SOL    HW171295   3.925   7.573   1.772  0.6107 -0.0862  0.6409
22801SOL    HW271296   4.068   7.580   1.722  0.0894  0.1239 -0.8768
22802SOL     OW71297   4.659   4.478   4.508  0.1408 -0.1661  0.2511
22802SOL    HW171298   4.732   4.540   4.513 -1.3961  1.6296  1.8831
22802SOL    HW271299   4.692   4.407   4.453  3.0209  0.6686  0.7309
22803SOL     OW71300   6.064   2.536   1.177  0.2552 -0.2190 -0.3786
22803SOL    HW171301   6.110   2.570   1.101  2.4770  1.1652  1.4515
22803SOL    HW271302   5.985   2.591   1.183  0.7300  0.5498 -0.9398
22804SOL     OW71303   9.537   4.491   6.609  0.1749 -0.7791  0.1677
22804SOL    HW171304   9.566   4.432   6.540 -1.5280 -0.4908 -0.8453
22804SOL    HW271305   9.477   4.439   6.662 -0.6652 -0.2131 -0.2200
22805SOL     OW71306   8.445   3.854   4.142  0.0801  0.4012  0.6030
22805SOL    HW171307   8.369   3.855   4.085  0.0618 -2.0088  0.5042
22805SOL    HW271308   8.484   3.941   4.131 -1.9029  1.2321 -0.3158
22806SOL     OW71309   0.093   0.833   0.538  0.4805 -0.0878  0.0596
22806SOL    HW171310   0.052   0.848   0.453  2.5796  2.1197 -0.6746
22806SOL    HW271311   0.048   0.756   0.573 -0.7758 -0.7942 -2.8082
22807SOL     OW71312   8.313   2.667   6.328 -0.5764 -0.0437  0.5774
22807SOL    HW171313   8.312   2.709   6.242 -3.0086  1.1768  1.1229
22807SOL    HW271314   8.367   2.725   6.382  0.2470 -0.3618  0.1222
22808SOL     OW71315   7.701   0.367   0.056 -0.0305  0.2244 -0.5898
22808SOL    HW171316   7.714   0.434   0.124 -2.5432 -0.2081  0.4328
22808SOL    HW271317   7.765   0.389  -0.012  1.9194  1.2896  1.4372
22809SOL     OW71318   6.027   4.810   8.500  0.3511 -1.0435  0.0318
22809SOL    HW171319   6.075   4.759   8.565  1.9091  0.0472 -0.1907
22809SOL    HW271320   6.050   4.901   8.520 -0.9048 -0.5339 -0.6952
22810SOL     OW71321   7.482   3.009   4.863  0.2433 -0.0251  1.0689
22810SOL    HW171322   7.575   2.985   4.852  0.1642 -0.1464  0.6444
22810SOL    HW271323   7.481   3.064   4.941  1.1535  2.5683 -0.6215
22811SOL     OW71324   0.915   4.604   3.173 -0.3275 -0.6379  0.1170
22811SOL    HW171325   0.930   4.537   3.240  0.5472  0.5795  1.1657
22811SOL    HW271326   0.909   4.686   3.221  1.6598  0.4585 -1.3855
22812SOL     OW71327   8.600   7.878   2.814  0.5124 -0.0416  0.2720
22812SOL    HW171328   8.604   7.968   2.781  0.0106 -0.0696  0.1304
22812SOL    HW271329   8.604   7.823   2.736  2.2028 -0.2031  0.4149
22813SOL     OW71330   2.090   7.280   1.514  0.2539 -0.5010  0.8999
22813SOL    HW171331   2.104   7.227   1.592  0.8071 -1.1747  0.3581
22813SOL    HW271332   2.088   7.217   1.442  1.0155  0.2103  0.2228
22814SOL     OW71333   9.359   2.844   3.895 -0.2945  0.1135 -0.3302
22814SOL    HW171334   9.356   2.921   3.951 -0.3605  0.5459 -0.9077
22814SOL    HW271335   9.312   2.872   3.815  0.1036 -0.3612 -0.7347
22815SOL     OW71336   5.814   5.307   5.714  0.1822  0.3958  0.5494
22815SOL    HW171337   5.908   5.302   5.693 -0.1935 -0.1172 -1.1923
22815SOL    HW271338   5.792   5.219   5.745  0.2002  0.3988  0.5704
22816SOL     OW71339   6.644   9.559   3.271 -0.4127 -0.0573 -0.2935
22816SOL    HW171340   6.737   9.579   3.286 -0.2459  1.5331 -2.8154
22816SOL    HW271341   6.644   9.468   3.240  0.4059  0.1321 -0.8921
22817SOL     OW71342   0.388   9.446   7.721  0.3032 -0.4431  0.1535
22817SOL    HW171343   0.362   9.414   7.807 -0.4649  2.7940  1.2790
22817SOL    HW271344   0.483   9.430   7.717 -0.0702 -3.0526  0.3889
22818SOL     OW71345   6.446   9.440   9.357  0.4785  0.0206  0.1913
22818SOL    HW171346   6.358   9.460   9.388  0.5289  0.0904  0.2894
22818SOL    HW271347   6.503   9.460   9.432  0.6677  0.8228 -0.1517
22819SOL     OW71348   3.746   0.815   6.210 -0.3139  0.5435 -0.0050
22819SOL    HW171349   3.787   0.885   6.159 -0.1955 -0.0970 -0.8165
22819SOL    HW271350   3.708   0.859   6.285  1.8503  1.1809  0.7897
22820SOL     OW71351   4.145   5.882   4.586 -0.6596 -0.3567 -0.0381
22820SOL    HW171352   4.144   5.883   4.490  0.6019  0.9334 -0.0849
22820SOL    HW271353   4.227   5.837   4.608  0.5650  1.8763  0.3133
22821SOL     OW71354   8.711   9.415   9.533  0.8814  0.0693 -0.0057
22821SOL    HW171355   8.728   9.372   9.449  1.4686  1.1944 -0.4932
22821SOL    HW271356   8.798   9.442   9.563  0.8252 -1.3824  1.5884
22822SOL     OW71357   4.958   9.123   7.605  0.4671  0.0982 -0.2500
22822SOL    HW171358   5.027   9.131   7.539  1.2541  1.7499  0.7140
22822SOL    HW271359   5.004   9.100   7.685 -0.1279  0.8936  0.3356
22823SOL     OW71360   1.714   8.134   1.293 -0.0091 -0.1415  0.5207
22823SOL    HW171361   1.779   8.079   1.249 -0.1785  1.0180 -1.3217
22823SOL    HW271362   1.723   8.220   1.250 -1.2376  0.6571  1.7777
22824SOL     OW71363   6.530   6.609   4.839  0.0415  0.3395 -0.0837
22824SOL    HW171364   6.522   6.542   4.907 -0.4742  1.0976  0.6206
22824SOL    HW271365   6.620   6.640   4.847  0.6557 -1.0513 -1.1878
22825SOL     OW71366   8.501   0.676   4.600  0.3432  0.8245 -0.4660
22825SOL    HW171367   8.412   0.664   4.566  1.0423 -3.2996 -1.3731
22825SOL    HW271368   8.557   0.673   4.522  1.4794 -1.3644  0.3464
22826SOL     OW71369   5.089   4.511   4.262 -0.2031  0.0776 -0.1247
22826SOL    HW171370   5.179   4.490   4.283 -0.1889 -1.4938 -1.5796
22826SOL    HW271371   5.094   4.560   4.180 -0.6754 -0.1051 -0.2667
22827SOL     OW71372   9.539   1.364   4.896 -0.1171  0.1096  0.2954
22827SOL    HW171373   9.568   1.343   4.807  1.8448 -0.0404  0.9077
22827SOL    HW271374   9.522   1.279   4.936  0.3980  0.0853  0.4748
22828SOL     OW71375   4.111   1.337   5.250  0.4116  0.3058 -0.0985
22828SOL    HW171376   4.115   1.245   5.278  2.6981  0.6566  1.0173
22828SOL    HW271377   4.176   1.343   5.181 -0.1492  0.9739 -0.5718
22829SOL     OW71378   7.718   4.147   9.640  0.0947 -0.4778  0.0500
22829SOL    HW171379   7.697   4.083   9.707  2.1395 -0.3822  0.8435
22829SOL    HW271380   7.668   4.225   9.665 -3.3014 -1.9610 -1.5396
22830SOL     OW71381   7.236   4.005   1.731 -0.5607  0.2234 -0.5573
22830SOL    HW171382   7.276   4.025   1.646 -2.5930 -2.1645 -2.2006
22830SOL    HW271383   7.179   3.930   1.714 -0.7978 -0.5735  3.0255
22831SOL     OW71384   7.498   0.861   5.893  0.0367  0.5205 -0.3258
22831SOL    HW171385   7.407   0.884   5.874  0.6549  3.4251 -0.2381
22831SOL    HW271386   7.493   0.811   5.974 -1.4085  1.6577  0.3398
22832SOL     OW71387   7.083   1.190   1.928  0.1081 -0.3326 -0.0117
22832SOL    HW171388   6.989   1.172   1.920 -0.1584  1.1808 -0.8082
22832SOL    HW271389   7.120   1.159   1.845 -0.4375  2.8901 -1.6303
22833SOL     OW71390   0.322   2.346   5.187 -0.4620  0.1080 -0.0992
22833SOL    HW171391   0.246   2.402   5.170  0.9650  1.9974 -0.7319
22833SOL    HW271392   0.369   2.344   5.104  0.4739 -0.5412  0.4257
22834SOL     OW71393   5.929   5.795   2.145  0.4567  0.8447  0.5596
22834SOL    HW171394   5.842   5.825   2.116  0.6233  1.1962  0.4271
22834SOL    HW271395   5.931   5.702   2.121  1.2048  1.4579 -2.0597
22835SOL     OW71396   4.955   5.215   5.843  0.0610  0.4516 -0.3612
22835SOL    HW171397   4.922   5.189   5.757 -0.3173  0.5907 -0.2617
22835SOL    HW271398   4.978   5.307   5.833  0.1206  0.4387 -0.3423
22836SOL     OW71399   9.401   0.592   3.216  0.0824 -0.1709 -0.1230
22836SOL    HW171400   9.337   0.618   3.150  0.5674 -0.2752 -0.6388
22836SOL    HW271401   9.485   0.598   3.171  0.4010 -0.3909  0.4436
22837SOL     OW71402   5.981   2.591   2.631 -0.4711  0.1398  0.2086
22837SOL    HW171403   5.946   2.607   2.718  0.9177  3.8053  0.2758
22837SOL    HW271404   5.931   2.649   2.573  0.9672  0.4770 -0.7747
22838SOL     OW71405   2.709   8.012   5.422 -0.3452  0.0665 -0.1735
22838SOL    HW171406   2.634   7.963   5.389 -0.4920  0.4985 -0.4888
22838SOL    HW271407   2.673   8.096   5.450  0.3934  1.3484 -2.8216
22839SOL     OW71408   3.214   9.543   3.353  0.0421  0.1256 -0.4698
22839SOL    HW171409   3.126   9.506   3.357 -0.1375  0.5248 -0.6020
22839SOL    HW271410   3.232   9.553   3.260 -0.0223  0.6070 -0.4371
22840SOL     OW71411   8.547   6.839   0.714 -0.1819  0.5823 -0.4418
22840SOL    HW171412   8.492   6.906   0.753  1.0793  0.8836  0.9249
22840SOL    HW271413   8.570   6.780   0.786  0.5308 -0.0592 -1.1520
22841SOL     OW71414   7.297   0.349   0.440  0.1514 -0.2660 -0.5545
22841SOL    HW171415   7.248   0.406   0.382  1.1015  0.6388 -0.4969
22841SOL    HW271416   7.247   0.348   0.522 -0.1248  0.0783 -0.7199
22842SOL     OW71417   6.038   7.685   9.538 -0.1439 -0.6398  0.5662
22842SOL    HW171418   6.028   7.681   9.633  1.5853 -0.6534  0.7684
22842SOL    HW271419   6.083   7.604   9.515  0.7287  0.0113 -0.0826
22843SOL     OW71420   4.558   1.091   2.802 -0.2788  0.3521 -0.5330
22843SOL    HW171421   4.590   1.001   2.800 -1.3793 -0.1078  0.9714
22843SOL    HW271422   4.532   1.105   2.893  1.3804  2.7474 -0.3239
22844SOL     OW71423   6.004   4.013   5.149 -0.5132  0.6845 -0.0103
22844SOL    HW171424   6.023   3.933   5.099 -0.7087 -0.4038  1.5730
22844SOL    HW271425   6.087   4.062   5.148  0.2000 -0.4646  0.6107
22845SOL     OW71426   9.423   3.856   5.853 -0.1655  0.7779 -0.0917
22845SOL    HW171427   9.482   3.868   5.928  1.4770 -0.8997 -1.0497
22845SOL    HW271428   9.341   3.824   5.892  0.3661  0.7603  1.0515
22846SOL     OW71429   8.869   2.137   2.097 -0.0260  0.0059  0.8100
22846SOL    HW171430   8.785   2.150   2.141 -0.9139 -0.7664 -0.5869
22846SOL    HW271431   8.934   2.152   2.166 -1.2564  1.4501  1.7251
22847SOL     OW71432   7.528   1.634   7.464  0.2662  0.0309  0.0310
22847SOL    HW171433   7.612   1.655   7.424 -0.3121  0.8066 -0.8086
22847SOL    HW271434   7.548   1.622   7.557  1.3420 -0.0816 -0.2012
22848SOL     OW71435   9.050   6.369   7.017  0.0156  0.6613  0.0015
22848SOL    HW171436   9.100   6.443   6.982 -0.4703  0.7120 -0.5775
22848SOL    HW271437   9.104   6.338   7.090  0.1713  1.6582  0.3394
22849SOL     OW71438   4.444   3.338   8.366 -0.4319 -0.5601  0.5189
22849SOL    HW171439   4.433   3.334   8.461 -0.2392 -0.7824  0.5326
22849SOL    HW271440   4.532   3.305   8.350  0.0184  0.7041  0.3537
22850SOL     OW71441   9.467   8.356   4.553 -0.4680 -0.5498  0.1055
22850SOL    HW171442   9.456   8.282   4.613 -2.2804 -0.0380  0.4937
22850SOL    HW271443   9.423   8.328   4.473 -2.4962  0.5786  0.7432
22851SOL     OW71444   6.177   6.942   5.519  0.5296  0.0998 -0.2073
22851SOL    HW171445   6.261   6.982   5.541  1.1960 -0.9610 -0.7549
22851SOL    HW271446   6.198   6.875   5.453 -0.6097 -0.7637  0.2642
22852SOL     OW71447   0.544   0.145   8.477 -0.1220  0.2485 -0.1305
22852SOL    HW171448   0.612   0.211   8.489  0.4822 -0.3894 -0.0216
22852SOL    HW271449   0.553   0.117   8.386 -0.2133  0.1425 -0.1083
22853SOL     OW71450   3.676   0.233   7.779 -0.3814  0.5429 -0.5966
22853SOL    HW171451   3.731   0.250   7.703  1.5317  0.6241  0.7551
22853SOL    HW271452   3.719   0.277   7.852 -1.1142 -1.0933  0.9209
22854SOL     OW71453   0.324   0.918   3.527  0.1237  0.3680  0.5484
22854SOL    HW171454   0.311   0.942   3.619 -1.0587  0.3318  0.4111
22854SOL    HW271455   0.235   0.908   3.492  0.4864  2.4958 -1.1602
22855SOL     OW71456   2.078   9.335   0.446 -0.2948  0.1711  0.4262
22855SOL    HW171457   2.085   9.396   0.373  0.0932 -1.0240 -0.5734
22855SOL    HW271458   2.017   9.376   0.507 -0.7129  1.1389 -0.6213
22856SOL     OW71459   1.388   8.542   8.852  0.3649  0.5424 -0.1368
22856SOL    HW171460   1.448   8.538   8.777  0.1047 -1.5923 -0.3204
22856SOL    HW271461   1.434   8.496   8.922 -1.9502 -3.8739 -1.1143
22857SOL     OW71462   6.472   4.988   6.572 -0.1598 -0.0602  0.1032
22857SOL    HW171463   6.468   5.050   6.645 -1.4853  0.0925 -0.0759
22857SOL    HW271464   6.527   5.031   6.507 -1.0641  0.9681 -0.0198
22858SOL     OW71465   8.042   8.987   8.017  0.2996  0.1406 -0.1310
22858SOL    HW171466   7.992   8.911   7.987 -0.6842 -0.3465  2.4827
22858SOL    HW271467   8.131   8.954   8.031  0.1552 -0.2472 -0.1138
22859SOL     OW71468   7.424   2.415   4.669 -0.3829  0.4901  0.2826
22859SOL    HW171469   7.433   2.326   4.637 -1.2928  0.6141 -0.3687
22859SOL    HW271470   7.329   2.431   4.668 -0.2005  1.6272 -0.1066
22860SOL     OW71471   8.672   0.362   2.626 -0.1695  0.1710  0.1651
22860SOL    HW171472   8.577   0.359   2.611 -0.2994 -0.9187  1.1174
22860SOL    HW271473   8.698   0.271   2.637  1.4107  0.2231 -2.3550
22861SOL     OW71474   3.327   5.330   4.989 -0.1144 -0.8515 -0.4608
22861SOL    HW171475   3.234   5.312   4.977  0.1915 -1.6770 -1.7789
22861SOL    HW271476   3.354   5.272   5.061 -0.8360  0.2563  0.7610
22862SOL     OW71477   4.931   0.152   4.890  0.4857 -0.1311 -0.3394
22862SOL    HW171478   4.954   0.119   4.803  1.3279 -0.6572  0.0629
22862SOL    HW271479   5.013   0.145   4.940 -0.3696 -1.4503  0.9799
22863SOL     OW71480   4.064   1.513   4.672 -0.0144  0.8231  0.0229
22863SOL    HW171481   3.970   1.504   4.685  0.2664 -0.0326  1.8902
22863SOL    HW271482   4.098   1.534   4.759  1.3389  3.2031 -0.9885
22864SOL     OW71483   5.723   2.555   8.626 -0.2993 -0.0304  0.0957
22864SOL    HW171484   5.646   2.606   8.598  0.3569  0.4252 -0.9919
22864SOL    HW271485   5.775   2.617   8.678 -0.3106 -0.0962  0.1837
22865SOL     OW71486   1.086   1.841   4.002  0.7967  0.0577 -0.2734
22865SOL    HW171487   1.000   1.883   3.999  1.5819  1.7877  0.1236
22865SOL    HW271488   1.136   1.883   3.932  1.1930 -1.3069 -0.8506
22866SOL     OW71489   4.611   2.578   3.939  0.4463 -0.3603 -0.6601
22866SOL    HW171490   4.666   2.624   4.002 -0.4127 -1.0496  0.6266
22866SOL    HW271491   4.536   2.547   3.990 -0.1534 -1.1452 -1.9666
22867SOL     OW71492   7.668   2.982   9.510  0.4422  0.2360  0.4023
22867SOL    HW171493   7.674   3.075   9.528  1.4437  0.1383  0.6066
22867SOL    HW271494   7.703   2.972   9.421  0.0776  0.0877  0.2716
22868SOL     OW71495   3.906   9.105   0.785  0.3576  0.3093  0.0154
22868SOL    HW171496   3.903   9.149   0.701  1.0077  1.3637  0.5179
22868SOL    HW271497   3.945   9.020   0.766 -1.6438 -0.4268 -1.1004
22869SOL     OW71498   2.828   8.692   5.626 -0.2239  0.3014  0.0781
22869SOL    HW171499   2.814   8.759   5.559 -1.4310  0.8376  0.8336
22869SOL    HW271500   2.922   8.695   5.644  0.1626  0.0603 -1.6522
22870SOL     OW71501   2.314   6.133   5.667  0.3038 -0.1759  0.5550
22870SOL    HW171502   2.240   6.097   5.619 -0.7489  2.4808  0.0126
22870SOL    HW271503   2.356   6.057   5.708 -2.2646 -1.8374  0.2915
22871SOL     OW71504   5.542   8.355   8.665  0.0038  0.3491 -0.5789
22871SOL    HW171505   5.590   8.414   8.722  1.2217  1.5796 -2.7666
22871SOL    HW271506   5.466   8.406   8.636 -1.1775 -0.6234  0.6520
22872SOL     OW71507   4.435   0.014   8.806  0.4582 -0.4055 -0.3727
22872SOL    HW171508   4.437   0.059   8.721 -1.5236 -0.3033 -0.4040
22872SOL    HW271509   4.359  -0.044   8.801  0.0588 -0.0956  1.4827
22873SOL     OW71510   9.009   6.397   8.934 -0.4419  0.2220 -0.1142
22873SOL    HW171511   8.983   6.363   8.848 -0.0981 -0.5523  0.0760
22873SOL    HW271512   8.938   6.370   8.993 -0.4733  0.3821 -0.0796
22874SOL     OW71513   2.456   3.381   5.117  0.4325 -0.2892 -0.4458
22874SOL    HW171514   2.445   3.291   5.086  0.2561  0.0926 -1.5150
22874SOL    HW271515   2.512   3.423   5.052  1.1479  0.1730  0.4490
22875SOL     OW71516   8.701   7.335   1.436 -0.3151 -0.1368  0.3984
22875SOL    HW171517   8.795   7.344   1.451 -0.2317 -1.2640  0.6371
22875SOL    HW271518   8.661   7.374   1.514 -0.0073 -0.7211  0.8611
22876SOL     OW71519   2.510   2.590   7.650  0.1522  0.0233 -0.2413
22876SOL    HW171520   2.589   2.537   7.638  0.2754  0.3942 -1.1059
22876SOL    HW271521   2.538   2.679   7.628 -0.2643  0.3206  0.4022
22877SOL     OW71522   8.814   5.837   5.552  0.0891 -0.0534  0.0014
22877SOL    HW171523   8.836   5.913   5.606  0.1855  1.8478 -2.5212
22877SOL    HW271524   8.720   5.847   5.534 -0.1124 -1.0990  0.3926
22878SOL     OW71525   3.969   6.075   5.124  0.0058  0.3610 -0.1565
22878SOL    HW171526   4.005   6.160   5.149 -1.0193  1.0201 -0.8093
22878SOL    HW271527   3.984   6.069   5.030 -3.5009  1.7353 -0.9706
22879SOL     OW71528   0.139   6.504   2.510  0.2595 -0.0395  0.3246
22879SOL    HW171529   0.146   6.491   2.416 -2.5158  0.1338  0.0211
22879SOL    HW271530   0.159   6.597   2.523  1.8218 -0.3202  0.1035
22880SOL     OW71531   8.428   1.833   0.844  0.4542  0.0396  0.1247
22880SOL    HW171532   8.344   1.798   0.873  0.9081 -0.9094  0.3541
22880SOL    HW271533   8.443   1.910   0.899  0.2872 -0.4858  0.9294
22881SOL     OW71534   8.275   6.691   4.043 -0.4863 -0.3431  0.4792
22881SOL    HW171535   8.314   6.609   4.074 -0.6940 -0.8052 -0.4549
22881SOL    HW271536   8.181   6.679   4.057 -0.4434  0.1141  1.2007
22882SOL     OW71537   4.809   6.616   3.213 -0.1355 -0.2993 -0.2823
22882SOL    HW171538   4.827   6.568   3.294 -2.5876 -0.3521  0.3160
22882SOL    HW271539   4.723   6.584   3.185 -0.1482  1.0351 -1.9380
22883SOL     OW71540   4.984   6.526   0.767  0.0559 -0.2817  0.1900
22883SOL    HW171541   4.905   6.486   0.804  0.4450  0.5509  2.0546
22883SOL    HW271542   4.951   6.598   0.713 -0.4992 -0.3432  0.4331
22884SOL     OW71543   0.893   1.058   7.806  0.0732  0.6752  0.3026
22884SOL    HW171544   0.864   1.118   7.738 -1.4179  0.8869  1.0679
22884SOL    HW271545   0.974   1.096   7.840  1.3934  0.0606 -1.9330
22885SOL     OW71546   7.075   9.194   3.125 -0.1305  0.0383  0.1908
22885SOL    HW171547   7.145   9.200   3.060 -1.2557  1.9458 -0.9298
22885SOL    HW271548   7.001   9.157   3.077 -0.7352  0.7014  0.5990
22886SOL     OW71549   4.860   6.496   4.382 -0.3026 -0.5550 -0.3099
22886SOL    HW171550   4.884   6.589   4.392  0.3431 -0.7212 -0.2289
22886SOL    HW271551   4.916   6.466   4.310 -1.1400 -0.6695 -0.9250
22887SOL     OW71552   5.022   5.467   9.044 -0.5376  0.6361 -0.1324
22887SOL    HW171553   5.058   5.394   9.096  2.2556  1.1419 -1.1897
22887SOL    HW271554   4.972   5.425   8.974 -0.5743 -0.1865  0.3766
22888SOL     OW71555   2.652   7.736   6.016 -0.1057 -0.8173  0.7106
22888SOL    HW171556   2.663   7.776   5.930 -4.5737  0.8950  0.6388
22888SOL    HW271557   2.632   7.644   5.998  2.3507 -1.3148  0.2719
22889SOL     OW71558   9.528   4.101   1.610 -0.4121 -0.7903 -0.4055
22889SOL    HW171559   9.515   4.174   1.669 -0.2053  0.9695 -2.4172
22889SOL    HW271560   9.554   4.141   1.527 -1.0318 -3.0913 -1.8128
22890SOL     OW71561   8.198   0.790   9.423 -0.4880  0.5117 -0.7733
22890SOL    HW171562   8.177   0.800   9.515  4.7626  0.5396  0.7613
22890SOL    HW271563   8.176   0.699   9.402 -1.3109  0.3740  0.6238
22891SOL     OW71564   3.784   9.168   1.007  0.2003  0.0150  0.1593
22891SOL    HW171565   3.827   9.135   0.928 -0.4187 -2.2551  0.6880
22891SOL    HW271566   3.698   9.198   0.977 -0.0002 -0.7593 -0.0650
22892SOL     OW71567   8.476   0.887   9.533  0.1292 -0.5326 -0.1459
22892SOL    HW171568   8.540   0.828   9.491 -1.2404 -2.0376 -0.2095
22892SOL    HW271569   8.397   0.877   9.480 -1.2874 -1.5635  2.0354
22893SOL     OW71570   6.399   4.560   3.006 -0.1426  0.3658 -0.0255
22893SOL    HW171571   6.323   4.550   3.062  1.0770  1.5735  1.9752
22893SOL    HW271572   6.468   4.511   3.050  0.6994  0.8105 -0.8157
22894SOL     OW71573   6.881   1.299   3.340  0.1936 -0.0089 -0.3915
22894SOL    HW171574   6.972   1.326   3.332 -0.0167  0.5067 -1.2418
22894SOL    HW271575   6.863   1.301   3.434  0.6494  1.2890 -0.3067
22895SOL     OW71576   5.912   7.326   1.228  0.1136 -0.2627  0.2107
22895SOL    HW171577   5.880   7.380   1.155 -1.2255  1.3519  1.8930
22895SOL    HW271578   5.984   7.376   1.264 -0.0216 -0.4467  0.7380
22896SOL     OW71579   5.210   4.188   3.504 -0.1602 -0.2711  0.1288
22896SOL    HW171580   5.251   4.198   3.589 -0.3920  0.9920  0.1093
22896SOL    HW271581   5.250   4.256   3.449 -1.5605  0.3866 -0.1462
22897SOL     OW71582   1.217   9.286   5.692 -0.5065  0.1425  0.9784
22897SOL    HW171583   1.273   9.215   5.661 -0.3436  0.7872 -0.2342
22897SOL    HW271584   1.209   9.345   5.618 -1.0987  1.1205  1.7974
22898SOL     OW71585   7.246   6.937   2.842  0.1887 -0.0508  0.0364
22898SOL    HW171586   7.179   6.888   2.794  0.4624  1.1225 -1.6517
22898SOL    HW271587   7.323   6.934   2.785  0.7386  0.8305  0.7054
22899SOL     OW71588   3.255   8.847   4.232 -0.1264 -0.2567 -0.2419
22899SOL    HW171589   3.164   8.836   4.259  0.2282 -3.2613  0.1448
22899SOL    HW271590   3.250   8.889   4.146 -1.9435 -0.9234 -0.5003
22900SOL     OW71591   6.368   1.010   8.068  0.8578 -0.4797  0.0288
22900SOL    HW171592   6.361   0.965   8.153 -3.3034  2.7667  1.7619
22900SOL    HW271593   6.296   0.975   8.016  1.7522 -0.5515 -1.1929
22901SOL     OW71594   7.627   6.711   1.353  0.4876  0.3387  0.2530
22901SOL    HW171595   7.721   6.696   1.360  0.9024  2.6507  0.5794
22901SOL    HW271596   7.614   6.742   1.263 -0.0786 -0.5618  0.0114
22902SOL     OW71597   5.268   4.238   4.402 -0.3007 -0.0437  0.2416
22902SOL    HW171598   5.198   4.283   4.448 -0.8160  0.1861 -0.7582
22902SOL    HW271599   5.232   4.218   4.316  1.2106  1.0542 -0.6897
22903SOL     OW71600   7.563   5.974   1.066  0.3343  0.0378 -0.0054
22903SOL    HW171601   7.557   5.888   1.023 -0.6293  0.3754 -0.5848
22903SOL    HW271602   7.578   5.953   1.158  1.6911 -0.7088 -0.3712
22904SOL     OW71603   9.024   1.481   5.476  0.2796  0.7152  0.2716
22904SOL    HW171604   9.108   1.466   5.520  0.9445 -0.1410 -1.1815
22904SOL    HW271605   8.987   1.394   5.465 -1.6193  1.1892  2.2989
22905SOL     OW71606   7.841   3.180   2.239 -0.2170 -0.0834 -0.1845
22905SOL    HW171607   7.792   3.133   2.306  1.3418 -2.5473 -0.6673
22905SOL    HW271608   7.895   3.243   2.288  0.1382 -1.1311  0.8050
22906SOL     OW71609   1.294   2.885   2.968  0.0132  0.3130  0.2334
22906SOL    HW171610   1.289   2.827   3.044  0.3655 -2.0796 -1.4331
22906SOL    HW271611   1.385   2.912   2.964  0.1015  0.0432  0.4021
22907SOL     OW71612   9.188   4.382   1.239  0.3536  0.6193 -0.1624
22907SOL    HW171613   9.237   4.412   1.315 -0.4551  1.4219  0.0472
22907SOL    HW271614   9.115   4.332   1.275 -1.1101  2.5624 -0.2951
22908SOL     OW71615   5.533   9.321   1.604  0.3724  0.1270  0.6946
22908SOL    HW171616   5.487   9.365   1.533  2.5499  1.3867 -0.0127
22908SOL    HW271617   5.464   9.300   1.668 -1.4440  0.0289 -1.2064
22909SOL     OW71618   4.929   8.193   6.212  0.0865 -0.0994 -0.5146
22909SOL    HW171619   4.997   8.156   6.268 -1.2125 -2.5456 -0.4337
22909SOL    HW271620   4.915   8.128   6.144  0.3886  2.0443 -2.7475
22910SOL     OW71621   3.745   5.973   3.890  0.6130  0.0469  0.0483
22910SOL    HW171622   3.694   5.970   3.971  0.1148  1.4391 -0.2021
22910SOL    HW271623   3.749   6.066   3.867  2.7002 -0.0769 -0.2913
22911SOL     OW71624   9.132   7.213   8.369 -0.6443 -0.1683  0.6315
22911SOL    HW171625   9.159   7.128   8.405 -0.8216 -0.8286 -0.7387
22911SOL    HW271626   9.150   7.206   8.276  0.9711  1.9613  0.7150
22912SOL     OW71627   4.102   2.784   4.201 -0.1190  0.0343  0.2282
22912SOL    HW171628   4.056   2.717   4.251 -1.7772  0.7842 -0.2141
22912SOL    HW271629   4.037   2.854   4.190  1.1195  1.1121 -0.5055
22913SOL     OW71630   5.440   4.507   6.949 -0.3276 -0.3699 -0.2018
22913SOL    HW171631   5.515   4.450   6.936 -0.3350 -0.3423 -0.3626
22913SOL    HW271632   5.459   4.585   6.898 -0.9755 -0.8197 -1.1689
22914SOL     OW71633   5.385   9.281   6.745  0.0989 -0.0078  0.1757
22914SOL    HW171634   5.300   9.294   6.702 -0.4178 -1.5158  0.6532
22914SOL    HW271635   5.429   9.215   6.692 -0.1437 -1.1651  1.3494
22915SOL     OW71636   9.443   1.206   5.172  0.0159  0.3087 -0.4268
22915SOL    HW171637   9.538   1.198   5.162 -0.0274 -0.3147 -0.3755
22915SOL    HW271638   9.413   1.116   5.187 -0.5878  0.4971 -0.4949
22916SOL     OW71639   3.217   6.775   5.489  0.0589  0.1655  0.7342
22916SOL    HW171640   3.175   6.796   5.572 -0.4180 -0.9939  0.8074
22916SOL    HW271641   3.159   6.710   5.448  1.3544 -0.8825  0.4824
22917SOL     OW71642   0.242   3.316   7.536 -0.0663  0.5854 -0.2158
22917SOL    HW171643   0.273   3.268   7.459 -4.0626 -1.2738 -0.8837
22917SOL    HW271644   0.196   3.251   7.589  0.5417  2.3043  2.6675
22918SOL     OW71645   5.191   4.390   8.710  0.3878  0.3211 -0.0886
22918SOL    HW171646   5.271   4.425   8.750 -0.1245  1.1638  0.2313
22918SOL    HW271647   5.182   4.437   8.628 -1.1677  2.1990  1.0782
22919SOL     OW71648   3.705   3.237   4.773 -0.0031  0.1197  0.4466
22919SOL    HW171649   3.699   3.147   4.739  1.0881  0.4719 -0.7222
22919SOL    HW271650   3.765   3.230   4.847  0.6913  0.0150 -0.1220
22920SOL     OW71651   5.783   1.382   2.747 -0.1868 -0.8110  0.1738
22920SOL    HW171652   5.824   1.300   2.720  0.6452 -0.7591  1.1901
22920SOL    HW271653   5.691   1.360   2.760 -0.7436 -0.7556 -2.9215
22921SOL     OW71654   2.608   0.011   5.682  0.4148 -0.2584  0.3491
22921SOL    HW171655   2.550   0.070   5.634  0.3655 -0.3294  0.3206
22921SOL    HW271656   2.613  -0.067   5.627 -0.3695 -0.6998  0.8969
22922SOL     OW71657   1.984   1.844   1.657 -0.0428  0.0878 -0.1529
22922SOL    HW171658   1.950   1.838   1.568 -0.4270 -0.0249 -0.0005
22922SOL    HW271659   1.933   1.780   1.707  0.2866  0.0289  0.1128
22923SOL     OW71660   7.326   5.322   6.132 -0.0604 -0.0367 -0.0361
22923SOL    HW171661   7.370   5.336   6.215 -0.0590  2.3080 -0.3797
22923SOL    HW271662   7.237   5.354   6.145 -0.7449 -1.7100 -0.3184
22924SOL     OW71663   5.462   2.681   3.246 -0.3823  0.0755  0.2282
22924SOL    HW171664   5.475   2.625   3.169 -1.4071 -0.0108  0.1054
22924SOL    HW271665   5.403   2.631   3.302 -1.3443  1.0478  0.0981
22925SOL     OW71666   0.888   9.368   2.472 -0.0189 -0.0778  0.3163
22925SOL    HW171667   0.795   9.364   2.452  0.0665  1.2374 -0.4554
22925SOL    HW271668   0.925   9.426   2.405  1.5425 -1.3955 -0.0415
22926SOL     OW71669   1.064   3.679   2.494 -0.3594  0.4807 -0.3679
22926SOL    HW171670   1.128   3.650   2.559  1.4508 -1.0759 -2.6622
22926SOL    HW271671   0.979   3.669   2.537  0.7649 -0.3257  1.7746
22927SOL     OW71672   6.649   7.057   3.527  0.2084  0.1730 -0.0381
22927SOL    HW171673   6.595   7.003   3.470  1.6785 -0.5192 -0.8369
22927SOL    HW271674   6.641   7.145   3.492 -1.6966  0.4029  0.8782
22928SOL     OW71675   8.413   8.267   7.898 -0.2785  0.0709 -0.3349
22928SOL    HW171676   8.434   8.260   7.991 -1.2742  0.4380 -0.0798
22928SOL    HW271677   8.374   8.182   7.876  0.9892 -0.4530 -0.7137
22929SOL     OW71678   6.318   0.452   1.553  0.2987  0.7856  1.1023
22929SOL    HW171679   6.397   0.398   1.544 -0.9817 -0.8208 -2.1342
22929SOL    HW271680   6.247   0.388   1.564 -1.0283  1.8746 -0.6840
22930SOL     OW71681   9.257   8.031   4.719 -0.2552  0.3394 -0.6117
22930SOL    HW171682   9.210   8.096   4.667 -0.2034 -0.7874 -2.1527
22930SOL    HW271683   9.237   7.947   4.677 -0.6228 -0.7164  1.5378
22931SOL     OW71684   2.010   2.477   6.897  0.1080  0.8774  0.2358
22931SOL    HW171685   1.971   2.518   6.975  1.8339  3.0167  0.0735
22931SOL    HW271686   2.005   2.544   6.829 -2.7740 -1.4403 -2.1347
22932SOL     OW71687   7.770   3.899   7.083 -0.8137 -0.2985  0.4278
22932SOL    HW171688   7.785   3.887   7.176  0.1794  1.6888  0.5819
22932SOL    HW271689   7.688   3.948   7.077 -0.5956  0.0588  0.3026
22933SOL     OW71690   0.779   9.629   1.001  0.3866  0.2113  0.0926
22933SOL    HW171691   0.800   9.564   0.934  0.1339  0.1820  0.0401
22933SOL    HW271692   0.806   9.712   0.961 -1.5314  0.4362 -0.8675
22934SOL     OW71693   3.893   2.301   7.997 -0.7431 -0.1088  0.0489
22934SOL    HW171694   3.808   2.317   7.956 -1.0211 -1.2048  0.1744
22934SOL    HW271695   3.941   2.384   7.986 -2.5608  1.2974  1.8456
22935SOL     OW71696   9.321   0.400   3.372  0.7605 -0.5908 -0.4682
22935SOL    HW171697   9.409   0.360   3.373  1.0970  0.1282  1.2265
22935SOL    HW271698   9.334   0.483   3.326  1.5946  0.7443  2.0258
22936SOL     OW71699   3.613   2.523   6.114 -0.2659 -0.0851 -0.2239
22936SOL    HW171700   3.702   2.504   6.084 -0.2148 -2.1147  1.0225
22936SOL    HW271701   3.561   2.447   6.086 -1.1909  0.1669  0.7448
22937SOL     OW71702   6.577   2.972   7.371 -0.2049 -0.0386  0.1175
22937SOL    HW171703   6.552   3.061   7.396 -0.4558 -0.1155  0.1423
22937SOL    HW271704   6.615   2.982   7.284 -3.3220 -0.3169 -1.4312
22938SOL     OW71705   2.639   6.739   6.896 -0.0610  0.0538  0.3381
22938SOL    HW171706   2.549   6.764   6.913 -0.0374 -0.1205  0.7540
22938SOL    HW271707   2.691   6.812   6.929 -0.0778  0.5455 -0.7048
22939SOL     OW71708   3.882   3.183   2.092  0.6496  0.5149  0.2546
22939SOL    HW171709   3.972   3.192   2.122  0.8752 -0.4354 -0.0845
22939SOL    HW271710   3.851   3.273   2.080  2.2420  0.8740 -1.6508
22940SOL     OW71711   6.972   1.568   6.427 -0.0249  0.3154  0.2539
22940SOL    HW171712   6.911   1.534   6.361 -2.2819  1.6708  1.5409
22940SOL    HW271713   6.996   1.655   6.396  0.7646  0.0549  0.1007
22941SOL     OW71714   7.259   3.423   8.370 -0.1846 -0.4281  0.1247
22941SOL    HW171715   7.264   3.471   8.287 -0.7340  0.7563  0.7455
22941SOL    HW271716   7.351   3.408   8.394  0.0360  1.0831  0.3241
22942SOL     OW71717   5.343   6.670   2.817  0.2886 -0.1221 -0.1796
22942SOL    HW171718   5.372   6.579   2.811  1.0541  0.1838 -1.4055
22942SOL    HW271719   5.410   6.720   2.771  0.3705  1.1947  1.2873
22943SOL     OW71720   2.217   7.823   6.220  0.4402  0.3054  0.2849
22943SOL    HW171721   2.175   7.737   6.212 -0.1511  0.6299 -0.1265
22943SOL    HW271722   2.274   7.829   6.144 -2.1057  1.6829 -1.6776
22944SOL     OW71723   9.461   4.672   0.023  0.0168 -0.1062  0.3091
22944SOL    HW171724   9.553   4.644   0.019  0.6908  2.0114 -1.0127
22944SOL    HW271725   9.434   4.679  -0.069 -1.8000 -1.5198  0.6793
22945SOL     OW71726   0.814   5.013   1.197  0.2171 -0.2395 -0.8229
22945SOL    HW171727   0.857   5.017   1.282  0.9599  0.3182 -1.2095
22945SOL    HW271728   0.771   4.927   1.195  0.1017 -0.2064  0.1509
22946SOL     OW71729   6.937   8.911   1.386 -0.3119 -0.2621  0.0238
22946SOL    HW171730   6.935   8.838   1.324  1.1601 -1.0095  0.8058
22946SOL    HW271731   7.026   8.945   1.379 -0.9400  1.3936 -0.2232
22947SOL     OW71732   0.605   1.747   7.134  0.2590 -0.1184  0.4290
22947SOL    HW171733   0.543   1.810   7.097  1.3845  1.3748  0.9868
22947SOL    HW271734   0.551   1.671   7.157 -1.2864  0.9533  0.4887
22948SOL     OW71735   9.102   1.204   0.291  0.4788 -0.0568  0.3742
22948SOL    HW171736   9.048   1.142   0.242  1.7009 -1.3309  0.5832
22948SOL    HW271737   9.183   1.156   0.309  1.4920  1.6310  0.4911
22949SOL     OW71738   7.235   5.061   2.178 -0.1595  0.5199 -0.3054
22949SOL    HW171739   7.299   5.132   2.171 -0.1726  0.5704  0.0782
22949SOL    HW271740   7.185   5.081   2.257 -2.0589  1.6330 -1.7213
22950SOL     OW71741   1.289   7.639   8.726  0.4995  0.4274  0.2252
22950SOL    HW171742   1.318   7.551   8.702 -1.2496  0.0189 -0.5562
22950SOL    HW271743   1.213   7.655   8.670 -1.2754  1.0900  2.6609
22951SOL     OW71744   9.605   7.368   8.867 -0.7601  0.1967 -0.2293
22951SOL    HW171745   9.672   7.378   8.935 -0.0191  0.4707 -0.9914
22951SOL    HW271746   9.543   7.440   8.884  1.1575  2.3654 -1.7977
22952SOL     OW71747   4.457   5.187   4.706  0.5909 -0.1765 -0.1884
22952SOL    HW171748   4.501   5.269   4.682 -0.4585  0.8587  1.2639
22952SOL    HW271749   4.365   5.201   4.684  0.1971 -0.4867  1.1604
22953SOL     OW71750   5.450   0.974   1.627 -0.1943 -0.5802  0.2638
22953SOL    HW171751   5.437   0.916   1.552 -0.5328 -1.2917  0.8546
22953SOL    HW271752   5.529   0.942   1.669 -0.3647 -0.6016  0.5758
22954SOL     OW71753   4.891   1.406   4.740 -0.3246 -0.3661  0.6042
22954SOL    HW171754   4.939   1.324   4.730 -1.8793 -1.2754  0.3578
22954SOL    HW271755   4.865   1.429   4.651 -0.9916 -0.2987  0.8118
22955SOL     OW71756   2.823   5.632   4.950 -0.4323  0.0710  0.1459
22955SOL    HW171757   2.782   5.553   4.916 -3.2062  1.7386 -0.7540
22955SOL    HW271758   2.868   5.604   5.030 -0.8616 -2.4583 -0.4195
22956SOL     OW71759   1.421   6.537   3.103  0.1238  0.5019 -0.2554
22956SOL    HW171760   1.361   6.588   3.048 -2.4603 -0.9064  1.0363
22956SOL    HW271761   1.415   6.448   3.069 -0.2032 -0.0586  1.1960
22957SOL     OW71762   8.090   3.712   2.377  0.0197 -0.4827  0.5332
22957SOL    HW171763   8.106   3.619   2.390 -0.3312 -0.8760 -1.4395
22957SOL    HW271764   7.999   3.724   2.404  0.0910 -0.6886  0.8735
22958SOL     OW71765   6.365   2.558   0.611  0.4031  0.1688 -0.0568
22958SOL    HW171766   6.454   2.570   0.577  0.1533 -0.5208 -1.0090
22958SOL    HW271767   6.347   2.464   0.599 -0.1204  0.1210  0.9758
22959SOL     OW71768   1.190   2.876   4.622  0.6540 -0.1213  0.0036
22959SOL    HW171769   1.190   2.806   4.688  0.3875  0.7601  0.9660
22959SOL    HW271770   1.237   2.948   4.663  0.2486  0.5437 -0.6642
22960SOL     OW71771   9.035   8.581   1.156  1.0112 -0.4292 -0.0757
22960SOL    HW171772   9.027   8.597   1.062  0.2961 -1.0078 -0.1231
22960SOL    HW271773   8.946   8.591   1.189  1.2139 -0.5029  0.4971
22961SOL     OW71774   4.942   1.564   9.492  0.4392 -0.1257  0.2995
22961SOL    HW171775   4.865   1.540   9.543 -0.8344  1.0753 -0.9606
22961SOL    HW271776   5.015   1.517   9.534 -0.8165 -0.5926  2.0657
22962SOL     OW71777   5.120   3.984   0.175 -0.1817  0.0596 -0.5698
22962SOL    HW171778   5.147   4.015   0.261 -0.6531 -1.1027  0.0203
22962SOL    HW271779   5.085   3.896   0.191 -0.8471  0.0643 -1.8515
22963SOL     OW71780   0.998   2.267   4.873 -0.2121  0.2900  0.1223
22963SOL    HW171781   1.006   2.182   4.829  1.6955  1.0577 -1.1231
22963SOL    HW271782   0.904   2.285   4.872 -0.6094 -1.6088  0.0471
22964SOL     OW71783   5.360   6.567   2.474  0.3519 -0.7035  0.5292
22964SOL    HW171784   5.327   6.478   2.487 -0.7652 -0.3770  0.0703
22964SOL    HW271785   5.455   6.560   2.489  0.8344 -2.6312 -2.4261
22965SOL     OW71786   2.334   6.618   5.210 -0.2384  0.0041 -0.3793
22965SOL    HW171787   2.350   6.616   5.304  1.9334  0.6927 -0.6993
22965SOL    HW271788   2.387   6.546   5.175 -0.4608  0.2075 -1.1604
22966SOL     OW71789   5.460   7.317   2.062 -0.1525  0.8154  0.3437
22966SOL    HW171790   5.472   7.224   2.048  0.4179  0.8186  0.7673
22966SOL    HW271791   5.441   7.353   1.976 -0.0996  0.3485  0.1378
22967SOL     OW71792   4.337   6.112   3.529 -0.1935 -0.3645  0.2279
22967SOL    HW171793   4.357   6.205   3.527  1.5459 -0.7173 -0.1216
22967SOL    HW271794   4.350   6.087   3.621 -1.8993 -0.0361  0.5840
22968SOL     OW71795   8.450   5.762   7.750 -0.7534  0.0078  0.0181
22968SOL    HW171796   8.460   5.700   7.823 -0.6974 -0.0798 -0.0630
22968SOL    HW271797   8.393   5.831   7.785 -1.6797 -0.6154 -0.2108
22969SOL     OW71798   9.184   0.040   1.926  0.1254  0.2553 -0.3653
22969SOL    HW171799   9.106   0.085   1.892 -0.3350 -1.8327 -2.3246
22969SOL    HW271800   9.257   0.099   1.904 -0.5622  0.6086 -1.8348
22970SOL     OW71801   9.632   2.299   4.611 -0.1349  0.0804  0.2539
22970SOL    HW171802   9.593   2.346   4.537  0.7583 -0.9559 -0.9174
22970SOL    HW271803   9.558   2.256   4.654 -0.8474  1.7523  0.8106
22971SOL     OW71804   6.595   2.086   2.838  0.3593 -0.6996 -0.1772
22971SOL    HW171805   6.555   2.173   2.832 -0.0865 -0.7793  1.2663
22971SOL    HW271806   6.521   2.026   2.836  0.7271 -1.1373 -2.2258
22972SOL     OW71807   6.550   1.126   4.370 -0.2450  0.1112 -0.3874
22972SOL    HW171808   6.455   1.139   4.376 -0.6012 -1.9773 -0.9092
22972SOL    HW271809   6.585   1.181   4.440 -2.0655 -1.1032  1.6241
22973SOL     OW71810   1.480   0.462   5.574 -0.3478  0.9955 -0.0963
22973SOL    HW171811   1.472   0.367   5.560  0.6069  0.5479  1.9460
22973SOL    HW271812   1.392   0.491   5.594 -0.4645  0.2902  0.4547
22974SOL     OW71813   6.968   3.242   0.824 -0.0537 -0.9018 -0.1792
22974SOL    HW171814   6.892   3.282   0.783  0.6976 -2.3013 -3.1997
22974SOL    HW271815   6.931   3.178   0.885 -1.2117  0.8958  1.1031
22975SOL     OW71816   1.371   4.928   2.131  0.3871  0.3559  0.3593
22975SOL    HW171817   1.357   4.884   2.047 -1.1623  0.8172  0.3508
22975SOL    HW271818   1.324   5.011   2.123  0.1809  0.3836  1.6947
22976SOL     OW71819   0.808   2.999   7.034  0.0040 -0.2095 -0.8931
22976SOL    HW171820   0.724   2.955   7.021 -0.0487 -1.0701  1.8255
22976SOL    HW271821   0.791   3.090   7.008 -2.2301 -0.0367  0.8409
22977SOL     OW71822   0.905   2.059   0.784  0.2057  0.3780 -0.2847
22977SOL    HW171823   0.964   2.038   0.711  1.2008 -3.3347  1.3386
22977SOL    HW271824   0.950   2.127   0.833  0.5351  1.3871 -1.9123
22978SOL     OW71825   0.711   4.265   0.905  0.0497 -0.7425 -0.2581
22978SOL    HW171826   0.760   4.232   0.829  1.8321 -1.3052  1.0622
22978SOL    HW271827   0.760   4.233   0.981 -2.5914 -1.6216  1.2093
22979SOL     OW71828   2.559   9.089   7.689 -0.2127  0.0866 -0.8309
22979SOL    HW171829   2.480   9.058   7.644 -2.1370  2.3182  0.7932
22979SOL    HW271830   2.537   9.086   7.782  0.6779  2.9630 -0.4340
22980SOL     OW71831   2.441   2.844   7.852  0.5460  0.0723 -0.2669
22980SOL    HW171832   2.496   2.866   7.776  0.9160 -2.6492 -0.8690
22980SOL    HW271833   2.355   2.880   7.830  1.7161  3.5719  0.2573
22981SOL     OW71834   4.347   0.894   9.136  0.7008  0.1572 -0.2659
22981SOL    HW171835   4.403   0.819   9.150  0.4061 -0.1046 -0.4858
22981SOL    HW271836   4.380   0.936   9.057 -0.0512 -0.5919 -0.9977
22982SOL     OW71837   3.686   5.526   5.318  0.5428 -0.0851  0.6613
22982SOL    HW171838   3.624   5.471   5.272  1.3251  0.2350 -0.8334
22982SOL    HW271839   3.654   5.529   5.408 -0.4862 -1.5175  0.3667
22983SOL     OW71840   8.110   6.241   3.076  0.4483  1.0764  0.0796
22983SOL    HW171841   8.079   6.169   3.131  0.6076  0.3126 -0.8046
22983SOL    HW271842   8.180   6.282   3.126 -0.7478  1.7049  1.3319
22984SOL     OW71843   3.799   2.376   5.868  1.0040  0.6985  0.2478
22984SOL    HW171844   3.852   2.393   5.790  1.2341 -1.3539 -0.0875
22984SOL    HW271845   3.852   2.316   5.920 -0.7266 -0.9517  0.1811
22985SOL     OW71846   0.044   1.150   7.688  0.1505  0.3568  0.1751
22985SOL    HW171847   0.101   1.094   7.740 -0.1269 -0.5316 -0.4587
22985SOL    HW271848   0.027   1.225   7.745  0.3587 -0.2933  1.1279
22986SOL     OW71849   2.638   3.341   0.237  0.0172 -0.1489 -0.0082
22986SOL    HW171850   2.566   3.280   0.256 -0.5491  0.7470  0.7730
22986SOL    HW271851   2.631   3.357   0.143 -0.3094 -0.6878 -0.0798
22987SOL     OW71852   1.117   3.905   9.313  0.9194 -0.2286 -0.1217
22987SOL    HW171853   1.178   3.924   9.242 -0.4043 -0.6107 -1.4069
22987SOL    HW271854   1.041   3.959   9.294  0.3655 -0.6731  0.7711
22988SOL     OW71855   6.139   3.857   8.879  0.3636 -0.1865 -0.7741
22988SOL    HW171856   6.201   3.925   8.907  0.0091  0.4111 -1.3965
22988SOL    HW271857   6.058   3.876   8.926  0.0413  0.2774 -1.4978
22989SOL     OW71858   4.661   2.813   0.999 -0.1268 -0.1067 -0.0902
22989SOL    HW171859   4.738   2.771   1.037  0.1700  0.9789  0.5414
22989SOL    HW271860   4.693   2.857   0.921 -0.6874 -2.1076 -1.5273
22990SOL     OW71861   2.656   3.204   1.126  0.8442 -0.0269 -0.1149
22990SOL    HW171862   2.656   3.125   1.180 -1.1223  0.3720  0.5487
22990SOL    HW271863   2.566   3.235   1.128  0.7333  0.2561 -3.2979
22991SOL     OW71864   4.045   4.986   8.799  0.7795 -0.1808 -0.1611
22991SOL    HW171865   3.966   4.957   8.845 -1.1868  1.7729 -2.0459
22991SOL    HW271866   4.083   5.052   8.857 -0.5872  0.8651 -0.3882
22992SOL     OW71867   8.374   0.015   5.516 -0.9866  0.1804  0.1133
22992SOL    HW171868   8.328   0.091   5.550  0.7778  1.9821 -1.3208
22992SOL    HW271869   8.335  -0.000   5.429 -0.3160  0.4112 -0.2332
22993SOL     OW71870   4.773   5.086   7.020 -0.4194 -0.0095 -0.1324
22993SOL    HW171871   4.829   5.141   6.964 -1.7492 -0.7581 -2.3105
22993SOL    HW271872   4.805   4.997   7.006 -1.4830 -0.3274 -0.6035
22994SOL     OW71873   7.500   1.601   9.311  0.1361 -0.1170  0.4263
22994SOL    HW171874   7.591   1.594   9.340 -0.0922  0.0078  1.1907
22994SOL    HW271875   7.492   1.689   9.276  0.7465 -0.6787 -1.2430
22995SOL     OW71876   8.321   2.404   0.537 -0.4233 -0.2446 -0.0280
22995SOL    HW171877   8.284   2.320   0.560  2.1352 -0.8803  2.2579
22995SOL    HW271878   8.387   2.384   0.471  1.3766 -0.3914  1.7220
22996SOL     OW71879   3.874   0.087   5.354 -0.1469  0.0447  0.3525
22996SOL    HW171880   3.938   0.089   5.424 -0.7280 -1.8446  1.0037
22996SOL    HW271881   3.903   0.154   5.292  1.3888  0.4849  1.5037
22997SOL     OW71882   3.005   2.185   2.105  0.0007 -0.0214 -0.0294
22997SOL    HW171883   2.995   2.091   2.125  1.0040 -0.6449 -2.1791
22997SOL    HW271884   3.034   2.187   2.014  0.2426  2.3949  0.0456
22998SOL     OW71885   3.459   0.391   5.441 -0.0689  0.0283  0.2775
22998SOL    HW171886   3.527   0.411   5.505 -2.5139  1.0974  2.7709
22998SOL    HW271887   3.497   0.323   5.385  2.6711 -0.0620  2.0779
22999SOL     OW71888   4.146   6.404   9.446  0.0484  0.3037  0.6781
22999SOL    HW171889   4.065   6.362   9.417 -2.0326  2.0385  3.4405
22999SOL    HW271890   4.196   6.334   9.488 -0.9524 -0.4497  0.6612
23000SOL     OW71891   2.214   2.768   3.614 -0.8950  0.3342  1.2885
23000SOL    HW171892   2.239   2.793   3.703 -0.6124 -1.5395  1.7610
23000SOL    HW271893   2.285   2.713   3.583  0.1104  2.6716 -0.9861
23001SOL     OW71894   8.460   0.210   6.593  0.1433 -0.7553  0.1738
23001SOL    HW171895   8.481   0.231   6.502 -1.6875  0.3590 -0.0321
23001SOL    HW271896   8.527   0.255   6.644  0.2280 -0.0475 -0.5485
23002SOL     OW71897   0.818   1.634   8.819 -0.5713  0.0436 -0.6862
23002SOL    HW171898   0.789   1.640   8.910  1.7608 -0.0875  0.1269
23002SOL    HW271899   0.755   1.576   8.777 -0.9882 -0.8870  1.1579
23003SOL     OW71900   5.861   3.522   9.294 -0.0121  0.3854 -0.1590
23003SOL    HW171901   5.873   3.497   9.385 -1.2643 -0.6630 -0.2624
23003SOL    HW271902   5.945   3.503   9.253  0.1017 -0.5720  0.4762
23004SOL     OW71903   3.590   1.282   5.313 -0.1900 -0.5818 -0.6618
23004SOL    HW171904   3.620   1.285   5.222  0.6510 -3.3370 -0.5557
23004SOL    HW271905   3.497   1.259   5.307 -0.2824 -0.1822 -0.8129
23005SOL     OW71906   5.546   4.703   6.419  0.3793  1.0228 -0.0131
23005SOL    HW171907   5.625   4.662   6.386  0.2430  1.4370 -0.8977
23005SOL    HW271908   5.565   4.797   6.416 -0.5147  1.1910 -1.2984
23006SOL     OW71909   9.296   0.111   8.106 -0.1906  0.2090 -0.1068
23006SOL    HW171910   9.288   0.036   8.047 -2.1357 -0.8305  1.3960
23006SOL    HW271911   9.361   0.084   8.171 -1.5939 -0.6161  0.9964
23007SOL     OW71912   6.315   8.785   2.473  0.3853  0.1434  0.4467
23007SOL    HW171913   6.301   8.880   2.476  0.3893  0.1591  0.0407
23007SOL    HW271914   6.322   8.765   2.380 -0.8585 -0.4379  0.4562
23008SOL     OW71915   1.223   3.693   6.544  0.3176 -0.0272 -0.2934
23008SOL    HW171916   1.221   3.627   6.614  3.2155  0.8576  0.7904
23008SOL    HW271917   1.146   3.747   6.560  0.2882 -0.5374  1.5280
23009SOL     OW71918   6.394   0.927   8.993 -0.7726 -0.5396 -0.2482
23009SOL    HW171919   6.466   0.939   8.932  0.5492 -1.4532  1.0603
23009SOL    HW271920   6.371   1.015   9.021 -0.4301 -0.2106 -0.9796
23010SOL     OW71921   3.053   2.768   4.153  0.2375  0.2052 -0.4003
23010SOL    HW171922   3.030   2.794   4.242  1.2484  1.1939 -0.4092
23010SOL    HW271923   2.990   2.815   4.098 -0.5682 -0.6262 -0.2106
23011SOL     OW71924   2.298   0.279   5.987 -0.1651  0.0744 -0.0979
23011SOL    HW171925   2.207   0.306   5.999  0.0156  0.1495  1.2820
23011SOL    HW271926   2.333   0.274   6.076  1.2839  0.4093 -0.6239
23012SOL     OW71927   0.238   8.049   2.750  0.3793  0.2647  0.1056
23012SOL    HW171928   0.190   7.974   2.715 -1.6803  1.1260  0.9657
23012SOL    HW271929   0.326   8.014   2.767 -0.3998 -1.8489  0.1206
23013SOL     OW71930   7.894   9.556   0.532  0.1654  0.5624  0.0580
23013SOL    HW171931   7.966   9.583   0.589  1.2222  1.1498 -1.4854
23013SOL    HW271932   7.936   9.540   0.447 -1.0884 -1.9369 -0.1558
23014SOL     OW71933   8.881   0.126   4.001  0.0761 -0.2883  0.2061
23014SOL    HW171934   8.969   0.094   3.978  0.6033  0.2941  1.3490
23014SOL    HW271935   8.823   0.079   3.941  1.2006 -0.3487 -0.8895
23015SOL     OW71936   6.644   6.300   3.023  0.9656 -0.7718 -0.1754
23015SOL    HW171937   6.674   6.377   3.070 -0.8522  0.1864 -0.4905
23015SOL    HW271938   6.652   6.229   3.086  0.0719  0.1972  1.0827
23016SOL     OW71939   9.458   2.257   8.698  0.4381 -0.2302  0.2901
23016SOL    HW171940   9.540   2.264   8.747 -0.2873  3.1432  1.3092
23016SOL    HW271941   9.409   2.189   8.743  1.1002  0.5458  2.3115
23017SOL     OW71942   9.088   3.072   8.527 -0.4385 -0.4339 -0.0141
23017SOL    HW171943   9.149   3.061   8.599  0.5624 -0.8504 -0.9039
23017SOL    HW271944   9.128   3.026   8.454 -2.1530 -1.3177 -0.4468
23018SOL     OW71945   1.448   8.297   0.306  0.2554  0.0571  0.6380
23018SOL    HW171946   1.483   8.306   0.217  1.2071 -1.8885  0.7509
23018SOL    HW271947   1.354   8.314   0.297 -0.0489 -2.0419 -1.1990
23019SOL     OW71948   3.163   8.473   2.096  0.2119 -0.3790 -0.1275
23019SOL    HW171949   3.215   8.398   2.124 -1.4622 -1.1407  1.1423
23019SOL    HW271950   3.160   8.531   2.172 -0.5987 -0.2598 -0.2317
23020SOL     OW71951   4.947   8.961   9.489  0.4510  0.1786  0.2595
23020SOL    HW171952   4.855   8.978   9.474  0.9540  2.4511 -0.6487
23020SOL    HW271953   4.987   8.961   9.402  1.3131 -0.9347  0.6175
23021SOL     OW71954   7.440   6.500   1.478 -0.2134  0.1111  0.1852
23021SOL    HW171955   7.478   6.442   1.544  1.4799 -1.2799 -1.8858
23021SOL    HW271956   7.509   6.564   1.460 -0.6810  0.5085 -0.1994
23022SOL     OW71957   7.748   4.539   3.231 -0.5458 -0.1062 -0.3011
23022SOL    HW171958   7.683   4.570   3.293  1.7548  1.4419  1.5007
23022SOL    HW271959   7.789   4.464   3.273 -1.7854 -1.7499 -1.8821
23023SOL     OW71960   8.760   5.884   9.467  0.1759  0.1994  0.3274
23023SOL    HW171961   8.699   5.933   9.523  1.8229  0.6848  1.7613
23023SOL    HW271962   8.771   5.940   9.390 -0.0267  0.8257  0.7445
23024SOL     OW71963   3.328   1.255   6.122 -0.3283 -0.0096 -0.0600
23024SOL    HW171964   3.331   1.234   6.215 -1.7359  1.5406  0.3952
23024SOL    HW271965   3.360   1.345   6.117 -2.0150  0.5966 -0.7866
23025SOL     OW71966   5.062   1.156   6.951 -0.3537 -0.0449 -0.5041
23025SOL    HW171967   5.085   1.238   6.907  1.2471 -0.1910  0.0262
23025SOL    HW271968   5.013   1.183   7.029 -0.8582  0.3285 -0.9392
23026SOL     OW71969   9.104   3.211   4.170 -0.0166  0.3999 -0.0439
23026SOL    HW171970   9.081   3.300   4.141 -1.7355  0.1112  0.3185
23026SOL    HW271971   9.020   3.166   4.176  0.8659 -1.3958 -0.6227
23027SOL     OW71972   7.771   8.994   4.567  0.3030 -0.7868 -0.4379
23027SOL    HW171973   7.829   9.059   4.528 -1.1832  2.8865  2.8309
23027SOL    HW271974   7.827   8.942   4.624  0.7603  2.1414  2.0046
23028SOL     OW71975   8.052   0.242   4.881 -0.4897 -0.0520  0.4421
23028SOL    HW171976   7.995   0.223   4.955 -0.1724 -0.5664  0.5556
23028SOL    HW271977   8.121   0.299   4.916  0.5546 -1.5577  0.9209
23029SOL     OW71978   5.553   4.815   3.174 -0.1502 -0.3307  0.0903
23029SOL    HW171979   5.578   4.754   3.244 -1.2893 -1.4446 -0.4512
23029SOL    HW271980   5.626   4.810   3.111 -1.4097 -3.3142 -1.3188
23030SOL     OW71981   6.359   2.673   1.503  0.2510  0.0624  0.6763
23030SOL    HW171982   6.417   2.598   1.489 -0.8809 -1.0061  1.4902
23030SOL    HW271983   6.359   2.686   1.598  0.0199  0.7547  0.5878
23031SOL     OW71984   0.482   2.047   2.483  0.3561  0.5488 -0.3069
23031SOL    HW171985   0.517   2.033   2.571  0.3868 -1.1353 -0.5485
23031SOL    HW271986   0.397   2.089   2.497  1.0132  1.6715  0.4358
23032SOL     OW71987   1.528   1.364   8.042 -0.4639  0.3395  0.6053
23032SOL    HW171988   1.552   1.401   7.957 -2.6628  0.4320 -0.0466
23032SOL    HW271989   1.555   1.430   8.106  0.9713  0.3920 -0.0254
23033SOL     OW71990   5.017   9.509   4.159 -0.1761  0.2713 -0.1485
23033SOL    HW171991   4.990   9.600   4.164  1.1210  0.6358  0.5788
23033SOL    HW271992   5.050   9.488   4.246  0.4893 -0.5833 -0.5872
23034SOL     OW71993   6.938   2.995   2.824 -0.3365  0.2812  0.1275
23034SOL    HW171994   6.868   2.985   2.889 -0.0110 -0.7238  0.3384
23034SOL    HW271995   6.915   2.934   2.754  1.7080 -2.1861  1.4461
23035SOL     OW71996   9.516   7.571   5.655 -0.1781  0.4754 -0.2222
23035SOL    HW171997   9.477   7.574   5.567  0.7534  0.5995 -0.6450
23035SOL    HW271998   9.464   7.505   5.701  0.0610 -0.4927 -1.2594
23036SOL     OW71999   1.920   4.241   3.485 -0.4665 -0.2231  0.0682
23036SOL    HW172000   1.878   4.280   3.409 -0.4675  0.7518  0.5615
23036SOL    HW272001   1.993   4.300   3.505 -0.2500 -0.6656  0.6074
23037SOL     OW72002   5.572   7.601   4.044  0.7517  0.5298 -0.2757
23037SOL    HW172003   5.614   7.668   3.991  1.0286 -0.4737 -1.3677
23037SOL    HW272004   5.644   7.555   4.088  0.5536  1.0474  0.6199
23038SOL     OW72005   9.577   4.998   6.612  0.1077  0.1652 -0.1219
23038SOL    HW172006   9.597   4.905   6.603 -0.2655  0.1798 -1.2590
23038SOL    HW272007   9.548   5.025   6.525 -1.2963  0.9959  0.5718
23039SOL     OW72008   9.297   7.404   9.026 -0.5572 -0.2421 -0.1754
23039SOL    HW172009   9.202   7.391   9.033 -0.3637 -1.1429  1.2512
23039SOL    HW272010   9.330   7.384   9.113  1.0257 -0.5369 -0.8127
23040SOL     OW72011   4.370   1.323   8.738  0.1491  0.2376 -0.3076
23040SOL    HW172012   4.296   1.332   8.678  0.4354 -0.6988 -0.8041
23040SOL    HW272013   4.333   1.344   8.824 -0.5380  0.4170 -0.6422
23041SOL     OW72014   9.379   2.778   0.532 -0.1916 -0.3873  0.6570
23041SOL    HW172015   9.309   2.828   0.573 -0.7135  0.4895 -1.1991
23041SOL    HW272016   9.433   2.748   0.605 -1.0069  1.1666  1.9576
23042SOL     OW72017   2.872   5.307   7.543  0.3471 -0.0436 -0.0110
23042SOL    HW172018   2.783   5.273   7.555  0.1308  0.1429 -0.9918
23042SOL    HW272019   2.874   5.338   7.453  0.8134  1.7603  0.5783
23043SOL     OW72020   6.540   2.971   5.047  0.4812  0.3062 -0.0381
23043SOL    HW172021   6.532   2.907   4.976  1.6685 -0.7026  0.6718
23043SOL    HW272022   6.509   2.924   5.125  1.3354  0.5925  0.4897
23044SOL     OW72023   2.809   4.972   5.236 -0.1529 -0.1978 -0.2166
23044SOL    HW172024   2.780   5.021   5.313  1.1049 -0.2249  0.2996
23044SOL    HW272025   2.786   4.882   5.255 -0.0277 -0.1757  0.0485
23045SOL     OW72026   0.406   2.113   7.997 -0.4493 -0.2855  0.0107
23045SOL    HW172027   0.386   2.045   7.932  0.4828  1.8031 -2.6357
23045SOL    HW272028   0.458   2.068   8.063 -1.2166 -2.4854 -0.7800
23046SOL     OW72029   6.613   2.222   4.648 -0.0395  0.0039 -0.0899
23046SOL    HW172030   6.676   2.152   4.665  1.3709  1.1404 -0.5086
23046SOL    HW272031   6.542   2.205   4.710  0.9102 -0.9967  0.7714
23047SOL     OW72032   5.133   6.076   5.831  0.7708 -0.3636  0.3877
23047SOL    HW172033   5.196   6.027   5.778  0.4611  0.1960 -0.5356
23047SOL    HW272034   5.131   6.031   5.915  0.8369 -1.6557 -0.2797
23048SOL     OW72035   2.975   0.260   7.742  0.1375 -0.2074  0.0111
23048SOL    HW172036   2.910   0.230   7.805 -0.6290  0.4573 -0.4474
23048SOL    HW272037   3.055   0.213   7.766 -0.3490 -0.5766  0.9585
23049SOL     OW72038   7.400   5.371   3.571  0.3738 -0.3744  0.2042
23049SOL    HW172039   7.489   5.342   3.551 -0.1547 -0.4691 -2.3431
23049SOL    HW272040   7.344   5.315   3.518 -1.4663 -1.9952  3.5644
23050SOL     OW72041   8.008   3.485   1.100  0.2727  0.5460  0.0150
23050SOL    HW172042   8.039   3.541   1.029  0.7022 -1.1068 -1.1541
23050SOL    HW272043   7.913   3.487   1.093  0.3225 -0.2221 -1.1417
23051SOL     OW72044   0.820   7.288   3.328 -0.3244  0.0242 -0.0970
23051SOL    HW172045   0.774   7.359   3.372  0.1859  0.0685  0.3730
23051SOL    HW272046   0.913   7.308   3.339 -0.1698 -0.7404  0.0975
23052SOL     OW72047   6.475   4.206   0.073 -0.2620  0.1622 -0.2642
23052SOL    HW172048   6.396   4.247   0.039 -0.3922 -1.0135 -1.4629
23052SOL    HW272049   6.530   4.193  -0.005 -0.0133 -1.4195  0.1468
23053SOL     OW72050   5.542   3.218   5.811  0.4314 -0.0384 -0.1391
23053SOL    HW172051   5.572   3.216   5.902  1.2837 -1.0706 -0.4159
23053SOL    HW272052   5.545   3.311   5.786 -2.5087  0.6688  1.7050
23054SOL     OW72053   4.763   6.188   2.897 -0.1378 -0.5447  0.0143
23054SOL    HW172054   4.705   6.188   2.821 -1.8582  2.2657  1.1899
23054SOL    HW272055   4.834   6.247   2.873  0.4856 -1.3450 -0.1590
23055SOL     OW72056   2.169   9.290   9.095  0.3048 -0.0995  0.1302
23055SOL    HW172057   2.081   9.327   9.101 -0.6505 -1.7835 -2.1892
23055SOL    HW272058   2.227   9.365   9.082 -0.8601  0.9725  1.0195
23056SOL     OW72059   6.962   2.982   3.463 -0.2347  0.0586 -0.1542
23056SOL    HW172060   6.914   2.900   3.470  1.0985 -0.6187  1.8270
23056SOL    HW272061   6.990   2.986   3.371 -1.5060 -0.9643 -0.6216
23057SOL     OW72062   5.498   2.900   3.741  0.1514  0.8050 -0.0244
23057SOL    HW172063   5.498   2.986   3.699 -0.2773  1.1119  0.5958
23057SOL    HW272064   5.522   2.917   3.832  1.4023  0.1063 -0.1971
23058SOL     OW72065   6.460   4.684   7.014 -0.0274  0.2652  0.6193
23058SOL    HW172066   6.369   4.695   7.044 -0.5724  0.6924 -1.0921
23058SOL    HW272067   6.495   4.614   7.069 -1.1486  0.5946  1.8107
23059SOL     OW72068   0.150   0.831   1.457  0.0481 -0.1223  0.2083
23059SOL    HW172069   0.112   0.914   1.486 -0.0848  0.4577 -1.5429
23059SOL    HW272070   0.234   0.826   1.503 -0.4021  0.4513  1.1312
23060SOL     OW72071   5.103   6.119   2.790  0.6983  0.1491  0.4120
23060SOL    HW172072   5.127   6.196   2.841  2.9513 -0.9413  1.1137
23060SOL    HW272073   5.158   6.124   2.711 -0.7016  0.3425 -0.5962
23061SOL     OW72074   4.801   4.267   7.550  0.3199 -0.3776 -0.9749
23061SOL    HW172075   4.828   4.175   7.550  0.9024 -0.2086 -1.0220
23061SOL    HW272076   4.705   4.264   7.559  0.4803 -0.9560  0.9867
23062SOL     OW72077   2.317   4.091   9.141  0.4658 -0.3359 -0.1033
23062SOL    HW172078   2.380   4.064   9.074  0.6202  2.3418 -1.1433
23062SOL    HW272079   2.350   4.175   9.172 -1.3393 -0.0205  1.0830
23063SOL     OW72080   7.469   8.827   6.135  0.0274  0.2502 -0.2797
23063SOL    HW172081   7.463   8.750   6.079  1.3850 -0.1461  0.0787
23063SOL    HW272082   7.562   8.839   6.149 -0.2367  0.9862  1.0111
23064SOL     OW72083   0.196   9.217   7.184 -0.4182 -0.6868  0.3200
23064SOL    HW172084   0.189   9.311   7.169  0.0408 -0.5968  0.6327
23064SOL    HW272085   0.267   9.208   7.248 -0.4585 -1.2446  0.2956
23065SOL     OW72086   4.443   1.211   3.692 -0.2036  0.2129 -0.0577
23065SOL    HW172087   4.456   1.239   3.602 -0.0946  0.7512  0.1180
23065SOL    HW272088   4.348   1.219   3.705 -0.2305  0.0496 -0.1494
23066SOL     OW72089   6.089   5.914   3.121 -0.3488  0.4030 -0.6142
23066SOL    HW172090   6.083   5.907   3.217 -1.0410  0.6512 -0.6382
23066SOL    HW272091   6.149   5.843   3.096  1.1934  1.3753  0.1549
23067SOL     OW72092   1.051   8.627   5.373  0.0982  0.2478 -0.4734
23067SOL    HW172093   1.079   8.699   5.317 -0.0372 -0.2037 -1.1262
23067SOL    HW272094   0.980   8.585   5.326  0.6508 -0.7574 -0.4431
23068SOL     OW72095   8.730   1.382   3.755  0.0263 -0.1470  0.2781
23068SOL    HW172096   8.758   1.389   3.664  1.5249  0.8755  0.7816
23068SOL    HW272097   8.681   1.462   3.771 -0.3997 -0.4162  0.3138
23069SOL     OW72098   6.069   5.183   3.115 -0.7365  0.2552 -0.3499
23069SOL    HW172099   6.126   5.247   3.159 -0.9641  1.9550 -2.3619
23069SOL    HW272100   5.992   5.176   3.172  0.0741  0.3838  0.7957
23070SOL     OW72101   1.786   6.240   4.277 -0.2209 -0.0229 -0.1194
23070SOL    HW172102   1.759   6.273   4.191  2.3644  1.2902 -0.5400
23070SOL    HW272103   1.762   6.148   4.276  1.0409 -0.4430 -2.9140
23071SOL     OW72104   1.542   0.148   0.934  0.0337  0.0361 -0.3895
23071SOL    HW172105   1.574   0.103   0.856  0.0828 -0.4753 -0.0742
23071SOL    HW272106   1.523   0.079   0.996 -1.3734  0.3385 -0.4456
23072SOL     OW72107   1.918   4.841   3.604  0.0919 -0.0178 -0.3122
23072SOL    HW172108   2.002   4.835   3.558  0.5154  0.1542  0.4175
23072SOL    HW272109   1.916   4.931   3.638  0.8888 -0.8097  2.0158
23073SOL     OW72110   4.220   8.449   7.391 -0.7051  0.3159 -0.0202
23073SOL    HW172111   4.130   8.436   7.361 -0.5843  0.3126 -0.3886
23073SOL    HW272112   4.238   8.541   7.372 -1.1810  0.7712  1.5623
23074SOL     OW72113   7.333   5.364   5.427  0.4155 -0.1507  0.1684
23074SOL    HW172114   7.368   5.311   5.355 -0.9205 -0.9830  0.1092
23074SOL    HW272115   7.386   5.338   5.503  1.5559  0.4313 -0.3911
23075SOL     OW72116   2.398   2.114   3.096 -0.4567 -0.2837  0.0992
23075SOL    HW172117   2.335   2.187   3.097 -2.3629 -1.8386  1.6139
23075SOL    HW272118   2.395   2.081   3.007 -0.7616  0.5015 -0.1930
23076SOL     OW72119   7.312   2.207   6.446  0.1640  0.0109 -0.4565
23076SOL    HW172120   7.277   2.269   6.383 -0.0247  1.0803  0.6455
23076SOL    HW272121   7.243   2.142   6.458  0.1926 -0.1871 -1.2983
23077SOL     OW72122   8.311   3.755   6.728 -0.6024  0.7929 -0.5640
23077SOL    HW172123   8.236   3.734   6.673 -0.6556 -0.3221 -0.0909
23077SOL    HW272124   8.386   3.724   6.678 -0.7136 -1.0300  0.3302
23078SOL     OW72125   2.364   3.128   9.494  0.2563 -0.2641  0.2970
23078SOL    HW172126   2.442   3.073   9.499  0.2924 -0.2984 -0.5006
23078SOL    HW272127   2.396   3.212   9.460 -0.4362 -1.1459 -2.7816
23079SOL     OW72128   0.462   8.478   7.566 -0.2285 -0.5291 -0.6932
23079SOL    HW172129   0.436   8.437   7.648  2.4646  1.4414  1.3537
23079SOL    HW272130   0.550   8.445   7.549  0.0455  0.6003 -1.6526
23080SOL     OW72131   0.829   6.707   4.778  0.5915 -0.3619  0.1174
23080SOL    HW172132   0.909   6.719   4.829  1.2073 -0.0826 -0.8983
23080SOL    HW272133   0.763   6.760   4.824  0.8331 -1.0097  1.2615
23081SOL     OW72134   0.292   7.107   3.903 -0.3539 -0.2230  0.0299
23081SOL    HW172135   0.214   7.062   3.936 -0.4058 -0.9437 -1.0035
23081SOL    HW272136   0.272   7.200   3.914 -1.4982 -0.3871 -0.4751
23082SOL     OW72137   0.281   2.367   8.976  0.3632  0.2370 -0.6098
23082SOL    HW172138   0.346   2.322   8.921  0.2491  0.4939 -0.9572
23082SOL    HW272139   0.334   2.420   9.037  0.4838  0.2940 -0.7633
23083SOL     OW72140   9.441   8.173   7.172  0.0181 -0.0299 -0.0856
23083SOL    HW172141   9.516   8.129   7.133 -0.1560 -0.7094  0.3271
23083SOL    HW272142   9.373   8.168   7.104  0.2652  0.3716 -0.3659
23084SOL     OW72143   0.489   2.086   0.143  0.1181  0.4870 -0.2992
23084SOL    HW172144   0.430   2.013   0.159  0.9010 -0.0527  0.1724
23084SOL    HW272145   0.560   2.049   0.090  1.1384  0.5988  0.9441
23085SOL     OW72146   6.615   1.118   8.465  0.1128  0.3304 -0.1350
23085SOL    HW172147   6.604   1.206   8.429 -0.5461  0.7509  1.0012
23085SOL    HW272148   6.555   1.116   8.540 -1.7043 -1.8898 -1.5004
23086SOL     OW72149   5.792   4.562   7.630 -0.1310  0.1856 -0.1887
23086SOL    HW172150   5.794   4.485   7.573 -0.3962  0.7397 -0.9633
23086SOL    HW272151   5.786   4.526   7.718  0.5671 -0.6926 -0.4831
23087SOL     OW72152   0.890   1.976   2.572 -0.0468  0.6669  0.4497
23087SOL    HW172153   0.890   2.071   2.572  0.4328  0.6716  1.0527
23087SOL    HW272154   0.803   1.952   2.605 -0.2052  0.8962  0.1938
23088SOL     OW72155   5.297   3.561   8.612  0.1006 -0.0100 -0.9448
23088SOL    HW172156   5.375   3.505   8.612  0.6749  0.7463  0.4821
23088SOL    HW272157   5.331   3.648   8.631 -0.9889  0.5132 -1.3604
23089SOL     OW72158   6.717   0.287   0.530  0.2164 -0.0330  0.2142
23089SOL    HW172159   6.702   0.241   0.447  0.9627  1.3386 -0.7116
23089SOL    HW272160   6.761   0.222   0.586  0.9445 -0.5590 -0.9393
23090SOL     OW72161   3.885   0.870   1.284 -0.1328 -0.0596  0.3610
23090SOL    HW172162   3.937   0.950   1.297 -1.2600  0.6622  0.5107
23090SOL    HW272163   3.835   0.861   1.365 -0.0079 -0.9415  0.3477
23091SOL     OW72164   7.253   6.524   6.455  0.4945  0.3658 -0.4261
23091SOL    HW172165   7.185   6.531   6.522 -0.7184  2.2036 -1.7405
23091SOL    HW272166   7.283   6.433   6.460 -1.9926 -0.4915  0.2995
23092SOL     OW72167   7.239   8.957   8.295  0.3625 -1.0000 -0.5034
23092SOL    HW172168   7.231   8.887   8.359  0.0963  0.0285  0.6257
23092SOL    HW272169   7.273   9.031   8.344 -2.2593  0.6072 -0.9244
23093SOL     OW72170   1.440   8.507   6.767 -0.5559  0.3857 -0.0770
23093SOL    HW172171   1.464   8.510   6.859 -0.1460 -2.9204  0.0430
23093SOL    HW272172   1.512   8.459   6.725 -1.2539  0.8667 -1.9222
23094SOL     OW72173   3.419   3.551   1.263  0.5516 -0.3942 -0.8408
23094SOL    HW172174   3.384   3.534   1.351  0.3367  1.3632 -0.5369
23094SOL    HW272175   3.358   3.509   1.204 -0.1598 -0.3028 -0.1865
23095SOL     OW72176   7.686   3.944   2.287  0.1124  0.1957 -0.0016
23095SOL    HW172177   7.623   4.014   2.302  0.5696  0.5802  0.1355
23095SOL    HW272178   7.660   3.875   2.349 -0.1676  0.3536  0.0587
23096SOL     OW72179   4.434   2.935   0.403 -0.4788  0.2168 -0.4349
23096SOL    HW172180   4.447   2.972   0.316 -0.1373  1.0151 -0.0597
23096SOL    HW272181   4.412   3.011   0.458  0.0931 -0.1492  0.3202
23097SOL     OW72182   1.083   4.199   0.615  0.2079  0.4857 -0.4565
23097SOL    HW172183   1.054   4.155   0.535 -0.2681 -0.0894  0.0206
23097SOL    HW272184   1.005   4.203   0.669  0.7579 -0.0877  0.4046
23098SOL     OW72185   2.807   6.544   1.531 -0.0553  0.0894 -0.0832
23098SOL    HW172186   2.791   6.636   1.511  0.3911  0.0634 -0.5827
23098SOL    HW272187   2.748   6.495   1.474 -0.0923  0.0578 -0.0184
23099SOL     OW72188   3.389   4.486   7.646  0.0153 -0.4999 -0.0471
23099SOL    HW172189   3.443   4.451   7.717  0.2281  0.2131  0.1529
23099SOL    HW272190   3.323   4.539   7.691 -1.9622 -2.6811 -0.1416
23100SOL     OW72191   0.582   4.685   3.462  0.3400 -0.5003 -0.5055
23100SOL    HW172192   0.628   4.612   3.502  0.5329  1.0488  2.3486
23100SOL    HW272193   0.648   4.730   3.410  0.9763 -0.6636  0.1571
23101SOL     OW72194   7.606   3.933   2.577  0.4798  0.0935 -0.3206
23101SOL    HW172195   7.544   3.862   2.590  0.3744  0.0776 -0.9093
23101SOL    HW272196   7.551   4.011   2.567  0.5906  0.2410  0.1709
23102SOL     OW72197   0.573   9.157   6.480  0.2471 -0.2748 -0.2043
23102SOL    HW172198   0.551   9.064   6.486 -0.3406 -0.0878  0.7133
23102SOL    HW272199   0.580   9.186   6.571  0.8734  0.4765 -0.4846
23103SOL     OW72200   5.724   1.091   4.712  0.5581 -0.0507 -0.0307
23103SOL    HW172201   5.698   1.007   4.673  2.9262 -0.6847 -0.3846
23103SOL    HW272202   5.708   1.079   4.805 -0.5269 -0.3137 -0.2265
23104SOL     OW72203   9.307   0.915   7.153  0.2319  0.2276  0.3102
23104SOL    HW172204   9.277   0.827   7.131 -0.9994  0.4445  1.0138
23104SOL    HW272205   9.294   0.921   7.247  0.6358  1.0483  0.3162
23105SOL     OW72206   7.072   1.743   4.483  0.2241 -0.8394 -0.3977
23105SOL    HW172207   7.116   1.668   4.442  1.5078  0.1751 -0.9733
23105SOL    HW272208   7.053   1.802   4.409  1.1689  0.3351  0.2684
23106SOL     OW72209   0.236   5.984   5.555  0.7429  0.1644  0.1086
23106SOL    HW172210   0.318   6.034   5.552  1.7305 -1.3222  1.1343
23106SOL    HW272211   0.208   5.989   5.646  0.4174 -0.4655  0.0504
23107SOL     OW72212   3.081   5.124   2.480 -0.6492 -0.1539  0.0222
23107SOL    HW172213   3.174   5.145   2.493 -0.2870 -1.5277 -0.2087
23107SOL    HW272214   3.060   5.162   2.395 -0.6009  1.0976  0.5540
23108SOL     OW72215   1.804   0.825   6.237  0.3166 -0.1555 -0.2895
23108SOL    HW172216   1.894   0.800   6.219  0.3205  0.7168 -1.6370
23108SOL    HW272217   1.811   0.909   6.282  0.1903 -0.2189 -0.1518
23109SOL     OW72218   8.266   3.983   0.122 -0.1703  0.5727  0.5060
23109SOL    HW172219   8.296   4.040   0.051 -0.6786  1.1983  0.7729
23109SOL    HW272220   8.293   4.029   0.202  0.1112  0.0376  0.7223
23110SOL     OW72221   8.443   8.489   4.201  0.1486 -0.2011  0.5680
23110SOL    HW172222   8.396   8.566   4.171  1.2194  0.0605 -0.4891
23110SOL    HW272223   8.381   8.417   4.188  0.2908 -0.0028 -1.6999
23111SOL     OW72224   5.012   7.007   7.633  0.1992  0.6219  0.2565
23111SOL    HW172225   5.086   7.014   7.572 -0.2127 -0.8904 -0.4685
23111SOL    HW272226   4.997   7.097   7.663  2.4023  0.9488  0.5412
23112SOL     OW72227   1.684   4.245   6.411  0.0563  0.1788 -0.1521
23112SOL    HW172228   1.683   4.178   6.343 -2.2465  1.9565 -2.0323
23112SOL    HW272229   1.656   4.325   6.366 -1.8541  1.4077  2.9228
23113SOL     OW72230   6.133   6.271   6.547 -0.2148  0.5199 -0.7617
23113SOL    HW172231   6.067   6.323   6.594 -1.1194 -1.4676  0.3312
23113SOL    HW272232   6.199   6.334   6.520 -0.0248  1.9670  2.5642
23114SOL     OW72233   6.831   5.044   0.839  0.2197 -0.6358 -0.5998
23114SOL    HW172234   6.807   5.096   0.762  0.4052  1.8043  0.8816
23114SOL    HW272235   6.747   5.015   0.875  0.1327 -1.7920 -1.6797
23115SOL     OW72236   0.827   6.743   8.832  0.4628  0.0768  0.3607
23115SOL    HW172237   0.748   6.703   8.795  0.9579 -0.8094  0.2504
23115SOL    HW272238   0.894   6.676   8.825  0.7674  0.1284  2.1881
23116SOL     OW72239   8.076   9.178   4.802 -0.0700 -0.2855 -0.6048
23116SOL    HW172240   8.043   9.267   4.790 -0.1039 -0.2059  0.0512
23116SOL    HW272241   8.008   9.133   4.852  0.0149 -0.6429 -0.7986
23117SOL     OW72242   4.348   8.641   7.005 -0.7162  0.0830  0.0098
23117SOL    HW172243   4.391   8.578   7.062 -0.9794 -1.2176 -1.1539
23117SOL    HW272244   4.303   8.702   7.064 -1.8759 -1.8201  1.1946
23118SOL     OW72245   7.837   1.966   1.141 -0.2455  0.3305  0.1862
23118SOL    HW172246   7.824   2.014   1.059 -1.5411  2.1810  1.4016
23118SOL    HW272247   7.752   1.924   1.157  0.8672 -2.6030 -0.8907
23119SOL     OW72248   4.743   2.820   6.025 -0.3164 -0.1565 -0.3206
23119SOL    HW172249   4.682   2.893   6.038 -1.9812 -1.4913 -0.2432
23119SOL    HW272250   4.753   2.781   6.111  1.3568  0.5307 -0.1715
23120SOL     OW72251   8.306   7.811   2.705  0.7108  0.0417 -0.1975
23120SOL    HW172252   8.320   7.816   2.611  0.9574  1.1602 -0.1125
23120SOL    HW272253   8.346   7.891   2.740 -0.1801  0.0912  0.7545
23121SOL     OW72254   8.948   1.998   2.372 -0.3427  0.2085 -0.2984
23121SOL    HW172255   9.015   1.963   2.430  0.6978  2.0483 -0.3521
23121SOL    HW272256   8.943   1.934   2.300  0.3414 -0.6437  0.3916
23122SOL     OW72257   6.497   6.647   6.746  0.4665  0.1299  0.1637
23122SOL    HW172258   6.502   6.677   6.655  0.3511 -1.8034 -0.5160
23122SOL    HW272259   6.442   6.712   6.790  1.3728  1.6563 -0.8734
23123SOL     OW72260   9.131   5.411   4.733 -0.1378 -0.2344 -0.3963
23123SOL    HW172261   9.194   5.340   4.723 -1.1750 -1.0307 -1.5096
23123SOL    HW272262   9.154   5.451   4.818  0.8376 -1.4943 -0.0279
23124SOL     OW72263   1.255   7.368   3.871  0.4857 -0.4178 -0.2753
23124SOL    HW172264   1.273   7.335   3.959  0.4595 -1.3777 -0.6132
23124SOL    HW272265   1.164   7.395   3.873  0.2244 -1.2677 -0.2409
23125SOL     OW72266   5.249   7.478   6.642  0.1901 -0.0892 -0.0818
23125SOL    HW172267   5.289   7.443   6.722  0.4179 -0.7207 -0.4673
23125SOL    HW272268   5.290   7.565   6.632 -1.7106  1.1378  1.8720
23126SOL     OW72269   9.248   1.238   4.260  0.4147 -0.0494 -0.1801
23126SOL    HW172270   9.310   1.165   4.252  0.1637 -0.3393  0.4871
23126SOL    HW272271   9.293   1.301   4.315  0.0410 -0.3533  0.4855
23127SOL     OW72272   3.857   7.584   2.129 -0.0913  0.0973  0.2915
23127SOL    HW172273   3.903   7.562   2.047 -0.7442  2.2573 -0.7245
23127SOL    HW272274   3.774   7.536   2.123  0.4943 -0.9448  0.4086
23128SOL     OW72275   2.214   6.530   3.818 -0.0842 -0.2666  0.0156
23128SOL    HW172276   2.125   6.498   3.833 -1.2031  1.3186 -2.5385
23128SOL    HW272277   2.256   6.461   3.767 -0.7332  0.0335 -0.9530
23129SOL     OW72278   1.428   7.506   1.035  0.2321 -0.0280 -0.2574
23129SOL    HW172279   1.395   7.571   1.097 -0.3460  0.1564 -0.7474
23129SOL    HW272280   1.511   7.541   1.004 -0.3516  0.7732 -0.9581
23130SOL     OW72281   8.951   5.670   7.884 -0.3431  0.0611 -0.3483
23130SOL    HW172282   9.044   5.686   7.899 -0.3440 -0.3393  0.0964
23130SOL    HW272283   8.932   5.715   7.801  0.3079 -0.1047 -0.5913
23131SOL     OW72284   1.175   8.645   6.654  0.1860  0.2377  0.2499
23131SOL    HW172285   1.128   8.562   6.651  0.4847  0.0746 -0.0959
23131SOL    HW272286   1.258   8.624   6.698 -0.1869  0.5890  1.1427
23132SOL     OW72287   4.081   7.902   9.381  0.0152 -0.1351 -0.7193
23132SOL    HW172288   4.167   7.870   9.351 -0.0792 -0.3596 -0.7499
23132SOL    HW272289   4.018   7.839   9.345 -0.1310 -0.1843 -0.3789
23133SOL     OW72290   3.946   0.082   7.680  0.4703  0.9965  0.4066
23133SOL    HW172291   3.920   0.165   7.640 -0.7310  0.4352 -0.0285
23133SOL    HW272292   3.964   0.105   7.772 -1.9285  1.4119  0.8388
23134SOL     OW72293   0.063   2.142   6.692 -0.4539  0.0912  0.2059
23134SOL    HW172294   0.012   2.219   6.717  0.1175  0.1681  1.1691
23134SOL    HW272295   0.140   2.177   6.647 -0.7605  0.0172 -0.3919
23135SOL     OW72296   5.967   7.553   7.141  0.3537  0.0957 -0.6563
23135SOL    HW172297   6.005   7.467   7.156 -1.0863 -0.4231  0.2338
23135SOL    HW272298   6.012   7.611   7.203 -0.4659 -0.5754  0.6181
23136SOL     OW72299   4.836   5.583   3.973 -0.0414  0.3838 -0.1471
23136SOL    HW172300   4.863   5.509   4.026 -0.2735 -0.2903 -0.9425
23136SOL    HW272301   4.824   5.655   4.035 -1.1810 -0.6139  0.8282
23137SOL     OW72302   5.337   9.346   3.801 -0.0241 -0.6401 -0.2587
23137SOL    HW172303   5.429   9.349   3.828 -0.3817  0.3884  0.9645
23137SOL    HW272304   5.316   9.253   3.799  0.8620 -0.8632  0.1027
23138SOL     OW72305   1.290   3.867   2.722  0.0671  0.0127 -0.1572
23138SOL    HW172306   1.258   3.955   2.702  2.7468  0.6705 -2.0950
23138SOL    HW272307   1.300   3.825   2.636 -1.6271 -2.4361  0.7438
23139SOL     OW72308   0.119   3.469   4.374 -0.8480 -0.5333 -0.2619
23139SOL    HW172309   0.071   3.549   4.353 -0.2069 -0.5070 -1.7444
23139SOL    HW272310   0.138   3.429   4.289  0.0012 -1.5818  0.3919
23140SOL     OW72311   2.356   9.131   7.886  0.0481  0.0217 -0.3528
23140SOL    HW172312   2.387   9.130   7.976  0.4351 -0.5885 -0.4879
23140SOL    HW272313   2.303   9.052   7.878 -0.8486  0.6083 -0.3710
23141SOL     OW72314   2.101   4.067   1.423  0.4363 -0.5280  0.5888
23141SOL    HW172315   2.025   4.009   1.423  0.6680 -0.9101 -1.4883
23141SOL    HW272316   2.176   4.008   1.427  0.6766 -0.1805  1.8000
23142SOL     OW72317   5.217   8.911   7.185 -0.2169 -0.5984  0.7026
23142SOL    HW172318   5.219   8.945   7.095  0.0986  0.7802  1.2120
23142SOL    HW272319   5.279   8.837   7.184  2.2256  1.3147  0.4881
23143SOL     OW72320   6.210   4.757   4.170  0.3935  0.0525 -0.2008
23143SOL    HW172321   6.146   4.811   4.123  1.1470  0.8440 -0.3413
23143SOL    HW272322   6.295   4.793   4.144  0.9241 -1.3805 -0.5101
23144SOL     OW72323   9.488   9.480   1.828  0.0165  0.1173  0.4709
23144SOL    HW172324   9.399   9.511   1.813 -0.4060 -1.5847 -0.9308
23144SOL    HW272325   9.525   9.470   1.740  1.3267  0.0471  1.0000
23145SOL     OW72326   8.136   2.026   9.475  0.1451 -0.1317 -0.1081
23145SOL    HW172327   8.146   1.931   9.477  0.8124 -0.1111  3.0941
23145SOL    HW272328   8.208   2.056   9.419  0.6234 -1.4613 -0.2554
23146SOL     OW72329   1.636   7.606   8.942 -0.2400 -0.5837  0.2573
23146SOL    HW172330   1.683   7.630   8.862  0.4987 -2.5458  0.0400
23146SOL    HW272331   1.566   7.671   8.949  1.1765  1.1396 -0.5927
23147SOL     OW72332   4.992   9.516   9.642 -0.2701 -0.2192  0.2236
23147SOL    HW172333   5.055   9.532   9.712 -1.0679 -0.2964  0.9826
23147SOL    HW272334   4.918   9.474   9.686 -1.3782  0.9989 -0.4080
23148SOL     OW72335   1.941   2.332   7.788  0.2185 -0.1736 -0.0533
23148SOL    HW172336   2.016   2.304   7.736  1.7701 -0.6613  2.2770
23148SOL    HW272337   1.947   2.281   7.869 -1.2991  1.4294  1.1604
23149SOL     OW72338   5.510   8.447   6.922  0.3094 -0.2960 -0.1018
23149SOL    HW172339   5.523   8.438   7.016 -0.4527 -0.3413  0.0024
23149SOL    HW272340   5.597   8.467   6.888  0.4498  0.5677  0.7148
23150SOL     OW72341   7.992   4.173   9.121 -0.2179  0.3101 -0.0570
23150SOL    HW172342   7.924   4.186   9.187 -0.2639 -0.6227  0.0897
23150SOL    HW272343   7.960   4.221   9.044 -1.3147 -0.5678 -0.1710
23151SOL     OW72344   7.959   3.460   7.627  0.9136 -0.3244  0.7869
23151SOL    HW172345   7.912   3.499   7.701  1.7351  2.2713  0.0332
23151SOL    HW272346   7.892   3.407   7.582 -1.8014  3.9188 -0.7732
23152SOL     OW72347   6.888   1.443   7.235  0.1226 -0.2335  0.3192
23152SOL    HW172348   6.797   1.416   7.231  0.5226 -1.7458  0.9086
23152SOL    HW272349   6.918   1.415   7.322  1.8485 -2.1765 -0.8176
23153SOL     OW72350   6.549   2.303   6.056  0.4594 -0.0106 -0.1285
23153SOL    HW172351   6.621   2.245   6.034  0.9881 -0.5210  2.5803
23153SOL    HW272352   6.571   2.386   6.013  1.7878 -0.6463 -0.7362
23154SOL     OW72353   5.880   3.228   7.408 -0.4257 -0.1982  0.1107
23154SOL    HW172354   5.968   3.266   7.407 -0.5788  0.1729  0.4669
23154SOL    HW272355   5.893   3.138   7.439  0.0813 -0.8330 -1.8207
23155SOL     OW72356   8.078   5.241   1.678  0.0378 -0.3699  0.1463
23155SOL    HW172357   8.129   5.319   1.701 -0.4192 -0.1528  0.4476
23155SOL    HW272358   8.033   5.264   1.596 -0.0468 -0.3365  0.2017
23156SOL     OW72359   7.758   4.661   7.726  0.4274  0.7302  0.3264
23156SOL    HW172360   7.731   4.710   7.803 -0.5438 -0.8705  1.0555
23156SOL    HW272361   7.689   4.596   7.713  1.5642 -0.3432 -0.6773
23157SOL     OW72362   0.452   0.716   6.938 -0.3935  0.5134 -0.2009
23157SOL    HW172363   0.455   0.622   6.924 -1.3325  0.5376 -0.7028
23157SOL    HW272364   0.507   0.753   6.868 -0.5458  0.3618 -0.4029
23158SOL     OW72365   5.761   5.517   8.293 -0.0059 -0.2280 -0.1626
23158SOL    HW172366   5.839   5.478   8.334 -0.9154 -1.4020  0.5210
23158SOL    HW272367   5.717   5.442   8.252 -1.5325  0.1586  0.7102
23159SOL     OW72368   8.392   7.413   1.003 -0.1738  0.2842  0.0983
23159SOL    HW172369   8.335   7.470   1.055  1.3998  0.8810  1.2591
23159SOL    HW272370   8.441   7.473   0.947  0.1982 -0.0903  0.0175
23160SOL     OW72371   3.433   1.471   4.473 -0.1886 -0.0053 -0.0079
23160SOL    HW172372   3.421   1.383   4.509 -0.0458  0.0037  0.0581
23160SOL    HW272373   3.365   1.478   4.406  1.2716 -1.0359 -1.6625
23161SOL     OW72374   4.872   0.495   5.066 -0.4157  0.0188 -0.0537
23161SOL    HW172375   4.899   0.499   4.974  0.8646  1.1280  0.3378
23161SOL    HW272376   4.886   0.403   5.091 -0.8006 -0.2962 -0.9605
23162SOL     OW72377   1.741   0.866   1.325  0.4790  0.1754  0.1334
23162SOL    HW172378   1.697   0.890   1.244  0.9369 -1.4593 -0.6517
23162SOL    HW272379   1.755   0.949   1.371  0.8491  1.2274 -1.7788
23163SOL     OW72380   9.363   8.115   3.609 -0.4758  0.1177  0.0136
23163SOL    HW172381   9.298   8.167   3.657  1.5436  2.0861  0.8190
23163SOL    HW272382   9.359   8.149   3.520  1.4457  2.4629  0.7254
23164SOL     OW72383   6.422   3.744   3.182 -0.0158 -0.0720 -0.7685
23164SOL    HW172384   6.461   3.761   3.268 -0.1606 -1.3851 -0.4282
23164SOL    HW272385   6.400   3.831   3.149 -0.1739  0.4488  0.6180
23165SOL     OW72386   1.916   9.506   4.093  0.5746  0.3957  0.0923
23165SOL    HW172387   1.877   9.436   4.146 -1.3381  0.7406 -0.7912
23165SOL    HW272388   1.932   9.466   4.008 -0.5351  1.0016 -0.4198
23166SOL     OW72389   6.951   4.857   7.606 -0.6502  0.2584 -0.1110
23166SOL    HW172390   6.862   4.884   7.628 -0.5327 -0.0226  0.7743
23166SOL    HW272391   6.945   4.827   7.515 -1.8597 -1.3830  0.4421
23167SOL     OW72392   0.885   7.806   6.358 -0.6415 -0.0974 -0.2723
23167SOL    HW172393   0.812   7.745   6.367 -1.4285  0.9416  0.7681
23167SOL    HW272394   0.898   7.815   6.264 -0.9889 -1.2930 -0.4524
23168SOL     OW72395   9.222   4.264   0.753  0.1909 -0.4644 -0.5206
23168SOL    HW172396   9.244   4.263   0.846 -0.5561 -1.5017 -0.3335
23168SOL    HW272397   9.127   4.250   0.750 -0.0101  0.9029 -1.4017
23169SOL     OW72398   5.402   9.433   2.906 -0.0969  0.2220  0.1746
23169SOL    HW172399   5.329   9.495   2.906  1.9435  2.7743 -0.7401
23169SOL    HW272400   5.447   9.448   2.988 -0.7841 -1.6823  0.9498
23170SOL     OW72401   3.318   2.091   3.141 -0.0359  0.2209  0.9735
23170SOL    HW172402   3.349   2.078   3.231  1.0226 -1.6649  0.3734
23170SOL    HW272403   3.241   2.034   3.133  1.1466 -1.3089  0.0766
23171SOL     OW72404   8.377   3.336   1.449  0.4511  0.3495 -0.0366
23171SOL    HW172405   8.320   3.399   1.495  1.7916  0.2009  1.9545
23171SOL    HW272406   8.418   3.387   1.379 -0.2207  1.0964  0.1023
23172SOL     OW72407   6.891   5.263   8.191 -0.2656 -0.0746  0.9007
23172SOL    HW172408   6.855   5.272   8.279 -0.4536  0.0446  0.8121
23172SOL    HW272409   6.828   5.208   8.145 -0.1630 -0.1453  0.8432
23173SOL     OW72410   5.753   0.996   6.972 -0.2870  0.3845 -0.0232
23173SOL    HW172411   5.818   0.937   6.935  0.8704  1.7411 -0.2249
23173SOL    HW272412   5.740   0.964   7.062  0.4661 -0.0554 -0.0649
23174SOL     OW72413   3.547   1.048   5.524 -0.2953  0.6185  0.1499
23174SOL    HW172414   3.586   1.125   5.566  1.4154  0.1093 -0.4272
23174SOL    HW272415   3.521   1.079   5.437  1.4198  0.3404 -0.5120
23175SOL     OW72416   6.474   4.208   6.585 -0.0119 -0.2728 -0.4012
23175SOL    HW172417   6.487   4.188   6.678 -2.0033 -0.6309 -0.1573
23175SOL    HW272418   6.482   4.303   6.580  0.7884 -0.3124  0.0094
23176SOL     OW72419   1.642   3.017   3.393 -0.0333  0.1795 -0.0370
23176SOL    HW172420   1.578   3.057   3.452 -0.5212  0.4672 -0.7426
23176SOL    HW272421   1.629   3.062   3.309  0.6360 -0.2267 -0.3726
23177SOL     OW72422   0.952   1.798   8.594 -0.4007  0.3604  0.1618
23177SOL    HW172423   0.899   1.742   8.651 -0.3327  0.4673  0.3307
23177SOL    HW272424   0.901   1.879   8.587  0.3431  0.9708  1.3929
23178SOL     OW72425   7.574   2.537   3.307 -0.0783 -0.4164 -0.1326
23178SOL    HW172426   7.487   2.501   3.325 -0.7957  2.0488  1.8841
23178SOL    HW272427   7.565   2.577   3.220 -0.0950 -2.4298 -1.1222
23179SOL     OW72428   2.160   0.447   8.291 -0.0496 -0.1868  0.3512
23179SOL    HW172429   2.138   0.481   8.377  3.6907  3.7387  0.0401
23179SOL    HW272430   2.233   0.387   8.306 -1.9116 -2.7119  0.1014
23180SOL     OW72431   8.577   4.960   8.100 -0.3361  0.0567 -0.6170
23180SOL    HW172432   8.537   4.965   8.187 -1.1217  0.9250 -1.0037
23180SOL    HW272433   8.649   5.023   8.104  0.0679 -0.4240 -0.3734
23181SOL     OW72434   4.660   2.712   1.616 -0.1917  0.6710  0.0843
23181SOL    HW172435   4.607   2.693   1.539  1.4754  0.2919 -1.0140
23181SOL    HW272436   4.640   2.803   1.638 -2.7853 -0.0103  0.9644
23182SOL     OW72437   8.783   5.818   1.819 -0.0224 -0.5634 -0.0344
23182SOL    HW172438   8.777   5.728   1.851 -0.4386 -0.4780  0.1408
23182SOL    HW272439   8.729   5.818   1.739 -2.9269  0.3182  1.7777
23183SOL     OW72440   4.872   6.835   4.638 -0.4718 -0.5655  0.4815
23183SOL    HW172441   4.786   6.874   4.627  0.4904  1.1913 -1.4726
23183SOL    HW272442   4.933   6.907   4.625  1.3248 -2.0706  0.0922
23184SOL     OW72443   0.458   7.766   5.500 -0.0130  0.0965 -0.5344
23184SOL    HW172444   0.422   7.769   5.411  1.6469 -1.0592 -1.2962
23184SOL    HW272445   0.529   7.831   5.498  1.5563 -1.5715 -0.8118
23185SOL     OW72446   0.233   6.811   5.100  0.0522 -0.1974  0.6269
23185SOL    HW172447   0.210   6.763   5.021 -0.5667 -1.1509  1.3653
23185SOL    HW272448   0.261   6.744   5.162  1.6404  0.6339  0.8755
23186SOL     OW72449   9.134   8.579   3.780 -0.2868 -0.1617 -0.5979
23186SOL    HW172450   9.157   8.501   3.729  1.1995 -1.1740  1.4894
23186SOL    HW272451   9.077   8.547   3.850  0.4782  0.5636  0.3863
23187SOL     OW72452   5.391   6.869   7.265  0.3651 -0.0814  0.0334
23187SOL    HW172453   5.398   6.898   7.175  0.4135  0.2864  0.1541
23187SOL    HW272454   5.456   6.921   7.313 -1.3432  1.5354  0.7218
23188SOL     OW72455   8.351   0.908   1.609 -0.0850  0.0918  0.2400
23188SOL    HW172456   8.269   0.886   1.651  1.8013 -0.6338  3.9192
23188SOL    HW272457   8.381   0.825   1.570 -1.0887  0.4151 -1.3401
23189SOL     OW72458   3.635   9.256   3.712  0.3098 -0.3728 -0.0382
23189SOL    HW172459   3.683   9.189   3.761  1.2097  0.7218  0.6413
23189SOL    HW272460   3.592   9.308   3.780 -0.1655 -0.1038 -0.5414
23190SOL     OW72461   0.706   8.545   4.125 -0.1652 -0.2994 -0.2006
23190SOL    HW172462   0.669   8.457   4.115  1.0475 -0.8070 -0.4545
23190SOL    HW272463   0.738   8.547   4.216 -0.4305 -0.0265 -0.1138
23191SOL     OW72464   4.163   4.930   4.572 -0.3031 -0.0731 -0.6005
23191SOL    HW172465   4.140   4.847   4.614  0.1037  0.4525  0.7256
23191SOL    HW272466   4.093   4.990   4.598  0.5591  0.5628  0.3266
23192SOL     OW72467   5.920   5.516   8.587  0.7195 -0.2136  0.3314
23192SOL    HW172468   5.930   5.606   8.618 -1.0931  0.2465 -0.2378
23192SOL    HW272469   5.878   5.470   8.660 -2.1012  0.4825 -0.7113
23193SOL     OW72470   5.357   6.472   4.742 -0.2266 -0.2888  0.2680
23193SOL    HW172471   5.428   6.449   4.801 -0.9979  1.3001  1.9238
23193SOL    HW272472   5.332   6.389   4.701  2.1810 -0.9622  0.0418
23194SOL     OW72473   3.608   7.570   7.932 -0.5415  0.2330 -0.1700
23194SOL    HW172474   3.541   7.600   7.870 -1.4761  0.0008  0.7104
23194SOL    HW272475   3.607   7.474   7.924  1.6947  0.2871 -2.2010
23195SOL     OW72476   8.545   9.115   3.543  0.8520 -0.2110 -0.4298
23195SOL    HW172477   8.563   9.193   3.491 -2.0477  0.6278 -0.3344
23195SOL    HW272478   8.504   9.054   3.482  0.4653 -0.5381  0.1454
23196SOL     OW72479   2.051   2.152   9.372  0.1679 -0.2617 -0.0078
23196SOL    HW172480   2.137   2.120   9.398 -0.0695 -3.0429 -2.1871
23196SOL    HW272481   2.067   2.243   9.345  2.9305 -1.2172 -2.1451
23197SOL     OW72482   1.218   0.931   3.939  0.0442  0.6967  0.1814
23197SOL    HW172483   1.201   1.018   3.905  0.6750  1.1291  0.9417
23197SOL    HW272484   1.161   0.923   4.015  0.8486  0.9321  0.8355
23198SOL     OW72485   1.796   7.555   6.426 -0.0715 -0.0297  0.0031
23198SOL    HW172486   1.760   7.546   6.338  1.1947 -0.1973 -0.5155
23198SOL    HW272487   1.723   7.587   6.479 -2.5686 -5.0586  0.1886
23199SOL     OW72488   5.640   0.271   0.736  0.2709 -0.2120 -0.2784
23199SOL    HW172489   5.600   0.328   0.802 -0.2406  1.4028 -1.8991
23199SOL    HW272490   5.715   0.232   0.780 -0.3877  0.3455  1.4180
23200SOL     OW72491   7.443   8.131   3.451  0.5347 -0.5099 -0.6349
23200SOL    HW172492   7.356   8.152   3.485  0.9997  0.4766 -0.0471
23200SOL    HW272493   7.439   8.036   3.436 -0.5264 -0.5409 -0.2959
23201SOL     OW72494   9.116   3.021   0.385 -0.6197 -0.6856  0.3022
23201SOL    HW172495   9.100   2.968   0.463 -0.9707 -1.7020 -0.4401
23201SOL    HW272496   9.035   3.013   0.335 -0.4540  0.0981 -0.0904
23202SOL     OW72497   9.231   1.656   1.714  0.1017  0.2769  0.2301
23202SOL    HW172498   9.279   1.638   1.794  0.7036 -1.1044 -0.3933
23202SOL    HW272499   9.247   1.748   1.696  0.0104  0.5849  1.6444
23203SOL     OW72500   0.295   4.316   1.896 -0.0376 -0.1056 -0.2800
23203SOL    HW172501   0.379   4.274   1.882 -0.2404 -0.8335  0.5531
23203SOL    HW272502   0.243   4.250   1.943 -0.7831  0.6343 -0.0387
23204SOL     OW72503   2.963   0.484   5.852 -0.1571  0.5697 -0.1614
23204SOL    HW172504   2.883   0.524   5.886 -1.0430  0.1610 -1.6876
23204SOL    HW272505   3.026   0.556   5.848 -0.4969  0.9399  0.8583
23205SOL     OW72506   7.908   4.968   1.447  0.0473  0.4413 -0.0879
23205SOL    HW172507   7.919   4.956   1.541  1.8593  0.6747 -0.2231
23205SOL    HW272508   7.983   4.923   1.409 -0.1217  1.1977 -1.3626
23206SOL     OW72509   2.872   7.239   2.446 -0.2011 -0.0665  0.1817
23206SOL    HW172510   2.942   7.176   2.431  0.8324  1.1585 -0.3966
23206SOL    HW272511   2.792   7.187   2.449  0.7315 -1.5163  0.9573
23207SOL     OW72512   1.371   8.324   1.097 -0.6768  0.2844 -0.2412
23207SOL    HW172513   1.390   8.336   1.004  1.4368  0.3421  0.1403
23207SOL    HW272514   1.338   8.410   1.125  0.6837  0.9307 -0.5281
23208SOL     OW72515   8.119   0.343   0.907  0.0350 -0.4615 -0.2927
23208SOL    HW172516   8.160   0.290   0.839 -0.0079 -1.3453  0.3447
23208SOL    HW272517   8.158   0.312   0.988 -1.1503 -0.6323  0.2356
23209SOL     OW72518   0.802   1.480   5.953  0.7276  0.3292  0.1969
23209SOL    HW172519   0.763   1.531   6.024 -0.3008 -1.2029  0.7773
23209SOL    HW272520   0.881   1.529   5.929  1.4967  0.5558  2.8648
23210SOL     OW72521   3.354   8.645   2.575  0.2774  0.4886  0.1561
23210SOL    HW172522   3.342   8.721   2.632 -0.2479  0.1050  0.5693
23210SOL    HW272523   3.405   8.584   2.628  0.7219  0.5641 -0.1849
23211SOL     OW72524   1.457   2.088   5.775 -0.4851  0.2189  0.2975
23211SOL    HW172525   1.384   2.143   5.802 -0.3927 -0.3913  1.8873
23211SOL    HW272526   1.440   2.004   5.816  1.4317  0.2508  1.2394
23212SOL     OW72527   3.314   8.678   1.715  0.0604  0.2724  0.1697
23212SOL    HW172528   3.233   8.635   1.687  0.3439  1.2891 -2.4973
23212SOL    HW272529   3.322   8.755   1.658  2.5762  0.5553  0.7640
23213SOL     OW72530   5.875   3.767   4.499 -0.3121  0.6796 -0.0614
23213SOL    HW172531   5.920   3.845   4.466 -0.4105  0.0559 -1.7859
23213SOL    HW272532   5.933   3.694   4.477 -0.8001  0.1495  0.3743
23214SOL     OW72533   6.481   2.251   7.556 -0.6016  0.2579 -0.8640
23214SOL    HW172534   6.558   2.307   7.566 -2.7518  3.3280  0.0389
23214SOL    HW272535   6.477   2.231   7.462 -0.3504  2.7187 -1.4618
23215SOL     OW72536   5.561   7.438   7.458  0.0317 -0.1903 -0.3372
23215SOL    HW172537   5.570   7.354   7.411 -0.5428 -0.9040  0.7730
23215SOL    HW272538   5.580   7.417   7.549 -2.3331  0.3511  0.3753
23216SOL     OW72539   7.783   3.771   5.874 -0.7921  0.4624  0.2054
23216SOL    HW172540   7.843   3.699   5.893 -0.4950 -0.1005 -2.4881
23216SOL    HW272541   7.825   3.848   5.914  1.1051 -0.1356 -0.5223
23217SOL     OW72542   2.835   5.473   5.725 -0.1506 -0.4740  0.2928
23217SOL    HW172543   2.858   5.395   5.675 -0.9480  0.2338 -1.2446
23217SOL    HW272544   2.754   5.504   5.685  0.6586  1.7019  0.1914
23218SOL     OW72545   8.992   8.389   2.412  0.0815  0.2334 -0.2482
23218SOL    HW172546   9.003   8.392   2.507 -0.1140 -1.1435 -0.1619
23218SOL    HW272547   8.901   8.413   2.397  0.0707  0.2986 -0.0766
23219SOL     OW72548   8.968   6.127   0.009  0.4382 -0.4625 -0.6777
23219SOL    HW172549   9.031   6.090  -0.052  0.5102  0.4224 -1.1585
23219SOL    HW272550   8.899   6.164  -0.047  0.9713  1.2012 -0.2856
23220SOL     OW72551   7.858   3.601   4.173  0.4484 -0.1003  0.7660
23220SOL    HW172552   7.840   3.653   4.251  0.2460 -1.2888  1.5345
23220SOL    HW272553   7.776   3.600   4.125  0.5163  0.4689  0.6312
23221SOL     OW72554   6.394   8.194   5.926  0.0818  0.5670  0.9384
23221SOL    HW172555   6.441   8.277   5.930  0.9719  0.2096 -0.9674
23221SOL    HW272556   6.461   8.127   5.940  0.2174  0.0690 -1.5207
23222SOL     OW72557   4.900   2.818   5.814 -0.7625 -0.3059  0.6915
23222SOL    HW172558   4.826   2.806   5.873 -2.2590 -1.4021 -1.2748
23222SOL    HW272559   4.970   2.765   5.852 -1.9759 -1.7212  1.0552
23223SOL     OW72560   8.011   3.149   0.503 -0.3930 -0.9928 -0.2489
23223SOL    HW172561   7.933   3.114   0.459  0.1343 -0.5064 -1.6246
23223SOL    HW272562   8.032   3.229   0.453  0.8338 -0.9886  0.2595
23224SOL     OW72563   1.387   2.071   8.655 -0.0733 -0.4104  0.3084
23224SOL    HW172564   1.462   2.013   8.644 -0.2761 -0.7292  0.6194
23224SOL    HW272565   1.328   2.025   8.715 -0.3599 -0.0091  0.3427
23225SOL     OW72566   3.515   1.298   0.721  0.1923 -0.0685 -0.3869
23225SOL    HW172567   3.457   1.296   0.645 -3.1124  0.3087  1.8971
23225SOL    HW272568   3.583   1.362   0.699 -2.0358  1.8443 -2.1254
23226SOL     OW72569   4.364   5.188   5.352  0.9535  0.1430 -0.3200
23226SOL    HW172570   4.308   5.253   5.394  0.7937 -0.8250  1.0163
23226SOL    HW272571   4.337   5.190   5.260 -0.1834  0.8002 -0.0002
23227SOL     OW72572   2.165   8.413   8.891  0.1386  0.8344  0.0739
23227SOL    HW172573   2.213   8.344   8.938 -1.0909 -0.1756 -0.1082
23227SOL    HW272574   2.234   8.467   8.852  1.1473  0.3447  1.1116
23228SOL     OW72575   8.076   3.409   6.431  0.2623  0.2497 -0.1623
23228SOL    HW172576   8.040   3.385   6.517 -0.4775 -1.2948 -0.8737
23228SOL    HW272577   8.169   3.385   6.437 -0.1563 -1.5580 -0.3606
23229SOL     OW72578   5.058   9.461   3.811  0.3555  0.3955 -0.0108
23229SOL    HW172579   5.142   9.420   3.836 -0.3889 -0.8818  0.5129
23229SOL    HW272580   5.073   9.554   3.823  1.5822  0.1687  0.4633
23230SOL     OW72581   0.298   6.641   5.599  0.0432  0.8363  0.6627
23230SOL    HW172582   0.223   6.586   5.619  0.6841  0.3588  1.8245
23230SOL    HW272583   0.263   6.711   5.543 -1.0535  0.0682  0.3706
23231SOL     OW72584   2.512   2.759   2.960 -0.0439 -0.5322  0.1278
23231SOL    HW172585   2.517   2.854   2.945  2.1883 -0.6723 -0.3821
23231SOL    HW272586   2.517   2.749   3.055 -0.6267 -0.1420  0.2059
23232SOL     OW72587   6.250   7.553   5.820  0.5293  0.1936 -0.3215
23232SOL    HW172588   6.250   7.558   5.724 -2.8211  0.8806 -0.3913
23232SOL    HW272589   6.235   7.643   5.849  5.2953  0.8036  1.1788
23233SOL     OW72590   4.721   9.055   0.922  0.1635 -0.0907 -0.1380
23233SOL    HW172591   4.686   8.967   0.914 -0.8114  0.3086 -0.3865
23233SOL    HW272592   4.765   9.072   0.839  1.9922 -1.0093  0.5824
23234SOL     OW72593   4.804   5.331   0.217  0.4100  0.1071 -0.0206
23234SOL    HW172594   4.796   5.272   0.142  1.7048 -0.4054  0.2216
23234SOL    HW272595   4.894   5.364   0.213  0.2430  0.7074  0.8435
23235SOL     OW72596   5.784   5.139   6.391 -0.6437 -0.3041 -0.2388
23235SOL    HW172597   5.774   5.161   6.299 -0.8600 -0.5985 -0.2891
23235SOL    HW272598   5.794   5.223   6.436  0.5498 -0.2107 -0.6486
23236SOL     OW72599   5.585   1.079   7.849 -0.6870 -0.4225  0.1650
23236SOL    HW172600   5.655   1.016   7.830  0.0842  1.0664 -2.5757
23236SOL    HW272601   5.630   1.164   7.847 -2.0339  0.3728  1.8075
23237SOL     OW72602   1.026   4.527   1.957  0.8166 -0.8195 -0.0895
23237SOL    HW172603   1.058   4.437   1.945  2.0509 -0.3277 -0.6304
23237SOL    HW272604   1.047   4.571   1.874 -1.8694 -0.6073 -0.7428
23238SOL     OW72605   5.427   0.501   4.875 -0.3630 -0.5175 -0.0557
23238SOL    HW172606   5.431   0.407   4.891 -2.5910 -0.5439  0.8035
23238SOL    HW272607   5.381   0.536   4.952 -0.0353  1.2073 -0.5991
23239SOL     OW72608   0.888   4.400   2.942  0.6180  0.0524  0.0841
23239SOL    HW172609   0.836   4.320   2.957  1.8474 -0.5144  1.5334
23239SOL    HW272610   0.863   4.458   3.013 -1.5892  1.7659 -1.9178
23240SOL     OW72611   7.480   6.599   2.591  0.4587  0.5410  0.0740
23240SOL    HW172612   7.409   6.586   2.653 -0.0613 -0.6394 -0.7295
23240SOL    HW272613   7.557   6.561   2.635 -0.2842 -2.0705 -0.6926
23241SOL     OW72614   7.010   4.093   5.554 -0.6232 -0.3971 -0.6807
23241SOL    HW172615   7.019   4.033   5.628 -0.9096  0.0870 -0.2466
23241SOL    HW272616   7.041   4.043   5.478  0.8894 -0.4704 -0.0488
23242SOL     OW72617   6.129   0.328   4.111 -0.1178 -0.1761  0.1405
23242SOL    HW172618   6.141   0.363   4.199 -1.7553  1.5877 -0.2824
23242SOL    HW272619   6.115   0.405   4.055 -0.8056 -1.3279 -1.3729
23243SOL     OW72620   6.374   7.241   4.621 -0.2763 -0.1048 -0.1095
23243SOL    HW172621   6.462   7.270   4.644  0.9231 -2.5379 -1.2663
23243SOL    HW272622   6.319   7.272   4.693  1.4450  1.6693  0.5401
23244SOL     OW72623   3.090   0.178   8.087  0.2052  0.5687 -0.1877
23244SOL    HW172624   3.035   0.125   8.145  1.6072 -0.3871  0.3371
23244SOL    HW272625   3.085   0.266   8.123 -0.3647  0.3319  0.3228
23245SOL     OW72626   0.998   0.022   8.030 -0.5175 -0.3843  0.2084
23245SOL    HW172627   1.089   0.012   8.002 -0.1420  1.2200  0.7677
23245SOL    HW272628   1.002   0.017   8.125 -1.0801 -0.6949  0.2176
23246SOL     OW72629   7.227   9.474   3.143  0.5189 -0.8913 -0.2624
23246SOL    HW172630   7.132   9.466   3.151  0.5699 -2.2583 -0.7731
23246SOL    HW272631   7.246   9.448   3.053  1.2879  0.4178 -0.4925
23247SOL     OW72632   8.815   7.644   1.964  0.2045 -0.0987 -0.3360
23247SOL    HW172633   8.845   7.725   2.005  0.4483 -1.2444  1.9105
23247SOL    HW272634   8.879   7.626   1.896  0.8954  0.9134  0.0238
23248SOL     OW72635   6.586   2.323   1.092 -0.3191 -0.2803 -0.3210
23248SOL    HW172636   6.653   2.294   1.153  0.4180  3.3220  0.8333
23248SOL    HW272637   6.621   2.303   1.005  0.9258 -0.9975  0.3279
23249SOL     OW72638   1.789   3.571   2.181  0.3687  0.2679  0.7972
23249SOL    HW172639   1.775   3.562   2.087 -0.4173  1.3910  0.7857
23249SOL    HW272640   1.876   3.534   2.196  0.5313  0.1333 -0.3822
23250SOL     OW72641   1.695   8.361   6.707 -0.1665  0.4949 -0.4991
23250SOL    HW172642   1.642   8.285   6.681 -0.4880  0.8266 -0.8112
23250SOL    HW272643   1.779   8.347   6.664 -0.1043  0.1348 -0.2691
23251SOL     OW72644   0.519   5.872   1.214 -0.4285 -0.0560  0.3138
23251SOL    HW172645   0.452   5.868   1.281  0.7162 -0.2145  1.4830
23251SOL    HW272646   0.549   5.781   1.204 -1.1427 -0.1755 -1.0257
23252SOL     OW72647   0.396   4.702   2.756 -0.3309 -0.0283 -0.1536
23252SOL    HW172648   0.474   4.655   2.729  0.8809  1.6910  0.2203
23252SOL    HW272649   0.377   4.668   2.843  1.3531  1.0901  0.6997
23253SOL     OW72650   4.794   6.057   8.065  0.0773  0.2801  0.3300
23253SOL    HW172651   4.737   6.044   7.990 -1.2563  0.4989  1.2689
23253SOL    HW272652   4.736   6.049   8.141  1.5905 -1.1572  1.3999
23254SOL     OW72653   0.952   3.013   4.615  0.4569  0.2798  0.1365
23254SOL    HW172654   0.883   2.947   4.621  1.4125 -0.8743 -0.9845
23254SOL    HW272655   1.033   2.964   4.617  1.3026  1.6542  1.8632
23255SOL     OW72656   2.186   0.046   6.219 -0.1041 -0.0203  0.2385
23255SOL    HW172657   2.235   0.127   6.206 -1.2294  0.7251  0.4565
23255SOL    HW272658   2.148   0.054   6.307 -1.3801 -0.1179 -0.2739
23256SOL     OW72659   5.618   5.716   6.415  0.1777  0.0301  0.4447
23256SOL    HW172660   5.630   5.634   6.367 -2.2800 -0.2796  0.2339
23256SOL    HW272661   5.702   5.729   6.461  1.2372 -1.6576 -0.8692
23257SOL     OW72662   3.204   3.695   9.317  0.6921  0.3108  0.7126
23257SOL    HW172663   3.201   3.735   9.403 -0.0528  0.2664  0.7192
23257SOL    HW272664   3.177   3.604   9.332  0.1388  0.4146  0.3784
23258SOL     OW72665   4.075   3.077   5.202  0.6626  0.2024 -0.0195
23258SOL    HW172666   4.165   3.108   5.195  0.6472  0.4214  0.6951
23258SOL    HW272667   4.071   3.002   5.143  1.1899  0.4640 -0.3901
23259SOL     OW72668   2.120   0.979   5.951  0.6868  0.3943 -0.5916
23259SOL    HW172669   2.032   0.962   5.917 -0.3045 -0.6348  2.2121
23259SOL    HW272670   2.106   1.029   6.031  2.4658 -1.3268  0.8968
23260SOL     OW72671   4.289   8.746   5.835  0.3493 -0.4020 -0.5805
23260SOL    HW172672   4.323   8.697   5.760  1.7596 -0.5726  0.1405
23260SOL    HW272673   4.361   8.804   5.861 -1.1297  1.7969 -1.1349
23261SOL     OW72674   9.241   6.572   0.969 -0.1380 -0.2261  0.0280
23261SOL    HW172675   9.216   6.480   0.964  0.0883 -0.2962  0.1935
23261SOL    HW272676   9.322   6.573   1.020  0.2210 -0.0030 -0.5394
23262SOL     OW72677   2.841   2.309   0.516 -0.5829 -0.0259  0.1564
23262SOL    HW172678   2.910   2.306   0.582  0.7650 -0.3424 -1.2076
23262SOL    HW272679   2.793   2.390   0.535 -1.0972 -0.7779  2.3103
23263SOL     OW72680   9.180   7.754   6.969 -0.2661 -0.5734 -0.5507
23263SOL    HW172681   9.260   7.713   6.936  1.7407  1.2984  1.6238
23263SOL    HW272682   9.136   7.684   7.017  0.5172 -1.4409 -1.0586
23264SOL     OW72683   1.369   4.613   7.500  0.7369  0.6445 -0.3160
23264SOL    HW172684   1.414   4.556   7.564  0.3012 -1.5847 -1.8669
23264SOL    HW272685   1.440   4.650   7.448  0.9510  0.0052 -0.4868
23265SOL     OW72686   1.617   1.859   6.798  0.5806 -0.9771 -0.1457
23265SOL    HW172687   1.546   1.920   6.817 -1.0420 -1.6118 -3.5091
23265SOL    HW272688   1.697   1.907   6.821 -0.7714  0.5961  1.6199
23266SOL     OW72689   0.972   3.577   6.403 -0.6845 -0.4468  0.3808
23266SOL    HW172690   0.934   3.489   6.393 -0.3226 -0.5962  0.2915
23266SOL    HW272691   1.059   3.561   6.439 -1.0716 -0.0433  1.5053
23267SOL     OW72692   5.117   6.601   0.324 -0.2071  0.3106  0.0836
23267SOL    HW172693   5.123   6.520   0.273  0.9175  0.9165 -0.8044
23267SOL    HW272694   5.102   6.572   0.413 -0.0755 -0.8766 -0.2622
23268SOL     OW72695   6.009   6.408   0.987 -0.2259  0.0155 -0.3214
23268SOL    HW172696   6.079   6.342   0.981  0.3567  0.7326 -1.6812
23268SOL    HW272697   5.930   6.357   1.004  0.5248 -0.8484  0.7734
23269SOL     OW72698   8.639   3.229   3.395  0.3570 -0.2778 -0.0316
23269SOL    HW172699   8.605   3.282   3.323 -0.2443  1.0688  1.1952
23269SOL    HW272700   8.561   3.204   3.445  0.8947  0.1325  1.0259
23270SOL     OW72701   7.670   1.634   2.284  0.3963  0.2191 -0.0993
23270SOL    HW172702   7.661   1.602   2.373 -1.3437 -0.4901 -0.4891
23270SOL    HW272703   7.705   1.560   2.235  2.0763  0.8388  0.0967
23271SOL     OW72704   0.178   0.690   3.762 -0.2765 -0.1976 -0.2099
23271SOL    HW172705   0.105   0.752   3.761  0.1687  0.3631  0.6130
23271SOL    HW272706   0.166   0.637   3.683 -0.5608  1.0645 -1.0457
23272SOL     OW72707   5.185   7.634   3.588  0.3256 -0.3477 -0.4691
23272SOL    HW172708   5.137   7.715   3.572  2.1805  0.7488 -0.7051
23272SOL    HW272709   5.273   7.651   3.554  1.3133 -1.7664  1.2149
23273SOL     OW72710   8.632   2.933   4.699 -0.6625 -0.1703 -0.5347
23273SOL    HW172711   8.555   2.950   4.645  1.7813  2.4487 -3.5915
23273SOL    HW272712   8.649   3.016   4.743  1.1114 -0.2543 -0.9899
23274SOL     OW72713   5.640   7.473   9.352 -0.3783 -0.3385 -0.0352
23274SOL    HW172714   5.595   7.395   9.319 -3.7595  1.4652 -0.1880
23274SOL    HW272715   5.634   7.466   9.447  0.0463 -0.6558 -0.0329
23275SOL     OW72716   8.799   5.398   7.015 -0.1369  0.3237  0.1977
23275SOL    HW172717   8.834   5.387   6.927 -1.9306  0.7724 -0.6120
23275SOL    HW272718   8.706   5.377   7.007 -0.4610  0.9666  1.8539
23276SOL     OW72719   1.204   1.613   3.296 -0.5625 -0.0941 -0.0126
23276SOL    HW172720   1.172   1.652   3.215 -0.0256 -0.8442 -0.6060
23276SOL    HW272721   1.152   1.533   3.307  1.3480 -1.5868 -1.2534
23277SOL     OW72722   3.042   8.961   1.046 -0.1546 -0.2849 -0.0203
23277SOL    HW172723   2.953   8.990   1.027  0.1335 -0.6236 -2.0421
23277SOL    HW272724   3.094   9.041   1.043 -0.5417  0.1955  2.7993
23278SOL     OW72725   7.907   0.531   4.503  0.3101  0.4998 -0.1429
23278SOL    HW172726   7.874   0.469   4.567 -0.2846  0.4108 -0.5281
23278SOL    HW272727   7.856   0.513   4.423  0.1733  1.4288 -0.2775
23279SOL     OW72728   5.886   3.534   5.371  0.1393  0.2886  0.1634
23279SOL    HW172729   5.862   3.442   5.362  1.3696 -0.2267  1.7392
23279SOL    HW272730   5.809   3.576   5.408 -0.9062  0.1994 -1.8093
23280SOL     OW72731   7.065   0.034   2.711  0.3209  1.0615 -0.3039
23280SOL    HW172732   7.091   0.120   2.678  1.6551  0.7502 -0.1363
23280SOL    HW272733   7.132   0.012   2.776 -0.9678  0.6515  0.9509
23281SOL     OW72734   3.976   2.861   2.223 -0.4742 -0.1506 -0.6228
23281SOL    HW172735   3.954   2.781   2.271  1.1223  0.9531  2.2033
23281SOL    HW272736   3.902   2.875   2.166 -2.0106 -2.2578  0.6762
23282SOL     OW72737   5.077   4.179   5.624  0.4290  0.2208  0.3246
23282SOL    HW172738   5.131   4.101   5.609 -1.9181 -1.5493  0.5986
23282SOL    HW272739   5.114   4.219   5.703  0.9068 -1.3455  0.9232
23283SOL     OW72740   8.782   7.263   4.611  0.3903  0.1587 -0.4877
23283SOL    HW172741   8.783   7.239   4.703 -0.5331  0.7049 -0.3160
23283SOL    HW272742   8.856   7.322   4.600  0.7094 -0.1838 -0.1786
23284SOL     OW72743   2.923   1.061   5.597 -0.3616 -0.1051 -0.3320
23284SOL    HW172744   2.912   1.066   5.692 -2.0259  0.2470 -0.5184
23284SOL    HW272745   3.015   1.038   5.585 -0.4627 -1.6509  1.3950
23285SOL     OW72746   8.892   8.854   4.049  0.0366 -0.4747  0.2746
23285SOL    HW172747   8.851   8.811   4.124 -0.8939  0.2223  0.1673
23285SOL    HW272748   8.833   8.925   4.025  0.1897 -0.8284 -1.2717
23286SOL     OW72749   4.541   3.523   2.538 -0.4147 -0.5164  0.6687
23286SOL    HW172750   4.569   3.610   2.567 -0.2196 -0.9218  1.7321
23286SOL    HW272751   4.620   3.484   2.500 -0.8040  0.2223 -0.9733
23287SOL     OW72752   0.547   0.771   0.021  0.1894  0.5168 -0.2435
23287SOL    HW172753   0.511   0.755  -0.067  0.1690  0.8657 -0.3009
23287SOL    HW272754   0.530   0.864   0.037  1.3686  0.7722 -0.4032
23288SOL     OW72755   5.141   8.541   2.349 -0.0272 -0.0401  0.3073
23288SOL    HW172756   5.150   8.477   2.278 -0.5158  0.9451 -0.6609
23288SOL    HW272757   5.185   8.619   2.317  1.8882 -0.3133  2.1035
23289SOL     OW72758   4.456   7.774   7.686 -0.0932 -0.0557 -0.0251
23289SOL    HW172759   4.396   7.749   7.756  1.6958 -0.1152  1.6019
23289SOL    HW272760   4.511   7.696   7.673 -0.2523  0.0423 -1.3503
23290SOL     OW72761   6.241   6.185   7.514  0.1389 -0.7613 -0.2418
23290SOL    HW172762   6.234   6.228   7.429  0.4214  2.1386  1.0866
23290SOL    HW272763   6.209   6.250   7.577  1.3296 -2.2239  2.0344
23291SOL     OW72764   2.277   1.978   9.481  0.0162 -0.2804  0.2524
23291SOL    HW172765   2.274   1.902   9.539 -3.0270 -1.4662 -1.1960
23291SOL    HW272766   2.366   1.978   9.446  1.0390 -1.2696  2.6162
23292SOL     OW72767   6.073   1.583   5.812 -0.2454  0.1681 -0.0646
23292SOL    HW172768   6.069   1.518   5.882 -0.2053 -3.1357 -2.8398
23292SOL    HW272769   5.984   1.585   5.776 -0.1219  1.3087 -0.3522
23293SOL     OW72770   4.101   5.326   3.025 -0.0260  0.0776  0.4121
23293SOL    HW172771   4.135   5.237   3.036 -0.4242 -0.2807 -1.0926
23293SOL    HW272772   4.175   5.376   2.989  0.3074  0.4808  1.5769
23294SOL     OW72773   7.552   6.770   8.581  0.1370  0.0534 -0.1903
23294SOL    HW172774   7.537   6.852   8.626  0.7324 -0.8077  1.6694
23294SOL    HW272775   7.646   6.770   8.563 -0.0521  0.2753 -1.2477
23295SOL     OW72776   4.449   6.646   5.487 -0.3490  0.2380  0.4543
23295SOL    HW172777   4.415   6.631   5.575  1.4588  0.1706  1.1753
23295SOL    HW272778   4.522   6.706   5.499  0.7758 -0.8173 -0.8240
23296SOL     OW72779   6.514   0.591   6.357  0.2622 -0.3026 -0.3158
23296SOL    HW172780   6.468   0.675   6.362 -1.7651 -1.1913 -2.3046
23296SOL    HW272781   6.509   0.557   6.446  0.6938  1.4263  0.4210
23297SOL     OW72782   1.628   5.331   5.937  0.2500 -0.5528 -0.4059
23297SOL    HW172783   1.582   5.357   6.017  0.6659  2.9483 -1.1201
23297SOL    HW272784   1.562   5.286   5.884 -0.9896  0.0722  0.5535
23298SOL     OW72785   0.864   8.401   2.978 -0.0241  0.3456  0.3787
23298SOL    HW172786   0.838   8.406   2.885  1.4359 -0.6607 -0.1221
23298SOL    HW272787   0.781   8.406   3.026 -0.7412  1.8912 -0.9197
23299SOL     OW72788   3.952   8.776   5.724  0.1092  0.1193  0.0790
23299SOL    HW172789   4.031   8.783   5.670 -0.1511  1.4613 -0.1555
23299SOL    HW272790   3.985   8.750   5.810  0.6534 -0.7878 -0.3901
23300SOL     OW72791   9.429   6.871   2.493  0.3600 -0.5328 -0.1760
23300SOL    HW172792   9.491   6.871   2.420  0.0414  0.6428 -0.4814
23300SOL    HW272793   9.420   6.964   2.516 -1.8031 -0.5826 -0.6112
23301SOL     OW72794   5.008   7.942   7.149  0.2179 -0.2371 -0.1354
23301SOL    HW172795   4.934   7.882   7.158  0.4700 -0.3674  1.3584
23301SOL    HW272796   5.002   7.975   7.059 -1.3756 -0.5947 -0.1893
23302SOL     OW72797   0.343   4.068   9.007 -0.0484  0.4893  0.1091
23302SOL    HW172798   0.388   4.090   8.925 -1.0367  2.1671 -0.0348
23302SOL    HW272799   0.268   4.015   8.979 -0.4891  1.2148 -0.1178
23303SOL     OW72800   2.446   9.530   0.874 -0.2603  0.3144  0.1345
23303SOL    HW172801   2.456   9.624   0.859 -0.1826  0.1460 -0.9380
23303SOL    HW272802   2.517   9.490   0.824 -1.6957 -0.4462 -1.3553
23304SOL     OW72803   3.375   5.171   5.960 -1.0669 -0.1776 -0.1807
23304SOL    HW172804   3.451   5.114   5.945 -0.1287  0.6434  1.1324
23304SOL    HW272805   3.309   5.114   5.999 -0.2327 -0.4545  0.8815
23305SOL     OW72806   2.758   6.056   1.437 -0.7768  0.1799  0.6801
23305SOL    HW172807   2.768   6.004   1.517 -0.6484  1.5950  1.6293
23305SOL    HW272808   2.666   6.046   1.413 -0.3714 -1.8902 -0.2041
23306SOL     OW72809   5.354   1.654   8.013  0.4646  0.6568  0.2008
23306SOL    HW172810   5.363   1.621   8.103 -0.5591  1.4276  0.6041
23306SOL    HW272811   5.342   1.575   7.960  0.0188  0.2510  0.8873
23307SOL     OW72812   7.603   6.226   3.617  0.0043 -0.1292 -0.2653
23307SOL    HW172813   7.606   6.322   3.622  1.0745 -0.2162  1.6015
23307SOL    HW272814   7.565   6.199   3.701  0.1410 -1.3528 -0.5823
23308SOL     OW72815   6.703   4.370   3.948  0.0159  0.4127 -0.0527
23308SOL    HW172816   6.741   4.433   4.009 -1.6542  1.2795  0.1407
23308SOL    HW272817   6.625   4.336   3.993 -1.1467  0.9159 -1.5882
23309SOL     OW72818   6.793   4.899   3.600 -0.3527 -0.3243 -0.7119
23309SOL    HW172819   6.714   4.952   3.592  0.5257  1.2200  0.2148
23309SOL    HW272820   6.822   4.913   3.691  2.2127  1.0699 -1.6325
23310SOL     OW72821   3.856   8.979   9.150  0.2798 -0.2223 -0.1769
23310SOL    HW172822   3.802   8.986   9.229  2.0338 -0.4016  1.0824
23310SOL    HW272823   3.856   8.886   9.129 -0.5655 -0.1176 -0.6865
23311SOL     OW72824   1.981   0.506   2.552  0.2810 -0.0676 -0.1469
23311SOL    HW172825   2.011   0.438   2.613  0.7174 -0.0874 -0.3792
23311SOL    HW272826   1.961   0.581   2.608 -1.8078 -0.8961  0.3001
23312SOL     OW72827   7.678   8.576   7.382  0.0956 -0.1060  0.0435
23312SOL    HW172828   7.763   8.578   7.338  0.4963 -1.0095  0.7393
23312SOL    HW272829   7.658   8.668   7.400  0.6538  0.1582 -0.6302
23313SOL     OW72830   4.620   4.053   8.886 -0.1177 -0.1520  0.6393
23313SOL    HW172831   4.534   4.090   8.908 -0.5085  0.1820 -1.3324
23313SOL    HW272832   4.662   4.119   8.832  0.7170 -1.0227  0.1973
23314SOL     OW72833   5.990   0.122   3.437  0.1845  0.0021  0.4206
23314SOL    HW172834   6.031   0.096   3.354 -0.9652  1.4103 -0.6316
23314SOL    HW272835   5.899   0.138   3.415  0.0723  1.4108  1.7493
23315SOL     OW72836   8.030   6.562   7.740  0.1529 -0.0656  0.1472
23315SOL    HW172837   8.063   6.575   7.651 -0.9710 -0.2488 -0.3144
23315SOL    HW272838   8.103   6.521   7.787  1.1081  0.9404 -0.4055
23316SOL     OW72839   4.949   0.322   0.485 -0.3324  0.4146 -0.2447
23316SOL    HW172840   4.953   0.369   0.569  0.6461  1.9885 -1.1329
23316SOL    HW272841   4.871   0.357   0.442 -0.6393 -0.1379 -0.1414
23317SOL     OW72842   0.143   1.230   3.411 -0.1947 -0.1123  0.1777
23317SOL    HW172843   0.147   1.223   3.507  3.0732  0.5724  0.1877
23317SOL    HW272844   0.120   1.321   3.395 -0.6150 -0.1952  0.2818
23318SOL     OW72845   4.064   7.662   5.147  0.1714 -0.1034  0.5226
23318SOL    HW172846   3.974   7.667   5.180 -0.8714 -0.7872 -2.0113
23318SOL    HW272847   4.102   7.587   5.193 -0.6675 -0.0137  1.3899
23319SOL     OW72848   1.029   3.930   1.846 -0.5379  0.0936  0.1767
23319SOL    HW172849   1.097   3.884   1.797 -0.1421  1.2642 -0.4146
23319SOL    HW272850   0.947   3.899   1.809 -0.3928 -1.6739  1.1995
23320SOL     OW72851   5.160   0.930   3.203  0.1897 -0.0032  0.2678
23320SOL    HW172852   5.223   0.939   3.275  0.1334 -0.6326  0.4029
23320SOL    HW272853   5.122   1.018   3.192  0.5831  0.2162  0.6483
23321SOL     OW72854   6.947   1.702   2.329 -0.0247 -0.1285 -0.1569
23321SOL    HW172855   6.989   1.781   2.362 -0.6871  0.6378 -1.0732
23321SOL    HW272856   7.019   1.646   2.301  0.4273  0.8684 -1.0657
23322SOL     OW72857   6.367   9.579   4.568 -0.0119  0.5402 -0.5371
23322SOL    HW172858   6.326   9.552   4.650  1.8921 -1.6861 -0.2009
23322SOL    HW272859   6.421   9.655   4.592  0.2697  0.1131  0.1992
23323SOL     OW72860   0.403   6.746   8.676  0.2154  0.2844  0.0317
23323SOL    HW172861   0.328   6.737   8.616  0.8268  0.8744 -0.8405
23323SOL    HW272862   0.370   6.800   8.748 -0.6103 -0.6620  0.3853
23324SOL     OW72863   1.486   9.149   3.635  0.6670 -0.4994 -0.3860
23324SOL    HW172864   1.557   9.085   3.641  1.2678  0.2635  1.3949
23324SOL    HW272865   1.510   9.217   3.698  0.5351  1.9801 -2.8132
23325SOL     OW72866   7.711   5.030   0.585  0.1622  0.0699  0.1482
23325SOL    HW172867   7.669   5.068   0.662 -0.4894 -0.9542  0.3194
23325SOL    HW272868   7.745   5.105   0.537 -1.6457  0.9476  0.1455
23326SOL     OW72869   8.501   7.999   8.988  0.5599 -0.0232 -0.2360
23326SOL    HW172870   8.481   7.908   8.965  0.6570  0.0038 -0.4302
23326SOL    HW272871   8.548   8.033   8.912 -0.6578  0.5972 -0.7348
23327SOL     OW72872   0.663   1.637   2.174  0.3593  0.1854  0.2695
23327SOL    HW172873   0.709   1.662   2.253  0.9870  0.5125 -0.1908
23327SOL    HW272874   0.582   1.597   2.205 -0.1175  1.6897  1.0410
23328SOL     OW72875   0.522   1.240   6.264  0.4611  0.3293 -0.3560
23328SOL    HW172876   0.605   1.210   6.302 -0.4380 -0.2776  1.2580
23328SOL    HW272877   0.477   1.159   6.238 -0.4915  0.4833  0.7383
23329SOL     OW72878   9.375   0.830   3.465 -0.3632 -0.3470 -0.6340
23329SOL    HW172879   9.461   0.842   3.425 -0.4776 -0.8444 -1.0422
23329SOL    HW272880   9.370   0.736   3.483 -0.7495 -0.2912 -0.4494
23330SOL     OW72881   2.895   2.387   0.258  0.1365 -0.1763  0.4243
23330SOL    HW172882   2.835   2.334   0.205  1.4252 -1.6979  0.3868
23330SOL    HW272883   2.892   2.347   0.345  0.7332  0.0127  0.5400
23331SOL     OW72884   0.799   3.982   2.823 -0.1896  0.8206 -0.0659
23331SOL    HW172885   0.858   3.987   2.898 -1.1593 -0.3538  0.8108
23331SOL    HW272886   0.713   3.967   2.861 -0.6396 -0.3045 -1.4293
23332SOL     OW72887   4.109   8.624   8.072 -0.1150  0.1471  0.3971
23332SOL    HW172888   4.184   8.680   8.053 -0.4073  0.4199  0.0324
23332SOL    HW272889   4.034   8.669   8.032 -0.4769 -0.1124  0.7727
23333SOL     OW72890   4.581   8.553   5.851 -0.3957 -0.0977  0.0096
23333SOL    HW172891   4.500   8.506   5.870 -0.7851  0.3313 -0.5616
23333SOL    HW272892   4.600   8.532   5.759  0.4771 -0.6958  0.3145
23334SOL     OW72893   0.869   8.555   7.455  0.3056 -0.0610  0.1969
23334SOL    HW172894   0.832   8.534   7.369 -0.4448 -0.6728  0.6629
23334SOL    HW272895   0.942   8.614   7.435  0.0822 -0.1136 -0.8526
23335SOL     OW72896   3.426   0.820   4.164  0.1078  0.3408 -0.1277
23335SOL    HW172897   3.476   0.885   4.115  0.4483  1.3238  1.4274
23335SOL    HW272898   3.447   0.838   4.256 -1.1943 -0.8189  0.4417
23336SOL     OW72899   6.031   3.672   5.852 -0.2667 -0.3123 -0.2328
23336SOL    HW172900   5.947   3.648   5.889 -1.0679  1.0783 -1.0666
23336SOL    HW272901   6.053   3.755   5.894  0.9286 -0.8579  0.2966
23337SOL     OW72902   2.923   8.067   4.072  0.1260  0.0157  0.7025
23337SOL    HW172903   2.863   8.135   4.040 -1.0089 -2.8170 -4.1315
23337SOL    HW272904   3.010   8.096   4.043 -0.0144  0.4294  0.6852
23338SOL     OW72905   2.552   2.900   2.257 -0.0378  0.3701 -0.2795
23338SOL    HW172906   2.476   2.913   2.313  0.4060  0.3815  0.3326
23338SOL    HW272907   2.528   2.828   2.199 -0.9468  1.1376 -0.8825
23339SOL     OW72908   2.482   7.220   8.138  0.3757 -0.6708  0.0990
23339SOL    HW172909   2.523   7.148   8.090  2.0956  0.3249 -0.0361
23339SOL    HW272910   2.540   7.233   8.214  1.0925  1.6263 -0.7689
23340SOL     OW72911   2.945   3.953   1.366  0.1221 -0.7728  0.6369
23340SOL    HW172912   2.923   3.930   1.275 -1.3813 -1.3425  1.1039
23340SOL    HW272913   3.004   4.028   1.358  2.2950 -2.5149 -0.8634
23341SOL     OW72914   7.135   7.453   7.447  0.2690 -0.1803  0.3290
23341SOL    HW172915   7.187   7.519   7.493  1.6839  0.7088 -2.2965
23341SOL    HW272916   7.194   7.378   7.438 -0.0734 -0.4348  0.2030
23342SOL     OW72917   3.993   7.717   8.185  0.1790 -0.2528  0.0100
23342SOL    HW172918   3.954   7.633   8.208 -0.5969 -0.1162 -0.7394
23342SOL    HW272919   3.927   7.760   8.130  0.4016  1.0166  0.6983
23343SOL     OW72920   9.061   3.731   7.936  0.2910  0.1691 -0.1514
23343SOL    HW172921   9.156   3.740   7.939  0.3805 -0.9021  1.2236
23343SOL    HW272922   9.029   3.821   7.933  1.3249  0.6730  1.9524
23344SOL     OW72923   8.359   6.704   1.537  0.7779  0.3396  0.5345
23344SOL    HW172924   8.419   6.754   1.481 -0.4199 -0.5364 -1.6469
23344SOL    HW272925   8.400   6.617   1.543  0.6871  0.3065  0.6571
23345SOL     OW72926   9.518   1.156   9.176  0.7736 -0.0148  0.3758
23345SOL    HW172927   9.513   1.131   9.084 -0.0828  0.0563  0.3917
23345SOL    HW272928   9.602   1.121   9.207  0.2259 -1.7027  0.0508
23346SOL     OW72929   3.004   5.119   6.913  0.3224  0.1493 -0.4517
23346SOL    HW172930   3.070   5.109   6.981 -0.0141 -1.2440 -0.2895
23346SOL    HW272931   2.953   5.037   6.917 -2.4628  1.7793  0.5549
23347SOL     OW72932   5.427   1.953   0.960  0.7557 -0.0525 -0.6335
23347SOL    HW172933   5.495   1.954   0.893  1.5174 -3.1808 -0.0472
23347SOL    HW272934   5.396   1.863   0.961 -1.9263  0.7777  0.6539
23348SOL     OW72935   7.563   3.611   5.574 -0.4093 -0.5695  0.1412
23348SOL    HW172936   7.614   3.689   5.593  0.4068 -1.6335  2.8309
23348SOL    HW272937   7.560   3.606   5.479 -1.7049  3.4608 -0.2052
23349SOL     OW72938   1.791   0.653   3.583  0.1384  0.1553 -0.3603
23349SOL    HW172939   1.715   0.709   3.599  0.4677  0.6823 -0.5916
23349SOL    HW272940   1.865   0.714   3.581  0.3559 -0.1052 -1.9583
23350SOL     OW72941   6.773   3.219   8.074  0.2088  0.0978 -0.0266
23350SOL    HW172942   6.856   3.244   8.116  0.6473 -2.7561  0.9984
23350SOL    HW272943   6.759   3.128   8.099 -2.7859  0.1710 -0.9893
23351SOL     OW72944   3.778   6.222   2.311 -0.2896 -0.2165  0.3677
23351SOL    HW172945   3.796   6.163   2.383  1.7953 -0.2144 -0.0776
23351SOL    HW272946   3.832   6.189   2.239 -0.8325  0.9002 -0.5923
23352SOL     OW72947   2.614   9.368   7.722 -0.7202 -0.3276 -0.2209
23352SOL    HW172948   2.574   9.282   7.736 -1.9111  0.0455 -1.0953
23352SOL    HW272949   2.564   9.405   7.649 -0.9058  1.5005  0.7741
23353SOL     OW72950   1.072   1.520   2.869  0.0754 -0.9934  0.3498
23353SOL    HW172951   1.139   1.572   2.824 -0.7394  0.0338  0.2942
23353SOL    HW272952   1.002   1.510   2.804 -0.7488 -0.2082  1.0871
23354SOL     OW72953   2.267   3.556   3.665  0.2287 -0.3751 -0.4909
23354SOL    HW172954   2.238   3.630   3.612  0.8138  0.1782 -0.0465
23354SOL    HW272955   2.229   3.572   3.752 -1.6324 -1.8296 -0.9770
23355SOL     OW72956   1.427   4.091   2.338  0.2340  0.4450  0.1835
23355SOL    HW172957   1.365   4.040   2.286  1.4589 -0.9538  0.0097
23355SOL    HW272958   1.505   4.097   2.283  1.2701 -0.3558  1.4950
23356SOL     OW72959   9.483   9.541   5.058  0.7477 -0.3711 -0.2344
23356SOL    HW172960   9.491   9.594   4.979 -3.7702  0.6934 -0.2823
23356SOL    HW272961   9.477   9.605   5.129  1.2388 -1.1583  0.5387
23357SOL     OW72962   2.519   0.425   4.793  0.0442  0.0261  0.0418
23357SOL    HW172963   2.547   0.515   4.812  0.4544 -0.0011 -0.4318
23357SOL    HW272964   2.598   0.372   4.804 -0.3148 -0.3691  0.8761
23358SOL     OW72965   7.795   8.488   4.694 -0.6486  0.5520  0.4058
23358SOL    HW172966   7.812   8.486   4.599  0.7639 -4.1298  0.4788
23358SOL    HW272967   7.714   8.439   4.704  0.1163 -0.5297  1.6380
23359SOL     OW72968   9.246   3.877   9.497  0.5048  0.6677 -0.6657
23359SOL    HW172969   9.166   3.865   9.446  0.2491  2.0863 -0.6309
23359SOL    HW272970   9.316   3.857   9.435  0.1439 -0.2163 -0.8037
23360SOL     OW72971   4.705   7.228   9.462 -0.3576 -0.0378  0.3178
23360SOL    HW172972   4.779   7.168   9.454 -0.7122 -0.3765 -0.5122
23360SOL    HW272973   4.681   7.222   9.554  1.5692  1.2110  0.9628
23361SOL     OW72974   6.652   2.918   4.686  0.5963  0.2084 -0.1822
23361SOL    HW172975   6.617   2.843   4.735 -1.6116 -0.2590 -2.2701
23361SOL    HW272976   6.579   2.947   4.631  2.2333  2.1559 -1.4822
23362SOL     OW72977   9.122   2.835   6.528 -0.2139 -0.2758  0.3242
23362SOL    HW172978   9.207   2.877   6.540 -0.2227 -0.5240  1.3743
23362SOL    HW272979   9.083   2.879   6.453 -0.2840  1.6951  1.4707
23363SOL     OW72980   4.661   6.610   0.713  0.3373  0.1774 -0.2100
23363SOL    HW172981   4.697   6.699   0.720 -1.9466  1.2032 -0.5744
23363SOL    HW272982   4.577   6.615   0.759 -1.2923 -0.9149 -2.8581
23364SOL     OW72983   8.719   4.924   5.695 -0.4026 -0.6102  0.2857
23364SOL    HW172984   8.790   4.885   5.746  0.7669 -0.7427 -1.3712
23364SOL    HW272985   8.665   4.970   5.760 -0.2484 -2.5948  1.9366
23365SOL     OW72986   3.087   7.042   4.329 -0.0194  0.0145 -0.0553
23365SOL    HW172987   3.158   6.995   4.286 -1.7557 -0.3132 -2.7619
23365SOL    HW272988   3.016   6.978   4.334 -0.8804  0.9960  0.5552
23366SOL     OW72989   5.548   5.987   0.298  0.1273 -0.0735  0.7171
23366SOL    HW172990   5.609   6.056   0.325  0.5913 -0.4454  0.6332
23366SOL    HW272991   5.508   5.957   0.379  1.9484 -1.5949  1.1237
23367SOL     OW72992   1.142   8.385   2.501 -0.6157  0.3714 -0.2259
23367SOL    HW172993   1.172   8.472   2.477  1.4255 -0.2504 -0.1305
23367SOL    HW272994   1.185   8.327   2.438 -1.5035 -0.6199  0.0535
23368SOL     OW72995   2.791   3.103   7.692 -0.1106 -0.3811 -0.4133
23368SOL    HW172996   2.781   3.163   7.765 -0.9935 -1.3571  0.2916
23368SOL    HW272997   2.817   3.020   7.733  3.4639 -0.0082 -1.5109
23369SOL     OW72998   2.372   8.262   8.986 -0.6568 -0.4476  0.2197
23369SOL    HW172999   2.448   8.224   8.940 -1.1739  0.8689 -1.8359
23369SOL    HW273000   2.399   8.263   9.078  0.3756 -3.3372  0.0632
23370SOL     OW73001   5.781   2.738   5.378 -0.5470 -0.1571  0.4012
23370SOL    HW173002   5.769   2.657   5.329 -0.8310  1.0062 -1.5525
23370SOL    HW273003   5.757   2.807   5.316 -2.2697  1.3754  2.6011
23371SOL     OW73004   6.807   0.659   3.452 -0.2045  0.0049  0.5447
23371SOL    HW173005   6.883   0.664   3.510 -0.6549  0.7085  1.0854
23371SOL    HW273006   6.791   0.750   3.426  0.6388 -0.3758 -1.5467
23372SOL     OW73007   9.113   9.394   5.364 -0.8060 -0.6596  0.0479
23372SOL    HW173008   9.078   9.306   5.380  0.9529 -1.4303 -0.1059
23372SOL    HW273009   9.114   9.403   5.269 -1.1667 -0.3957  0.0689
23373SOL     OW73010   0.311   3.864   6.548  0.0372 -0.1339 -0.8393
23373SOL    HW173011   0.230   3.872   6.597  0.8318 -2.2683  0.9857
23373SOL    HW273012   0.347   3.953   6.546 -0.6696  0.2654  1.3970
23374SOL     OW73013   0.065   0.958   8.613 -0.1317 -0.3889  0.5131
23374SOL    HW173014   0.049   1.050   8.635 -1.5228 -0.0584 -1.6369
23374SOL    HW273015   0.156   0.955   8.584 -0.5417  0.6919 -1.0033
23375SOL     OW73016   5.443   1.939   8.925  0.0468  0.4090  0.3422
23375SOL    HW173017   5.379   1.971   8.861 -0.2309 -0.5983  0.1048
23375SOL    HW273018   5.527   1.943   8.879  0.1363  1.4439  0.5540
23376SOL     OW73019   8.076   0.309   6.918  0.2310  0.5556 -0.0206
23376SOL    HW173020   8.035   0.396   6.920  1.1587  1.0017  0.0355
23376SOL    HW273021   8.125   0.303   7.000  0.2550  0.0201 -0.0711
23377SOL     OW73022   8.971   3.878   8.324  0.1835  0.1235 -0.1913
23377SOL    HW173023   8.923   3.959   8.341  0.0898  0.0661 -0.1803
23377SOL    HW273024   9.055   3.907   8.288  0.5940  0.2622  0.8523
23378SOL     OW73025   4.843   7.326   2.070 -0.1167  0.2408  0.2450
23378SOL    HW173026   4.831   7.421   2.076  0.3374  0.5557 -2.6165
23378SOL    HW273027   4.933   7.315   2.040 -0.6842 -0.9841 -1.1022
23379SOL     OW73028   8.805   1.187   9.200 -0.0532  0.3421 -0.5400
23379SOL    HW173029   8.790   1.269   9.153 -0.7812 -0.8041 -2.4394
23379SOL    HW273030   8.882   1.149   9.158  0.1529 -0.0652  0.1795
23380SOL     OW73031   3.406   4.422   9.507 -0.3869  0.6836  0.3184
23380SOL    HW173032   3.353   4.365   9.561  1.8283 -1.4615  0.3988
23380SOL    HW273033   3.403   4.383   9.420  1.6879 -0.0601  0.5149
23381SOL     OW73034   7.366   2.817   7.260  0.1560  0.0233  0.0001
23381SOL    HW173035   7.303   2.755   7.295  1.4474 -0.3759  1.7982
23381SOL    HW273036   7.417   2.845   7.337  1.8622  0.6579 -1.2921
23382SOL     OW73037   3.571   9.638   4.269 -0.1515 -0.0087  0.2363
23382SOL    HW173038   3.614   9.570   4.320  1.5519 -0.1440 -1.2858
23382SOL    HW273039   3.637   9.666   4.205 -1.3059  2.0110 -0.1657
23383SOL     OW73040   6.786   4.257   1.256 -0.0557  0.1843 -0.2752
23383SOL    HW173041   6.795   4.237   1.349 -1.5627 -0.5482 -0.2538
23383SOL    HW273042   6.794   4.172   1.212  2.0315  0.6781 -0.9765
23384SOL     OW73043   8.322   4.171   3.217 -0.4554 -0.6814 -0.3150
23384SOL    HW173044   8.393   4.218   3.174  0.0831 -1.2163 -0.0135
23384SOL    HW273045   8.246   4.228   3.206  0.2501  0.4242  0.3106
23385SOL     OW73046   9.104   4.091   9.181 -0.0492  0.0971  0.3563
23385SOL    HW173047   9.031   4.117   9.124 -0.3542  1.3609  1.2766
23385SOL    HW273048   9.125   4.170   9.231  2.5790  0.0616 -0.5117
23386SOL     OW73049   1.516   1.805   8.946 -0.5024 -0.2700 -0.0178
23386SOL    HW173050   1.535   1.797   8.852  1.5467 -0.4051  0.3537
23386SOL    HW273051   1.463   1.728   8.966 -2.6789  0.7782 -1.4151
23387SOL     OW73052   3.970   5.754   2.646  0.0047 -0.8866 -0.3954
23387SOL    HW173053   4.003   5.835   2.686 -2.3375  0.3112 -0.7473
23387SOL    HW273054   3.930   5.706   2.718  0.8782 -1.4963 -0.2973
23388SOL     OW73055   1.704   1.270   3.076  0.2435  0.3937  0.2155
23388SOL    HW173056   1.754   1.266   2.995  1.2343  3.1754  0.5664
23388SOL    HW273057   1.657   1.353   3.070  0.1850  0.5623  2.3671
23389SOL     OW73058   2.879   4.035   6.051 -0.0091  0.3877  0.0386
23389SOL    HW173059   2.858   3.958   5.999  0.2834  0.6319 -0.4497
23389SOL    HW273060   2.916   4.097   5.988  1.1197  0.3792  0.6734
23390SOL     OW73061   3.380   3.578   7.843 -0.3326 -0.0427  0.4405
23390SOL    HW173062   3.443   3.639   7.881  1.1983 -0.0491 -1.8957
23390SOL    HW273063   3.376   3.505   7.906  0.8248  0.6469  1.3567
23391SOL     OW73064   8.078   8.004   8.796  0.0299  0.3305 -0.0787
23391SOL    HW173065   8.013   8.027   8.730  1.1898  1.6498 -0.8198
23391SOL    HW273066   8.068   8.072   8.863  0.8776  0.7597 -0.3797
23392SOL     OW73067   1.232   0.906   5.160  0.6614 -0.0766  0.3380
23392SOL    HW173068   1.309   0.863   5.198  0.1067  0.4470  2.1493
23392SOL    HW273069   1.169   0.910   5.232 -1.4890 -1.4058 -1.3857
23393SOL     OW73070   3.973   2.240   1.397  0.3480 -0.2341 -0.1579
23393SOL    HW173071   3.964   2.191   1.315  0.6114 -2.3067  1.0098
23393SOL    HW273072   4.067   2.246   1.411  0.2853 -0.7674  0.5050
23394SOL     OW73073   3.403   6.878   1.585 -0.1918  0.2666  0.3636
23394SOL    HW173074   3.431   6.786   1.577  0.7936  0.7198 -2.9722
23394SOL    HW273075   3.480   6.924   1.619 -0.3360  0.0285  1.0239
23395SOL     OW73076   7.621   2.123   2.698  0.0879  0.2265  0.7380
23395SOL    HW173077   7.640   2.216   2.707 -1.9477  0.8677 -0.7170
23395SOL    HW273078   7.548   2.108   2.758 -0.9648  0.0945 -0.5391
23396SOL     OW73079   2.367   2.921   1.606 -0.2542  0.0277  0.4610
23396SOL    HW173080   2.381   2.999   1.660 -1.0465  0.8747 -0.5101
23396SOL    HW273081   2.274   2.901   1.617  0.2563 -1.7100  1.8853
23397SOL     OW73082   6.574   8.008   7.974 -0.5604  0.2159 -0.1350
23397SOL    HW173083   6.567   8.028   7.880 -1.1033 -0.2080 -0.1946
23397SOL    HW273084   6.603   7.917   7.976  1.4918  0.8307  0.1243
23398SOL     OW73085   5.434   9.459   2.587 -0.3840  0.0302  0.3591
23398SOL    HW173086   5.388   9.539   2.561  0.4930  0.8236  1.1927
23398SOL    HW273087   5.443   9.466   2.682  2.2950  0.3896  0.1439
23399SOL     OW73088   5.000   1.686   7.899 -0.1914  0.3549  0.4793
23399SOL    HW173089   5.046   1.606   7.925 -1.3605  0.1338  2.0896
23399SOL    HW273090   4.956   1.715   7.979 -0.4685  2.1600 -0.2762
23400SOL     OW73091   6.064   0.081   4.012  0.2702  0.2441  0.3333
23400SOL    HW173092   6.080   0.165   4.055 -0.6785  0.9390 -0.6109
23400SOL    HW273093   6.036   0.023   4.082  0.3530  0.8869  0.9115
23401SOL     OW73094   7.152   6.087   2.093  0.1895 -0.0838  0.2645
23401SOL    HW173095   7.113   6.043   2.169 -0.6543 -0.5849 -0.4383
23401SOL    HW273096   7.237   6.043   2.082 -0.2089 -0.8645  0.1904
23402SOL     OW73097   1.154   0.849   8.987  0.2259  0.3662  0.6352
23402SOL    HW173098   1.065   0.871   9.015 -0.8229 -2.5091 -0.0422
23402SOL    HW273099   1.159   0.880   8.897 -1.2167 -1.9232 -0.3186
23403SOL     OW73100   5.515   0.427   6.246 -0.2091  0.1040 -0.1152
23403SOL    HW173101   5.515   0.373   6.167 -1.1341 -2.0642  1.2757
23403SOL    HW273102   5.602   0.467   6.248  0.7782 -1.9084 -0.8614
23404SOL     OW73103   1.507   3.200   9.339 -0.8585  0.3141 -0.4214
23404SOL    HW173104   1.427   3.231   9.382 -0.9884 -0.7257  0.1294
23404SOL    HW273105   1.510   3.106   9.359  0.7468  0.4144 -0.0223
23405SOL     OW73106   1.672   7.012   9.446 -0.4111  0.3975  0.1990
23405SOL    HW173107   1.764   7.037   9.443 -0.1904 -0.3653  0.6005
23405SOL    HW273108   1.630   7.070   9.382  0.7139 -0.7597 -1.7094
23406SOL     OW73109   4.859   4.221   3.242 -0.4737  0.2475 -0.0574
23406SOL    HW173110   4.929   4.242   3.181  0.4710 -0.0525  0.8972
23406SOL    HW273111   4.845   4.303   3.290  0.7865 -0.2745  1.2673
23407SOL     OW73112   8.677   7.922   4.472  0.0523  0.0558  0.1546
23407SOL    HW173113   8.652   7.998   4.419 -2.1648 -1.1966 -0.7418
23407SOL    HW273114   8.627   7.933   4.553  1.8383  0.8996  1.1969
23408SOL     OW73115   2.297   1.783   5.295  0.4429 -0.3390  0.1534
23408SOL    HW173116   2.250   1.752   5.218  0.5976  1.1083 -0.5503
23408SOL    HW273117   2.351   1.709   5.322 -1.0739 -1.5234  0.0768
23409SOL     OW73118   2.009   8.482   1.455  0.4782  0.5537  0.2868
23409SOL    HW173119   2.048   8.395   1.446 -1.4018 -0.6218  2.4448
23409SOL    HW273120   1.978   8.503   1.367  1.2176 -0.8304 -0.3445
23410SOL     OW73121   7.095   1.916   2.415  0.1123  0.0817  0.1994
23410SOL    HW173122   7.184   1.896   2.386 -1.4535 -1.6189 -4.2543
23410SOL    HW273123   7.072   1.997   2.370 -0.4958  0.8111  1.7434
23411SOL     OW73124   8.487   8.882   9.195  0.4451  0.4605  0.1295
23411SOL    HW173125   8.527   8.913   9.114  2.5296  0.1171  0.9569
23411SOL    HW273126   8.560   8.870   9.255 -0.8687 -0.7587  1.5941
23412SOL     OW73127   1.205   6.351   2.342  0.1616  0.4011  0.0646
23412SOL    HW173128   1.283   6.349   2.287 -1.6933 -0.5553 -2.8024
23412SOL    HW273129   1.167   6.438   2.326 -0.7500 -0.1342 -0.8112
23413SOL     OW73130   9.282   9.347   0.618  0.5240 -0.0767 -0.2508
23413SOL    HW173131   9.206   9.395   0.650  1.9234  1.6887  0.6451
23413SOL    HW273132   9.335   9.331   0.696  1.6279 -0.2076 -0.9956
23414SOL     OW73133   0.542   5.610   3.908  0.5038 -0.6506  0.4840
23414SOL    HW173134   0.543   5.685   3.849 -1.0213 -2.5946 -2.2600
23414SOL    HW273135   0.452   5.577   3.904  0.6199 -1.5566  3.1446
23415SOL     OW73136   5.896   3.268   0.725 -0.1207 -0.0851 -0.0836
23415SOL    HW173137   5.878   3.184   0.681  0.1544  0.3074 -0.9794
23415SOL    HW273138   5.839   3.268   0.802 -1.5666 -0.2642 -1.1122
23416SOL     OW73139   0.229   0.982   7.135 -0.4787  0.5144  0.1527
23416SOL    HW173140   0.283   1.015   7.206 -1.7351  1.7604  0.5793
23416SOL    HW273141   0.214   0.890   7.157  2.7362 -0.3832 -0.8334
23417SOL     OW73142   5.018   5.481   2.816 -0.5700 -0.5261  0.3482
23417SOL    HW173143   5.048   5.437   2.896  1.0984  0.0859  0.0965
23417SOL    HW273144   4.956   5.547   2.848 -0.4244 -0.7273  1.0787
23418SOL     OW73145   8.539   3.522   2.005 -0.0802  0.1915 -0.5012
23418SOL    HW173146   8.600   3.484   1.942  0.5414  0.2289  0.0792
23418SOL    HW273147   8.591   3.539   2.083 -0.7328  0.6317 -0.1494
23419SOL     OW73148   7.314   4.340   8.315 -0.3262  0.3131 -0.1436
23419SOL    HW173149   7.365   4.311   8.239 -0.6705  1.3665 -0.8057
23419SOL    HW273150   7.225   4.312   8.296 -0.4201  0.6147 -0.1584
23420SOL     OW73151   3.903   4.092   1.075 -0.1928 -0.5609 -0.1109
23420SOL    HW173152   3.984   4.098   1.024  0.5195 -0.6891  0.9690
23420SOL    HW273153   3.893   3.999   1.092  0.0450 -0.4481  0.6893
23421SOL     OW73154   7.441   4.274   7.841  0.6275 -0.1403  0.3771
23421SOL    HW173155   7.356   4.266   7.885 -0.6207  1.8574 -1.5078
23421SOL    HW273156   7.455   4.188   7.801  0.3653 -1.0386  2.1000
23422SOL     OW73157   0.869   3.614   3.646  0.0758 -0.0188 -0.2611
23422SOL    HW173158   0.952   3.658   3.628  0.5704 -1.0893 -0.6690
23422SOL    HW273159   0.831   3.596   3.560  0.1879 -0.9452 -0.1316
23423SOL     OW73160   1.409   2.520   9.481 -0.3265  0.3545 -0.1400
23423SOL    HW173161   1.358   2.547   9.558 -0.8292  0.4112 -0.4885
23423SOL    HW273162   1.348   2.528   9.408  0.1980  0.4667 -0.5731
23424SOL     OW73163   4.974   2.582   2.778  0.2114 -0.3399 -0.0060
23424SOL    HW173164   4.996   2.669   2.743  2.8663 -0.6766  0.5833
23424SOL    HW273165   4.969   2.595   2.873 -0.8600 -0.5756 -0.0218
23425SOL     OW73166   6.167   6.649   9.261 -0.0888 -0.3342 -0.4726
23425SOL    HW173167   6.122   6.681   9.183 -1.3249  1.1857  0.8051
23425SOL    HW273168   6.253   6.691   9.258 -1.2492  2.3041  0.5420
23426SOL     OW73169   3.793   2.677   8.491  0.0138  0.0140 -0.2875
23426SOL    HW173170   3.702   2.701   8.475 -1.1719 -2.1051  2.4173
23426SOL    HW273171   3.813   2.613   8.422 -0.6159  0.3514 -0.7909
23427SOL     OW73172   1.820   4.334   1.199 -0.0896  0.0557  0.3383
23427SOL    HW173173   1.840   4.252   1.155 -1.0042 -0.6641  1.2326
23427SOL    HW273174   1.829   4.401   1.131  0.2943 -0.8187 -0.4849
23428SOL     OW73175   1.845   3.840   7.582  0.3400 -0.4625 -0.8791
23428SOL    HW173176   1.928   3.800   7.557  0.0104 -1.1148 -0.9499
23428SOL    HW273177   1.781   3.770   7.574 -0.0971 -0.1755 -0.0675
23429SOL     OW73178   7.267   6.406   8.689  0.2776  0.5501  0.3624
23429SOL    HW173179   7.215   6.486   8.692  0.4646  0.6768  0.2150
23429SOL    HW273180   7.324   6.417   8.614 -1.8868 -1.0679 -1.6956
23430SOL     OW73181   5.546   8.562   8.879  0.1289 -0.1120  0.2836
23430SOL    HW173182   5.548   8.511   8.960  0.5239 -0.1217  0.2708
23430SOL    HW273183   5.468   8.616   8.887  1.3611  1.5829  1.7351
23431SOL     OW73184   7.581   3.160   7.411 -0.2144  0.4338 -0.4033
23431SOL    HW173185   7.592   3.138   7.319  2.0688 -0.5173  0.0371
23431SOL    HW273186   7.594   3.077   7.457 -2.3228  0.6749  0.7643
23432SOL     OW73187   1.814   2.240   1.006 -0.0315 -0.0892 -0.4477
23432SOL    HW173188   1.831   2.242   1.100  0.3375 -3.1450 -0.3473
23432SOL    HW273189   1.719   2.247   0.998 -0.1870 -1.1442  0.2880
23433SOL     OW73190   3.819   2.339   1.944  0.0951  0.1732 -0.4880
23433SOL    HW173191   3.841   2.428   1.971  0.9754 -0.2578  0.2807
23433SOL    HW273192   3.894   2.310   1.893  2.2221 -1.8217  3.3544
23434SOL     OW73193   1.326   5.159   5.828 -0.2352 -0.6271  0.4135
23434SOL    HW173194   1.262   5.121   5.888  0.1405 -1.6141  0.2121
23434SOL    HW273195   1.294   5.247   5.811 -1.1965 -0.8896  0.8137
23435SOL     OW73196   7.294   4.869   4.394  0.3735 -0.0960  0.3247
23435SOL    HW173197   7.330   4.848   4.308 -2.0131 -0.7815 -0.5805
23435SOL    HW273198   7.285   4.964   4.393  2.5944  0.1856  0.8329
23436SOL     OW73199   8.043   8.962   5.349 -0.0321  0.7520 -0.4012
23436SOL    HW173200   8.087   8.937   5.268  0.8374 -2.2929  0.8504
23436SOL    HW273201   7.950   8.948   5.331 -0.0178  1.7160 -1.3302
23437SOL     OW73202   4.728   4.191   8.664  0.2309 -0.4097 -0.1016
23437SOL    HW173203   4.802   4.223   8.611  0.9397 -1.2496  0.3570
23437SOL    HW273204   4.676   4.139   8.604 -0.8952  1.4645 -0.8404
23438SOL     OW73205   5.349   0.445   8.946  0.3366 -0.5172 -0.1574
23438SOL    HW173206   5.304   0.516   8.899  0.6623  0.5580  1.1098
23438SOL    HW273207   5.278   0.389   8.978  0.0471 -0.4411 -0.6506
23439SOL     OW73208   1.978   6.803   1.579  0.3452  0.7112  0.5721
23439SOL    HW173209   1.892   6.844   1.569  0.7778  1.6310  0.4986
23439SOL    HW273210   1.963   6.732   1.641 -0.4824  0.8145  0.5083
23440SOL     OW73211   8.060   0.477   8.548 -0.3556  0.0482  0.4037
23440SOL    HW173212   7.980   0.527   8.532 -0.6378 -0.7966 -0.9956
23440SOL    HW273213   8.115   0.494   8.472  0.9642  0.8560  1.4809
23441SOL     OW73214   2.320   2.946   3.431 -0.7887  0.0519 -1.1025
23441SOL    HW173215   2.279   2.887   3.494  1.3447  0.0428  0.3932
23441SOL    HW273216   2.373   3.005   3.485 -0.7421  1.6059 -2.7487
23442SOL     OW73217   5.552   1.700   5.800 -0.5143 -0.0698  0.1861
23442SOL    HW173218   5.564   1.695   5.895 -2.2162  2.8158  0.6907
23442SOL    HW273219   5.631   1.742   5.767 -0.5267  0.2536  0.5647
23443SOL     OW73220   0.947   6.443   4.157 -0.2199 -0.3227 -0.0559
23443SOL    HW173221   0.939   6.534   4.185  0.2689 -0.0829 -0.6680
23443SOL    HW273222   1.036   6.418   4.180 -0.2603 -0.5602 -0.1475
23444SOL     OW73223   3.024   0.659   4.901  0.4729  0.2718  0.8465
23444SOL    HW173224   3.066   0.702   4.975  0.4556 -1.0599  1.6643
23444SOL    HW273225   2.974   0.587   4.940 -0.9917  0.6192 -0.2911
23445SOL     OW73226   4.366   5.401   5.000  0.3049  0.4395  0.1105
23445SOL    HW173227   4.334   5.314   5.021  0.2906  0.7379  1.3819
23445SOL    HW273228   4.296   5.441   4.949  0.0869 -0.0981 -0.0117
23446SOL     OW73229   1.921   5.095   3.731  0.5481 -0.3549  0.6661
23446SOL    HW173230   2.001   5.125   3.687 -0.2393  0.3114 -0.3864
23446SOL    HW273231   1.857   5.164   3.713  0.4038  0.4335  3.7298
23447SOL     OW73232   9.123   1.728   0.908  0.0335  0.2079 -0.0869
23447SOL    HW173233   9.028   1.721   0.921  0.1445 -1.9385 -0.0356
23447SOL    HW273234   9.132   1.766   0.821 -0.8432  1.1983  0.2265
23448SOL     OW73235   7.089   7.691   5.807  0.6774 -0.1931 -0.2466
23448SOL    HW173236   7.155   7.666   5.872  0.8401 -1.1798 -0.7767
23448SOL    HW273237   7.139   7.730   5.735  0.6449 -0.5092 -0.4428
23449SOL     OW73238   5.390   1.682   6.116  0.1133  0.2922  0.3800
23449SOL    HW173239   5.332   1.751   6.147 -0.1185  0.1454  0.2767
23449SOL    HW273240   5.470   1.728   6.089  0.5362  0.3687  1.7054
23450SOL     OW73241   4.927   5.473   5.720  0.4703 -0.3136 -0.0923
23450SOL    HW173242   4.992   5.457   5.651 -0.3689 -1.4808 -0.6390
23450SOL    HW273243   4.845   5.488   5.674  0.1019 -0.0084  0.6350
23451SOL     OW73244   2.234   8.886   7.906  0.4732 -0.2490  0.0179
23451SOL    HW173245   2.269   8.797   7.895  3.1839  0.7134  0.0734
23451SOL    HW273246   2.238   8.902   8.000 -0.0035 -0.0704  0.0087
23452SOL     OW73247   6.299   6.505   5.659 -0.1310 -0.1101 -0.3244
23452SOL    HW173248   6.372   6.450   5.689 -0.8107  0.2183  2.1956
23452SOL    HW273249   6.331   6.545   5.579  1.1406 -2.5996 -1.1800
23453SOL     OW73250   3.281   7.265   3.125 -0.0156 -0.2256 -0.2041
23453SOL    HW173251   3.243   7.177   3.126  0.3065 -0.3806  1.6949
23453SOL    HW273252   3.205   7.323   3.117 -0.4158 -0.6288  0.5603
23454SOL     OW73253   5.089   0.769   0.458 -0.1275 -0.0025  0.0733
23454SOL    HW173254   5.104   0.810   0.542  0.5767 -0.1102  0.0116
23454SOL    HW273255   5.147   0.693   0.458 -0.9440 -0.6389 -0.0629
23455SOL     OW73256   0.508   1.521   8.352 -0.2783  0.0538  0.3420
23455SOL    HW173257   0.550   1.538   8.268 -1.1722 -0.9803 -0.3462
23455SOL    HW273258   0.555   1.576   8.414 -0.1016  1.4145 -0.9561
23456SOL     OW73259   9.418   1.617   1.922 -0.3154 -0.2023  0.2585
23456SOL    HW173260   9.465   1.697   1.901  0.0180 -0.4201  0.1717
23456SOL    HW273261   9.467   1.579   1.995  1.6394 -2.1271 -1.9036
23457SOL     OW73262   5.852   6.978   3.510 -0.0635  0.7341 -0.2130
23457SOL    HW173263   5.887   7.001   3.596 -0.9121 -1.2071  0.7079
23457SOL    HW273264   5.922   7.001   3.448  0.3856  2.5717  0.9155
23458SOL     OW73265   1.543   1.368   8.412 -0.7728 -0.2713  0.4310
23458SOL    HW173266   1.542   1.440   8.350  0.5556 -0.5779  0.0328
23458SOL    HW273267   1.451   1.342   8.419 -1.3428  1.6945  0.8995
23459SOL     OW73268   3.150   5.531   1.108  0.3028 -0.2858  0.1053
23459SOL    HW173269   3.216   5.487   1.055  0.1755 -0.8146  0.3761
23459SOL    HW273270   3.066   5.498   1.074  0.2353 -1.8714  1.6318
23460SOL     OW73271   6.420   5.517   3.917 -0.1164  0.3241  0.1869
23460SOL    HW173272   6.487   5.505   3.985  0.2687  0.9693 -0.0721
23460SOL    HW273273   6.339   5.533   3.966  0.2088  1.0545  0.5022
23461SOL     OW73274   7.704   1.771   0.042 -0.3656 -0.1610 -0.1693
23461SOL    HW173275   7.761   1.764   0.118 -0.2987 -2.6646 -0.3354
23461SOL    HW273276   7.758   1.809  -0.026 -0.8045  3.4048  1.2726
23462SOL     OW73277   4.565   9.273   4.888  0.1420  0.8838  0.0980
23462SOL    HW173278   4.627   9.205   4.861 -1.7248 -1.0729  0.4654
23462SOL    HW273279   4.539   9.248   4.976 -0.7197  1.9929  0.1821
23463SOL     OW73280   2.803   1.800   0.801 -0.0840  0.3655 -0.1152
23463SOL    HW173281   2.835   1.746   0.873 -0.2071  0.8879  0.3312
23463SOL    HW273282   2.729   1.751   0.766 -0.7333  0.6547  0.8379
23464SOL     OW73283   1.884   1.139   7.633  0.7208 -0.4674  0.5269
23464SOL    HW173284   1.804   1.102   7.596  0.7397  1.7487 -2.0857
23464SOL    HW273285   1.943   1.064   7.643 -0.4776 -1.6618 -0.8886
23465SOL     OW73286   2.253   3.765   5.358 -0.2244 -0.1769 -0.4743
23465SOL    HW173287   2.246   3.811   5.441 -0.8104 -0.9582 -0.0711
23465SOL    HW273288   2.343   3.734   5.355 -0.2537 -0.3107 -0.0350
23466SOL     OW73289   0.353   3.490   7.134 -0.7994  0.4057 -0.1186
23466SOL    HW173290   0.295   3.558   7.100 -0.9760  0.1679 -0.2946
23466SOL    HW273291   0.365   3.430   7.060 -0.4084  0.4024 -0.0531
23467SOL     OW73292   8.509   8.471   5.666 -0.8766  0.2979  0.1391
23467SOL    HW173293   8.545   8.398   5.717 -2.0598 -0.4621 -0.0872
23467SOL    HW273294   8.528   8.449   5.575 -0.1121  0.9118  0.1386
23468SOL     OW73295   4.799   7.282   4.794  0.4272 -0.1814 -0.3664
23468SOL    HW173296   4.779   7.350   4.730 -2.2821 -1.2845 -0.8292
23468SOL    HW273297   4.736   7.297   4.865  2.0722 -0.1781  1.1520
23469SOL     OW73298   9.353   5.668   2.688 -0.2915  0.1961 -0.4704
23469SOL    HW173299   9.379   5.715   2.767  0.5736  0.3346 -0.8278
23469SOL    HW273300   9.361   5.733   2.618  2.3781 -0.8090 -1.2160
23470SOL     OW73301   2.378   4.025   5.761  0.3103  0.0538  0.2259
23470SOL    HW173302   2.369   4.101   5.819 -0.3019  0.0891  0.0917
23470SOL    HW273303   2.467   3.994   5.776  0.6035  0.8739  0.1887
23471SOL     OW73304   6.528   0.135   4.660  0.0329 -0.2072 -0.4120
23471SOL    HW173305   6.547   0.218   4.617 -0.2472  0.3549  0.5169
23471SOL    HW273306   6.503   0.159   4.749  0.8573 -1.3485  0.1620
23472SOL     OW73307   4.594   7.309   4.964 -0.1952 -0.2165 -0.0013
23472SOL    HW173308   4.548   7.364   4.901  0.4932  1.0153  0.5318
23472SOL    HW273309   4.528   7.289   5.031 -0.2439  0.6729  0.2286
23473SOL     OW73310   2.639   6.307   5.307 -0.3147  0.5175  0.1837
23473SOL    HW173311   2.570   6.247   5.279 -1.2642  1.4103  0.5584
23473SOL    HW273312   2.638   6.302   5.402  0.0743  0.6281  0.1971
23474SOL     OW73313   5.383   6.276   6.684  0.0606  0.1652 -0.3802
23474SOL    HW173314   5.379   6.208   6.617 -0.5683 -0.3863  0.2020
23474SOL    HW273315   5.391   6.358   6.635  0.2954 -0.2835 -1.1057
23475SOL     OW73316   4.096   2.540   2.450 -0.3322 -0.1800 -0.4508
23475SOL    HW173317   4.164   2.474   2.464 -0.0474  0.2617  0.2931
23475SOL    HW273318   4.125   2.616   2.500 -0.4630  0.6632 -1.6284
23476SOL     OW73319   1.831   5.772   5.441  0.4556  0.9454 -0.7940
23476SOL    HW173320   1.896   5.727   5.388 -0.7353 -0.9906 -0.7029
23476SOL    HW273321   1.751   5.719   5.432 -0.2079  1.3854  1.6997
23477SOL     OW73322   6.646   7.601   7.707 -0.3386 -0.2009 -0.9752
23477SOL    HW173323   6.649   7.506   7.719  1.4582 -0.2205 -1.3923
23477SOL    HW273324   6.715   7.620   7.644  0.0647  1.5137 -0.0781
23478SOL     OW73325   0.509   1.409   2.804 -0.5686  0.0180  0.0990
23478SOL    HW173326   0.589   1.391   2.853 -1.8356 -1.1289  1.8820
23478SOL    HW273327   0.536   1.408   2.713  1.5171  0.0983  0.6607
23479SOL     OW73328   4.681   6.560   4.998 -0.2284  0.5524 -0.2833
23479SOL    HW173329   4.771   6.575   5.027 -0.1975  1.1147 -0.6397
23479SOL    HW273330   4.680   6.593   4.908 -0.1895 -1.5437 -1.1130
23480SOL     OW73331   7.086   4.414   0.232 -0.2653  0.3554 -0.0884
23480SOL    HW173332   7.152   4.348   0.251  0.3949  1.2313  0.7586
23480SOL    HW273333   7.047   4.386   0.149 -0.6053 -1.5438  0.6648
23481SOL     OW73334   9.220   9.539   9.103  0.2067  0.2109  0.3293
23481SOL    HW173335   9.262   9.532   9.189  0.1565 -2.2337  0.2125
23481SOL    HW273336   9.213   9.449   9.072 -1.0281  0.9291 -1.6601
23482SOL     OW73337   6.598   2.177   1.544  0.0249  0.2216  0.4276
23482SOL    HW173338   6.538   2.196   1.617  1.5393  0.0220  1.7828
23482SOL    HW273339   6.545   2.128   1.481 -1.1960 -0.0682  1.6394
23483SOL     OW73340   8.214   6.858   6.853  0.1463  0.3027 -0.1811
23483SOL    HW173341   8.201   6.952   6.860  0.5749  0.4826 -1.5656
23483SOL    HW273342   8.131   6.824   6.819  0.5260  0.4137 -1.2657
23484SOL     OW73343   7.752   7.671   9.534 -0.5355 -0.2129 -0.0122
23484SOL    HW173344   7.845   7.646   9.530 -0.3494  0.5596 -0.9706
23484SOL    HW273345   7.744   7.743   9.472 -1.5138  0.6101  1.0236
23485SOL     OW73346   5.103   3.585   2.817 -0.3634  0.2145  0.1827
23485SOL    HW173347   5.016   3.556   2.842  0.4442 -2.1119  0.5918
23485SOL    HW273348   5.116   3.667   2.864 -2.8162  1.3570 -0.9858
23486SOL     OW73349   2.658   8.244   5.554  0.7537 -0.3795 -0.3926
23486SOL    HW173350   2.698   8.327   5.526  0.6126 -0.1756 -0.0076
23486SOL    HW273351   2.613   8.267   5.635  0.2855 -0.7231 -0.5548
23487SOL     OW73352   7.217   2.299   6.209  0.3688 -0.1065 -0.0867
23487SOL    HW173353   7.234   2.356   6.134  1.1207 -0.8655 -0.5117
23487SOL    HW273354   7.131   2.262   6.193 -0.3477  1.2633  0.4387
23488SOL     OW73355   8.465   6.725   2.171  0.5118  0.1256 -0.4228
23488SOL    HW173356   8.392   6.667   2.152  0.9854 -0.5495 -0.1881
23488SOL    HW273357   8.543   6.671   2.161  1.2116  1.5157 -3.5409
23489SOL     OW73358   3.013   4.042   5.384  0.0391 -0.5647 -0.8639
23489SOL    HW173359   2.998   4.041   5.478 -0.6718 -1.7578 -0.9744
23489SOL    HW273360   2.987   4.130   5.356  2.2624  0.5542  0.3313
23490SOL     OW73361   7.948   0.953   4.498  0.0381  0.1411  0.5001
23490SOL    HW173362   7.864   0.974   4.458  0.4278  0.1087 -0.3543
23490SOL    HW273363   7.996   0.905   4.431  1.1376  1.0525  0.5966
23491SOL     OW73364   4.210   2.843   0.866 -0.6301  0.2164 -0.5630
23491SOL    HW173365   4.115   2.853   0.861 -1.0939 -2.2111  1.4430
23491SOL    HW273366   4.240   2.918   0.918 -1.5514  0.5115 -0.4537
23492SOL     OW73367   5.786   1.198   2.150 -0.9136  0.9023  0.2383
23492SOL    HW173368   5.775   1.263   2.219 -0.0118 -0.5055  1.7583
23492SOL    HW273369   5.753   1.116   2.187 -0.0924  0.0350 -0.8604
23493SOL     OW73370   3.365   2.617   2.745 -0.3513  0.3066  0.2839
23493SOL    HW173371   3.272   2.636   2.735 -0.7997 -1.7413  0.0619
23493SOL    HW273372   3.391   2.581   2.659  0.2938 -0.4155  0.7669
23494SOL     OW73373   6.985   0.371   2.493  0.0781  0.5363 -0.0294
23494SOL    HW173374   6.946   0.418   2.419  0.7765  0.7524 -0.2657
23494SOL    HW273375   7.079   0.383   2.482  0.2583 -0.6781  0.0676
23495SOL     OW73376   4.847   7.387   5.102 -0.0972 -0.2327  0.4034
23495SOL    HW173377   4.772   7.364   5.048 -1.2341  1.1459  1.3022
23495SOL    HW273378   4.885   7.464   5.059  0.6708 -0.7752  0.0893
23496SOL     OW73379   1.680   7.162   1.383  0.1597  0.1520 -0.2488
23496SOL    HW173380   1.593   7.173   1.420  0.4955  1.0996  0.2989
23496SOL    HW273381   1.717   7.086   1.429  0.2822  0.8397  0.8105
23497SOL     OW73382   2.323   4.525   5.641 -0.3579  0.4673 -0.0428
23497SOL    HW173383   2.245   4.504   5.692 -1.3124  2.0912 -0.7448
23497SOL    HW273384   2.373   4.443   5.638 -1.7360 -0.4475  0.9240
23498SOL     OW73385   5.487   5.222   3.777 -0.6025  0.5568  0.1786
23498SOL    HW173386   5.414   5.161   3.788  0.8557 -1.9037 -2.3434
23498SOL    HW273387   5.465   5.270   3.697 -1.1315  2.5310  1.4584
23499SOL     OW73388   5.021   8.982   3.634  0.1429 -0.0187 -0.2831
23499SOL    HW173389   4.955   8.927   3.677 -1.5921  2.3404  0.3258
23499SOL    HW273390   5.014   8.960   3.541 -1.3300 -0.0393 -0.1885
23500SOL     OW73391   7.072   9.247   3.929 -0.0428 -0.0996 -0.1660
23500SOL    HW173392   7.012   9.309   3.888  0.5681 -0.1001 -1.0750
23500SOL    HW273393   7.050   9.251   4.022 -0.0843  1.3981 -0.2196
23501SOL     OW73394   7.226   4.164   0.064  0.1022  0.3892 -0.0491
23501SOL    HW173395   7.151   4.132   0.015 -0.5780  0.9034  0.6305
23501SOL    HW273396   7.278   4.086   0.082 -0.3217  0.0122 -0.4232
23502SOL     OW73397   7.509   5.720   2.216  0.4169  0.2062 -0.3760
23502SOL    HW173398   7.437   5.701   2.276  0.1269 -0.6531 -0.9773
23502SOL    HW273399   7.474   5.698   2.129  1.0268  0.8631 -0.7922
23503SOL     OW73400   7.863   5.297   7.274  0.4876 -0.3892 -0.5024
23503SOL    HW173401   7.897   5.267   7.190 -0.8357  0.1415 -1.2612
23503SOL    HW273402   7.821   5.219   7.311 -0.4175 -0.2168 -1.1365
23504SOL     OW73403   8.743   2.659   4.172 -0.7331 -0.0029 -0.2971
23504SOL    HW173404   8.726   2.611   4.254 -1.6284  1.3866  0.3693
23504SOL    HW273405   8.697   2.742   4.183  1.8564  1.6088 -0.8570
23505SOL     OW73406   1.398   2.812   3.863  0.5258 -0.3782 -0.5092
23505SOL    HW173407   1.333   2.847   3.923  1.7618 -1.4516  1.5562
23505SOL    HW273408   1.364   2.832   3.776 -2.4231 -0.6513  0.4865
23506SOL     OW73409   5.746   3.949   1.750 -0.3591 -0.6326  0.2664
23506SOL    HW173410   5.833   3.909   1.742 -0.6389 -1.1844 -0.1504
23506SOL    HW273411   5.717   3.926   1.838  0.5504  0.8909  0.9939
23507SOL     OW73412   0.664   4.260   7.344 -0.1143  0.3564  0.1189
23507SOL    HW173413   0.589   4.284   7.289  0.5016  0.6971 -0.6047
23507SOL    HW273414   0.736   4.313   7.309  0.7985 -1.0063 -0.1504
23508SOL     OW73415   5.461   7.910   7.556  0.6932  0.6561  0.5907
23508SOL    HW173416   5.479   7.951   7.472  0.1198 -1.2136 -0.4845
23508SOL    HW273417   5.366   7.902   7.559  0.7693 -0.1756  0.9827
23509SOL     OW73418   4.975   7.522   8.567  0.0311  0.0998 -0.6312
23509SOL    HW173419   5.064   7.490   8.581 -0.0202 -0.2651 -1.1159
23509SOL    HW273420   4.920   7.457   8.609 -0.0709 -0.4322 -1.5642
23510SOL     OW73421   6.630   9.370   6.297 -0.3530  0.1393  0.1127
23510SOL    HW173422   6.611   9.445   6.353  2.0962 -0.4762  1.9300
23510SOL    HW273423   6.544   9.331   6.280 -1.6147  2.7466 -0.1626
23511SOL     OW73424   8.784   3.264   3.104  0.6362 -0.1698 -0.4846
23511SOL    HW173425   8.753   3.177   3.130 -0.6490  0.9581  2.0716
23511SOL    HW273426   8.844   3.290   3.175  1.2190  0.9342 -1.3537
23512SOL     OW73427   2.287   8.762   6.234  0.0116 -0.2224 -0.5004
23512SOL    HW173428   2.285   8.830   6.166  2.1885 -0.6218 -1.0466
23512SOL    HW273429   2.246   8.686   6.193 -0.7763  0.2016 -0.5261
23513SOL     OW73430   9.275   5.230   6.958  0.0691  0.7263  0.3683
23513SOL    HW173431   9.250   5.263   6.872  0.0187  0.5169  0.3006
23513SOL    HW273432   9.339   5.161   6.939 -0.1585  0.4807  0.4829
23514SOL     OW73433   5.979   6.200   7.340 -0.0907  0.4261  0.1805
23514SOL    HW173434   5.910   6.228   7.279 -0.5070  0.5321  0.6913
23514SOL    HW273435   6.060   6.206   7.289 -0.5178 -0.2114 -0.5890
23515SOL     OW73436   5.952   4.616   9.026 -0.6776  0.2191  0.2856
23515SOL    HW173437   6.015   4.556   9.066  0.7114  1.0008 -0.6431
23515SOL    HW273438   5.934   4.578   8.940 -1.1500  0.2297  0.3783
23516SOL     OW73439   4.704   0.878   6.377 -0.3033 -0.0635  0.6316
23516SOL    HW173440   4.690   0.836   6.292  1.1704 -1.4395  1.0247
23516SOL    HW273441   4.640   0.835   6.434 -0.4574 -0.0194  0.4949
23517SOL     OW73442   3.655   4.379   6.095  0.3278 -0.5887 -0.1003
23517SOL    HW173443   3.749   4.393   6.107  0.4692 -1.7216  0.1887
23517SOL    HW273444   3.647   4.285   6.077 -0.6037 -0.2458 -1.6470
23518SOL     OW73445   5.299   3.751   6.411 -0.7925 -0.1050  0.3617
23518SOL    HW173446   5.388   3.729   6.384 -0.5668  3.0576 -2.1302
23518SOL    HW273447   5.252   3.766   6.329 -3.1045  0.1825  1.6516
23519SOL     OW73448   6.685   1.067   9.511  0.8709  0.4969 -0.3040
23519SOL    HW173449   6.616   1.001   9.518  1.9946 -0.8447 -1.2196
23519SOL    HW273450   6.650   1.144   9.555 -1.0806 -0.2335 -0.5027
23520SOL     OW73451   7.030   4.624   6.911  0.1930  0.4252 -0.7232
23520SOL    HW173452   6.979   4.570   6.851  0.0509 -1.3153  0.8556
23520SOL    HW273453   7.104   4.655   6.858  1.4556 -3.0780 -1.3354
23521SOL     OW73454   4.651   5.282   0.803  0.5650 -0.0027 -0.3848
23521SOL    HW173455   4.613   5.370   0.797 -0.2073 -0.3868 -1.3032
23521SOL    HW273456   4.649   5.261   0.897 -0.5096  0.4104 -0.3019
23522SOL     OW73457   0.757   0.172   6.659 -0.0678 -0.1178  0.1387
23522SOL    HW173458   0.827   0.230   6.629 -0.0061  0.4617  1.3137
23522SOL    HW273459   0.681   0.198   6.607  0.3733 -0.1349 -0.5186
23523SOL     OW73460   1.271   4.303   3.469  0.0861 -0.2504  0.4206
23523SOL    HW173461   1.324   4.287   3.391  0.9655 -0.9637  1.1338
23523SOL    HW273462   1.233   4.389   3.455  1.7861  0.4842  0.0485
23524SOL     OW73463   0.463   8.657   9.422 -0.3782  0.4252 -0.1346
23524SOL    HW173464   0.545   8.700   9.444 -1.5055  2.1483  0.9098
23524SOL    HW273465   0.486   8.564   9.414  2.2757  1.1637 -3.1440
23525SOL     OW73466   3.897   7.050   1.512  0.8398  0.3462 -0.7815
23525SOL    HW173467   3.976   7.043   1.567 -0.1319  0.1724  0.6567
23525SOL    HW273468   3.876   6.960   1.488  1.4413  0.4487 -1.7268
23526SOL     OW73469   2.583   5.668   3.495 -0.7252  0.0627 -0.3375
23526SOL    HW173470   2.640   5.723   3.441  0.8828  0.4468  1.5927
23526SOL    HW273471   2.513   5.726   3.524 -1.2659  0.0027 -1.4684
23527SOL     OW73472   0.574   2.493   5.068  0.1097  0.1638  0.3521
23527SOL    HW173473   0.622   2.411   5.080  2.4390  1.2197 -1.0193
23527SOL    HW273474   0.612   2.552   5.132 -1.8553  0.1527  1.6297
23528SOL     OW73475   0.937   1.978   3.398 -0.3639 -0.9145  0.2964
23528SOL    HW173476   0.906   1.902   3.348  2.3042 -1.6824 -0.3520
23528SOL    HW273477   0.937   1.948   3.489 -0.0790 -1.4230  0.1341
23529SOL     OW73478   9.185   1.958   3.741 -0.4397  0.1834  0.3461
23529SOL    HW173479   9.130   2.030   3.711  0.7023  0.8752 -0.1463
23529SOL    HW273480   9.123   1.895   3.779 -1.5757  0.8606 -0.3125
23530SOL     OW73481   5.679   2.667   5.710  0.1514  0.2954  0.2251
23530SOL    HW173482   5.597   2.716   5.718  0.1261  0.3787 -0.4249
23530SOL    HW273483   5.675   2.630   5.622  1.4297  1.4668 -0.3649
23531SOL     OW73484   2.354   1.076   8.516 -0.1515  0.4120 -0.0627
23531SOL    HW173485   2.303   1.000   8.544 -0.1394 -0.0114 -1.1802
23531SOL    HW273486   2.292   1.150   8.523 -0.3794  0.1917  0.3005
23532SOL     OW73487   3.969   5.605   1.578  0.2586 -0.2233  0.8624
23532SOL    HW173488   3.883   5.610   1.537  0.3579 -3.4343 -0.0111
23532SOL    HW273489   4.014   5.685   1.549 -0.8294 -0.7092 -2.6372
23533SOL     OW73490   2.118   8.786   5.974 -0.2699 -0.0650 -0.4504
23533SOL    HW173491   2.145   8.866   6.019  1.1837 -0.8821  0.2260
23533SOL    HW273492   2.055   8.745   6.033  0.2248 -0.2082 -0.0089
23534SOL     OW73493   1.787   3.593   4.820 -0.0133  0.2688  0.2612
23534SOL    HW173494   1.756   3.524   4.879  0.7733 -1.6092 -1.3928
23534SOL    HW273495   1.875   3.613   4.852  0.9845 -1.7800 -1.0253
23535SOL     OW73496   3.209   1.794   3.714  0.5450 -0.1481 -0.4159
23535SOL    HW173497   3.117   1.820   3.721  0.6246 -0.0688  0.5420
23535SOL    HW273498   3.207   1.698   3.720  0.3103 -0.3850 -3.2404
23536SOL     OW73499   6.176   8.346   0.111 -0.2162 -0.4837  0.6854
23536SOL    HW173500   6.090   8.354   0.151 -0.7943  0.9837 -0.7260
23536SOL    HW273501   6.209   8.436   0.107  1.4008 -1.0236  1.2073
23537SOL     OW73502   4.735   8.617   7.287 -0.3533  0.1491 -0.0755
23537SOL    HW173503   4.691   8.669   7.354 -0.6960  0.9851 -0.9211
23537SOL    HW273504   4.687   8.636   7.207  1.9760  1.7726 -1.2281
23538SOL     OW73505   7.092   6.733   2.751 -0.3892 -0.3346 -0.0311
23538SOL    HW173506   7.085   6.679   2.672  0.0142  0.9933 -1.0093
23538SOL    HW273507   7.002   6.756   2.773 -0.3905  0.9556 -1.3096
23539SOL     OW73508   6.569   9.036   0.988 -0.3288  0.1710  0.0633
23539SOL    HW173509   6.524   9.068   1.066  0.1094 -0.3142  0.5161
23539SOL    HW273510   6.559   9.107   0.924  1.6373  1.7347  1.4117
23540SOL     OW73511   4.593   9.638   4.590  0.2668  0.8720 -0.3370
23540SOL    HW173512   4.599   9.594   4.675 -1.0633  0.2097 -0.5494
23540SOL    HW273513   4.677   9.620   4.547  0.5640  0.3617  0.4398
23541SOL     OW73514   4.564   0.686   1.734 -0.5187  0.5864  0.1424
23541SOL    HW173515   4.624   0.700   1.661 -0.9788  0.8738 -0.1832
23541SOL    HW273516   4.508   0.763   1.735 -2.0716 -0.4691 -0.7073
23542SOL     OW73517   3.703   5.047   8.508  0.1391 -0.0276 -0.1655
23542SOL    HW173518   3.657   5.061   8.591 -0.6665 -0.5328 -0.5069
23542SOL    HW273519   3.778   5.106   8.511  1.0111 -1.1469  1.5892
23543SOL     OW73520   0.517   8.562   2.550 -0.1138 -0.2900  0.2530
23543SOL    HW173521   0.530   8.474   2.585  1.2606 -0.5296 -0.7926
23543SOL    HW273522   0.436   8.593   2.591  0.6724 -1.0890  2.5475
23544SOL     OW73523   6.956   1.184   8.226  0.1292 -0.2112 -0.0675
23544SOL    HW173524   7.016   1.222   8.290  0.8613  0.1570 -0.9486
23544SOL    HW273525   6.870   1.191   8.267  0.5549  0.2303  0.7773
23545SOL     OW73526   4.453   0.120   7.289  0.0463 -0.6871 -0.2329
23545SOL    HW173527   4.466   0.148   7.379  0.3129  0.8678 -0.7408
23545SOL    HW273528   4.430   0.027   7.297  0.4924 -0.6936  1.3921
23546SOL     OW73529   8.911   9.081   9.499 -0.1412 -0.4350  0.2905
23546SOL    HW173530   8.903   8.986   9.510 -0.8389 -0.4218 -0.0359
23546SOL    HW273531   8.953   9.111   9.579  0.0974 -1.0190  0.3909
23547SOL     OW73532   5.733   0.131   6.219 -0.1678  0.0317 -0.4655
23547SOL    HW173533   5.654   0.162   6.175  0.0755 -0.2148 -1.0834
23547SOL    HW273534   5.805   0.167   6.168  0.1377  0.8108  0.4829
23548SOL     OW73535   4.782   0.017   0.750  0.1316  0.5165 -0.2792
23548SOL    HW173536   4.816   0.084   0.809 -0.4677  0.2441  0.3935
23548SOL    HW273537   4.718   0.062   0.695 -1.6363  0.1715  1.3944
23549SOL     OW73538   6.803   5.823   5.315  0.2893  0.1623 -0.4124
23549SOL    HW173539   6.858   5.766   5.369  0.0772  0.0474 -0.3162
23549SOL    HW273540   6.864   5.887   5.278  0.2419  1.1836  1.1526
23550SOL     OW73541   8.432   9.389   0.566 -0.2595  0.0691  0.2234
23550SOL    HW173542   8.396   9.302   0.575  0.2968 -0.2219 -0.2752
23550SOL    HW273543   8.409   9.416   0.477  1.1334 -0.3286 -0.2950
23551SOL     OW73544   7.199   7.174   8.916 -0.4179 -0.0921  0.5004
23551SOL    HW173545   7.203   7.260   8.874  1.0568 -0.5834 -0.4279
23551SOL    HW273546   7.157   7.118   8.851  1.1790 -0.6833 -0.0717
23552SOL     OW73547   5.709   7.755   8.264  0.0635 -0.1778  0.1269
23552SOL    HW173548   5.667   7.802   8.336 -0.1158  0.3951 -0.3422
23552SOL    HW273549   5.656   7.776   8.187  1.2301  0.6003 -0.4862
23553SOL     OW73550   1.746   1.599   4.605 -0.2135  0.1998  0.1323
23553SOL    HW173551   1.735   1.514   4.648  1.6720  0.2853  0.8799
23553SOL    HW273552   1.661   1.616   4.565 -1.2156 -1.1692  1.5293
23554SOL     OW73553   8.919   8.945   4.594 -0.2295  0.2187  0.2522
23554SOL    HW173554   8.833   8.982   4.574  0.8976  1.4073 -3.0639
23554SOL    HW273555   8.968   9.017   4.634  0.5589  1.1298 -2.1346
23555SOL     OW73556   4.678   9.616   1.465 -0.4773  0.0668 -0.6372
23555SOL    HW173557   4.586   9.610   1.490 -0.5409  1.8166 -0.3300
23555SOL    HW273558   4.687   9.555   1.392 -1.5053 -1.2546  0.2880
23556SOL     OW73559   5.535   3.479   7.719  0.7083  0.2195  0.0346
23556SOL    HW173560   5.622   3.517   7.717  0.7724  0.0562 -0.4333
23556SOL    HW273561   5.516   3.457   7.628 -0.7504  2.3391 -0.2519
23557SOL     OW73562   1.309   5.983   5.742  0.3516  0.0889 -0.6360
23557SOL    HW173563   1.252   5.971   5.666  0.7471  0.7502 -1.0470
23557SOL    HW273564   1.249   5.999   5.815  0.0219  2.2426 -1.3296
23558SOL     OW73565   1.046   2.429   6.582  0.1089 -0.5213  0.7413
23558SOL    HW173566   0.984   2.498   6.558  0.1967 -1.1922 -1.7376
23558SOL    HW273567   1.103   2.469   6.648 -0.9552  1.1702  0.6880
23559SOL     OW73568   9.494   7.078   3.174 -0.7489 -0.4876  0.3314
23559SOL    HW173569   9.540   6.995   3.159  1.8291  0.7600  0.7120
23559SOL    HW273570   9.486   7.084   3.269 -0.6349 -0.1531  0.3206
23560SOL     OW73571   2.606   0.282   5.237 -0.1864 -0.3684 -0.0610
23560SOL    HW173572   2.634   0.224   5.308 -1.0490 -0.6078  0.0931
23560SOL    HW273573   2.531   0.239   5.198 -1.6405  1.1808  0.8562
23561SOL     OW73574   2.427   1.503   7.267  0.4126 -0.3922  0.0829
23561SOL    HW173575   2.339   1.501   7.303 -0.0564 -2.7908 -0.9653
23561SOL    HW273576   2.420   1.560   7.190 -0.4781 -1.2844 -0.5168
23562SOL     OW73577   8.043   7.954   4.661 -0.1250  0.0009 -0.3745
23562SOL    HW173578   8.061   7.896   4.586  0.6623 -0.3850  0.0936
23562SOL    HW273579   7.972   8.011   4.631  0.7077  0.3833 -1.6990
23563SOL     OW73580   3.703   2.156   0.653 -0.2616 -0.0150  0.1811
23563SOL    HW173581   3.736   2.082   0.704  0.0494 -0.1237 -0.1734
23563SOL    HW273582   3.782   2.197   0.616 -0.5271 -0.3616 -0.7991
23564SOL     OW73583   1.773   5.112   3.295 -0.4487 -0.1751 -0.1835
23564SOL    HW173584   1.765   5.112   3.200 -0.4972  0.6919 -0.1839
23564SOL    HW273585   1.765   5.019   3.319 -0.7902 -0.3665 -0.9878
23565SOL     OW73586   8.837   6.626   8.810  0.7635  0.0381  0.0052
23565SOL    HW173587   8.785   6.550   8.784  1.3294  0.0767 -1.3090
23565SOL    HW273588   8.788   6.664   8.883  0.3806 -1.4707  0.5763
23566SOL     OW73589   2.597   0.636   8.887 -0.0882  0.1431  0.0919
23566SOL    HW173590   2.637   0.606   8.969  0.7160 -0.6693 -0.5804
23566SOL    HW273591   2.539   0.708   8.914 -1.6798 -1.5981  1.7132
23567SOL     OW73592   2.073   8.092   3.776  0.8339 -0.4437  0.1895
23567SOL    HW173593   2.001   8.152   3.792  0.4935 -0.7636 -0.1066
23567SOL    HW273594   2.150   8.134   3.816  0.4760 -0.1264  0.5518
23568SOL     OW73595   5.274   7.699   1.787  0.4550  0.9894  0.2117
23568SOL    HW173596   5.344   7.653   1.741  0.9075  1.0347  0.8370
23568SOL    HW273597   5.267   7.654   1.872 -0.3155  0.9462  0.1335
23569SOL     OW73598   2.284   9.591   9.368 -0.3975 -0.5876 -0.1417
23569SOL    HW173599   2.265   9.533   9.442 -2.6964  1.4749  1.0277
23569SOL    HW273600   2.303   9.532   9.295  0.0800 -2.7171  1.6233
23570SOL     OW73601   0.686   9.629   2.058  0.8513  0.6632 -0.6600
23570SOL    HW173602   0.775   9.630   2.024  0.2950  1.3109 -2.1582
23570SOL    HW273603   0.687   9.560   2.126  2.6826  1.2661 -0.0253
23571SOL     OW73604   7.374   8.444   3.944  0.5824  0.2536  0.1716
23571SOL    HW173605   7.353   8.505   3.873 -1.5296  0.4219  0.8669
23571SOL    HW273606   7.469   8.435   3.940  0.8911  2.8449 -0.5663
23572SOL     OW73607   2.242   8.986   7.557  0.6856  0.2232 -0.5201
23572SOL    HW173608   2.244   8.967   7.463 -0.7497 -0.9749 -0.3420
23572SOL    HW273609   2.212   9.076   7.562  0.9547  0.3596 -1.2173
23573SOL     OW73610   0.862   6.686   3.753  0.0961  0.3092  0.6297
23573SOL    HW173611   0.917   6.710   3.679  0.3209  0.6758  0.9119
23573SOL    HW273612   0.847   6.769   3.800  1.4651 -0.1680  2.0210
23574SOL     OW73613   9.004   6.672   7.903  0.0565  0.3006 -0.2300
23574SOL    HW173614   9.053   6.750   7.931  1.8183 -0.9231  0.2594
23574SOL    HW273615   9.070   6.614   7.867 -1.0767 -1.3675  0.2805
23575SOL     OW73616   8.144   6.710   3.455 -0.4981 -1.0903 -0.0074
23575SOL    HW173617   8.065   6.759   3.478  1.5068  2.7431 -0.4685
23575SOL    HW273618   8.160   6.731   3.363  1.6763 -0.7077  0.4021
23576SOL     OW73619   1.522   4.645   7.048  0.4111 -0.3642 -0.2134
23576SOL    HW173620   1.476   4.561   7.044 -0.4611  0.1297 -0.9703
23576SOL    HW273621   1.563   4.653   6.963 -0.5703  0.5402 -0.6278
23577SOL     OW73622   6.513   7.352   2.673 -0.3504 -0.3284  0.2141
23577SOL    HW173623   6.542   7.426   2.727  0.4614 -0.5116  0.0441
23577SOL    HW273624   6.534   7.275   2.726 -1.1132 -0.4482  0.3533
23578SOL     OW73625   4.637   9.141   1.362  0.0618 -0.1825  0.6144
23578SOL    HW173626   4.620   9.138   1.456  1.3489 -1.8671  0.8482
23578SOL    HW273627   4.680   9.225   1.347  1.2974 -0.5740  1.8195
23579SOL     OW73628   1.346   6.009   7.265  0.4513  0.0903  0.1830
23579SOL    HW173629   1.402   5.934   7.243  0.4513  0.2611 -0.4383
23579SOL    HW273630   1.401   6.065   7.319  0.7628  0.0757 -0.1124
23580SOL     OW73631   0.646   2.568   2.436 -0.7875 -0.7991 -0.0159
23580SOL    HW173632   0.566   2.518   2.453 -0.1006 -2.1593 -0.5999
23580SOL    HW273633   0.708   2.538   2.503 -0.8195  0.4004  0.5646
23581SOL     OW73634   4.504   5.149   3.024 -0.2378  0.4949 -0.3145
23581SOL    HW173635   4.445   5.179   3.093 -1.0595  1.3925 -1.3606
23581SOL    HW273636   4.514   5.225   2.967  0.6131 -0.1501 -1.0493
23582SOL     OW73637   2.792   1.674   6.912  0.1643  0.3684 -0.0336
23582SOL    HW173638   2.746   1.659   6.994  1.8057 -1.2638  0.6685
23582SOL    HW273639   2.882   1.692   6.938  0.4860  0.9798 -1.4437
23583SOL     OW73640   3.420   5.205   2.060 -0.2301  0.3718 -1.3308
23583SOL    HW173641   3.399   5.112   2.057 -0.1374  0.2460  0.6569
23583SOL    HW273642   3.512   5.211   2.033 -0.4973  0.0100 -2.3458
23584SOL     OW73643   4.636   6.816   4.859 -0.1842 -0.3131  0.4885
23584SOL    HW173644   4.613   6.899   4.819 -1.4695 -0.2631  1.2746
23584SOL    HW273645   4.585   6.813   4.940 -0.0103 -1.7673  0.5772
23585SOL     OW73646   8.742   4.196   0.170  0.5359  0.2126 -0.2048
23585SOL    HW173647   8.709   4.216   0.258  1.2729  0.7814 -0.0435
23585SOL    HW273648   8.779   4.108   0.178  0.6000  0.2624  0.0551
23586SOL     OW73649   0.874   3.547   8.442 -0.4721 -0.2351 -0.4410
23586SOL    HW173650   0.786   3.566   8.474  0.2408  1.1465  0.8224
23586SOL    HW273651   0.924   3.524   8.521  0.1810 -1.5977 -1.2089
23587SOL     OW73652   7.648   3.295   2.973  0.2779  0.2485 -0.1733
23587SOL    HW173653   7.614   3.207   2.960 -1.0317  0.8755 -1.1375
23587SOL    HW273654   7.660   3.330   2.884 -0.5249  1.5255  0.2000
23588SOL     OW73655   4.157   5.921   3.503 -0.0757  0.5506  0.2172
23588SOL    HW173656   4.231   5.973   3.534 -0.4596  1.1540  0.1427
23588SOL    HW273657   4.137   5.957   3.417 -0.9998  0.9666  0.5989
23589SOL     OW73658   0.664   3.527   9.088  0.0454  0.0442 -0.6182
23589SOL    HW173659   0.754   3.557   9.101 -0.8626  1.8099  3.1871
23589SOL    HW273660   0.664   3.437   9.123  0.3854 -0.0650 -0.8973
23590SOL     OW73661   8.845   2.746   0.730 -0.1364  0.0435  0.1389
23590SOL    HW173662   8.904   2.671   0.728 -0.7282 -0.4214  0.0706
23590SOL    HW273663   8.822   2.761   0.638  0.4667  0.7039  0.0846
23591SOL     OW73664   7.985   2.129   0.030  0.3848 -0.3291 -0.2677
23591SOL    HW173665   8.043   2.184   0.083 -0.5900 -0.2716  0.7516
23591SOL    HW273666   8.036   2.113  -0.050  1.8312 -0.3269  0.6043
23592SOL     OW73667   0.770   2.269   0.458  0.0939  0.1364 -0.1855
23592SOL    HW173668   0.846   2.317   0.491 -0.1589  0.0444  0.5569
23592SOL    HW273669   0.790   2.252   0.366  0.6737  0.6923 -0.1674
23593SOL     OW73670   0.164   0.640   9.468  0.6368 -0.6050 -0.0878
23593SOL    HW173671   0.259   0.649   9.465  0.4529  1.3565 -1.9576
23593SOL    HW273672   0.144   0.567   9.409  1.0495 -2.6387  2.1293
23594SOL     OW73673   8.007   9.396   5.279  0.4195  0.5601  0.4286
23594SOL    HW173674   7.929   9.349   5.248 -1.2573  2.9862  0.7387
23594SOL    HW273675   8.016   9.370   5.371  1.4969 -1.5543 -0.1885
23595SOL     OW73676   5.016   6.896   0.236  0.5566 -0.2919  0.2196
23595SOL    HW173677   5.101   6.912   0.193 -2.2248 -1.0624 -6.9385
23595SOL    HW273678   5.018   6.803   0.258  0.8116 -1.1089 -2.7510
23596SOL     OW73679   3.368   3.918   2.031  0.1826  0.2032 -0.1758
23596SOL    HW173680   3.283   3.876   2.021  0.6075 -0.5438 -0.8142
23596SOL    HW273681   3.356   3.982   2.101 -0.5824 -0.7158  0.5458
23597SOL     OW73682   4.266   7.692   1.939 -0.0442 -0.1679  0.2240
23597SOL    HW173683   4.222   7.610   1.959 -0.3752 -0.0759 -0.1070
23597SOL    HW273684   4.261   7.742   2.021 -2.3239  0.6340 -0.3134
23598SOL     OW73685   3.260   3.211   5.441 -0.1630  0.5602  0.1817
23598SOL    HW173686   3.246   3.188   5.532  0.1602  0.1087  0.1211
23598SOL    HW273687   3.300   3.133   5.402  2.1371  1.6229  0.2639
23599SOL     OW73688   5.810   1.520   8.265 -0.2427 -0.1444 -0.0924
23599SOL    HW173689   5.733   1.518   8.322 -0.7881 -0.4465 -0.8226
23599SOL    HW273690   5.839   1.429   8.262  0.6157  0.0886  0.7966
23600SOL     OW73691   5.019   9.344   6.780  0.3792 -0.5631  0.2293
23600SOL    HW173692   4.979   9.347   6.867 -0.8634 -0.3707 -0.3278
23600SOL    HW273693   5.032   9.436   6.757 -1.7576 -0.4604 -0.8451
23601SOL     OW73694   3.249   2.742   8.547  0.5253 -0.3959  0.3936
23601SOL    HW173695   3.157   2.732   8.523  0.7238 -0.2445 -0.4520
23601SOL    HW273696   3.279   2.653   8.565 -0.1214 -0.3200  1.9787
23602SOL     OW73697   5.757   3.739   9.221  0.5377 -0.2042 -0.1664
23602SOL    HW173698   5.698   3.762   9.293 -0.5205 -1.3986 -0.6265
23602SOL    HW273699   5.796   3.656   9.247  1.6059  0.2776 -0.1424
23603SOL     OW73700   3.977   3.191   0.988  0.2616 -0.0501  0.1376
23603SOL    HW173701   3.916   3.133   0.942 -0.2542  0.7775 -0.2580
23603SOL    HW273702   4.047   3.134   1.018  0.0516 -0.7918 -0.7269
23604SOL     OW73703   6.274   1.290   1.598 -0.0990  0.0650  0.8746
23604SOL    HW173704   6.258   1.362   1.536  0.3355 -1.6066 -1.2701
23604SOL    HW273705   6.361   1.257   1.576 -1.0519 -2.3588  0.4493
23605SOL     OW73706   2.608   3.766   6.210 -0.4374 -0.2755  0.0563
23605SOL    HW173707   2.531   3.710   6.208  0.3054 -1.3100 -1.7663
23605SOL    HW273708   2.650   3.746   6.294 -0.9558 -1.3810  0.0721
23606SOL     OW73709   9.353   5.798   3.162  0.4590  0.4081  0.1695
23606SOL    HW173710   9.384   5.785   3.072 -1.2156 -3.1228 -0.0931
23606SOL    HW273711   9.267   5.839   3.151 -0.3600 -1.2727 -0.0237
23607SOL     OW73712   4.314   6.058   1.620  0.1816 -0.1033  0.4094
23607SOL    HW173713   4.401   6.088   1.594  0.0155  0.4232  0.4470
23607SOL    HW273714   4.310   5.966   1.592  0.3844  0.1513 -0.4782
23608SOL     OW73715   4.364   6.144   5.370 -0.5838 -0.4425 -0.5996
23608SOL    HW173716   4.339   6.067   5.421  0.0877  0.0978  0.5963
23608SOL    HW273717   4.427   6.111   5.306 -1.9897 -1.2603 -1.5834
23609SOL     OW73718   4.211   9.553   4.612 -0.0726  0.7137 -0.1415
23609SOL    HW173719   4.247   9.624   4.666  2.2316  0.3474 -1.0591
23609SOL    HW273720   4.127   9.587   4.581 -1.3590  1.0510  3.3476
23610SOL     OW73721   1.596   6.648   4.590  0.6658 -0.4695 -0.4919
23610SOL    HW173722   1.683   6.630   4.556  1.2815 -1.2060  1.3289
23610SOL    HW273723   1.554   6.562   4.593 -0.1376 -0.1230 -1.3406
23611SOL     OW73724   5.330   4.860   7.217  0.0823 -0.4625  0.8549
23611SOL    HW173725   5.241   4.894   7.204 -0.2921 -1.1588  1.5545
23611SOL    HW273726   5.349   4.876   7.309  0.8249 -0.0268  0.6417
23612SOL     OW73727   8.534   3.279   6.196 -0.1518  0.0320  0.4408
23612SOL    HW173728   8.597   3.300   6.127 -1.6949  2.9990 -0.2348
23612SOL    HW273729   8.485   3.205   6.162 -0.8274  1.3805 -1.7409
23613SOL     OW73730   2.724   1.538   8.885  0.8265 -0.8369 -0.1281
23613SOL    HW173731   2.775   1.507   8.810  0.9478 -0.1460 -0.3417
23613SOL    HW273732   2.657   1.594   8.846  1.1006 -0.1963  0.2937
23614SOL     OW73733   8.154   9.072   6.497 -0.3139 -0.2237 -0.6393
23614SOL    HW173734   8.101   9.130   6.441 -1.0613  1.6440  1.8207
23614SOL    HW273735   8.211   9.132   6.545  0.5637 -1.7960  0.3218
23615SOL     OW73736   6.244   7.383   6.623 -0.3116  0.0596 -0.1902
23615SOL    HW173737   6.154   7.409   6.645  0.2080  2.2711 -0.4233
23615SOL    HW273738   6.269   7.441   6.551  1.3808 -0.3593  0.0174
23616SOL     OW73739   4.776   4.487   4.003 -0.3869 -0.2616  0.2978
23616SOL    HW173740   4.684   4.472   4.023 -0.4463  1.8371  1.9434
23616SOL    HW273741   4.807   4.545   4.073  2.5356 -1.9058  0.5471
23617SOL     OW73742   1.808   6.882   6.241  0.1446  0.3705 -0.2817
23617SOL    HW173743   1.804   6.804   6.297  1.5690  0.9374  0.6752
23617SOL    HW273744   1.753   6.860   6.165 -0.8846 -0.8738  0.7738
23618SOL     OW73745   1.300   0.441   1.093 -0.5440 -0.4348 -0.0490
23618SOL    HW173746   1.222   0.387   1.085 -2.4272  2.2108 -1.0362
23618SOL    HW273747   1.341   0.436   1.006 -1.4526  0.6531 -0.5733
23619SOL     OW73748   2.515   0.021   2.888 -0.3523 -0.5339 -0.2487
23619SOL    HW173749   2.610   0.033   2.892 -0.5059  0.7548 -0.0754
23619SOL    HW273750   2.484   0.095   2.835 -1.2794 -0.8507 -0.1669
23620SOL     OW73751   0.074   2.830   5.106 -0.2351 -0.7149  0.5557
23620SOL    HW173752   0.083   2.804   5.198 -0.7770  2.1624  1.5046
23620SOL    HW273753   0.162   2.825   5.070 -0.1517 -2.7430  0.9093
23621SOL     OW73754   5.649   5.010   3.874 -0.2981 -0.0047  0.1603
23621SOL    HW173755   5.592   5.087   3.868 -0.9871 -0.4794  0.6056
23621SOL    HW273756   5.697   5.010   3.791 -0.3982  0.8202  0.0933
23622SOL     OW73757   8.247   9.246   1.932 -0.1244  0.3033  0.4306
23622SOL    HW173758   8.175   9.298   1.894  0.6868  0.1253 -1.4736
23622SOL    HW273759   8.220   9.155   1.918  0.7677  0.2260 -1.0199
23623SOL     OW73760   7.271   5.758   7.941  0.1731  0.3003  0.0978
23623SOL    HW173761   7.210   5.818   7.899  0.2192  0.7941  0.7199
23623SOL    HW273762   7.314   5.712   7.869 -1.5225 -0.6633 -0.3681
23624SOL     OW73763   0.818   0.698   1.756  0.3126 -0.2242 -0.1602
23624SOL    HW173764   0.852   0.642   1.686  0.7045  1.5339 -1.4625
23624SOL    HW273765   0.860   0.783   1.741 -0.8651  0.6529  1.2306
23625SOL     OW73766   0.616   0.016   5.232 -0.1214 -0.5544  0.1855
23625SOL    HW173767   0.617   0.111   5.229  0.1660 -0.5788 -1.3972
23625SOL    HW273768   0.547  -0.010   5.171 -0.1196 -1.3552  0.5038
23626SOL     OW73769   5.992   8.588   6.733 -0.0271 -0.6117  0.4912
23626SOL    HW173770   6.056   8.545   6.790  1.8070  2.1660  0.7348
23626SOL    HW273771   6.030   8.585   6.646  0.0180  0.2391  0.4679
23627SOL     OW73772   7.471   2.655   0.692 -0.2906  0.9515 -0.1819
23627SOL    HW173773   7.559   2.618   0.699 -0.4930  0.4889 -0.0263
23627SOL    HW273774   7.416   2.596   0.744 -0.3299  2.4885  1.6104
23628SOL     OW73775   2.661   5.134   5.414 -0.1791  0.0020 -0.4389
23628SOL    HW173776   2.635   5.220   5.379 -0.0164 -0.6287 -2.2358
23628SOL    HW273777   2.579   5.087   5.423 -0.1749 -0.0061 -0.4439
23629SOL     OW73778   7.824   1.599   5.716  0.4253 -0.0148 -0.3283
23629SOL    HW173779   7.743   1.609   5.766  1.6662  0.3395  1.7159
23629SOL    HW273780   7.865   1.685   5.720  1.2836 -0.4011 -0.6703
23630SOL     OW73781   7.981   6.700   4.082  0.4642  0.0699  0.1361
23630SOL    HW173782   7.931   6.628   4.043  0.7633  0.0941 -0.2981
23630SOL    HW273783   7.976   6.684   4.177  0.4139 -0.4470  0.0503
23631SOL     OW73784   4.705   2.529   9.557  0.0208 -0.3630  0.1466
23631SOL    HW173785   4.634   2.466   9.547  2.0131 -2.8073  0.2257
23631SOL    HW273786   4.720   2.534   9.651  1.1437 -1.3668  0.0431
23632SOL     OW73787   1.871   8.520   3.904 -0.4123  0.5028  0.0676
23632SOL    HW173788   1.936   8.504   3.973  0.0126  1.6442 -0.0601
23632SOL    HW273789   1.919   8.564   3.835 -0.8650 -0.5290 -0.9358
23633SOL     OW73790   9.536   5.715   2.106 -0.4369 -0.0720  0.0105
23633SOL    HW173791   9.454   5.714   2.155 -1.0019  0.8328 -0.8773
23633SOL    HW273792   9.590   5.648   2.148 -1.2947 -0.0707  1.1674
23634SOL     OW73793   6.602   6.709   4.184  0.1801  0.3439 -0.0750
23634SOL    HW173794   6.609   6.796   4.225 -0.3254 -0.6915  2.3466
23634SOL    HW273795   6.652   6.651   4.241 -3.0573 -1.7352  0.9326
23635SOL     OW73796   6.773   7.636   3.494  0.3150 -0.1576  0.2087
23635SOL    HW173797   6.766   7.584   3.573  0.1364 -0.1675  0.1880
23635SOL    HW273798   6.728   7.584   3.427  0.1635  0.0051  0.1812
23636SOL     OW73799   8.192   1.482   5.671 -0.0161  0.0501  0.4060
23636SOL    HW173800   8.150   1.505   5.589 -0.3056  0.3426  0.6353
23636SOL    HW273801   8.277   1.446   5.646  0.4533  1.3817  0.0487
23637SOL     OW73802   2.097   7.533   6.481 -0.2738  0.1950 -0.1175
23637SOL    HW173803   2.131   7.583   6.555  2.1930 -2.5337  0.7283
23637SOL    HW273804   2.003   7.552   6.481  0.2650  3.5222  1.0489
23638SOL     OW73805   9.467   6.603   1.127  0.3640 -0.6348  0.0364
23638SOL    HW173806   9.480   6.690   1.165  1.7053 -0.1000 -1.4969
23638SOL    HW273807   9.553   6.561   1.134 -0.1249 -1.6445  0.2436
23639SOL     OW73808   5.674   7.960   2.192 -0.2900  0.2307 -0.0044
23639SOL    HW173809   5.703   7.886   2.139  0.8204  0.1823  0.6442
23639SOL    HW273810   5.755   7.997   2.229 -1.0126  0.3153  1.5818
23640SOL     OW73811   2.994   5.024   2.721  0.2605  0.6422 -0.2507
23640SOL    HW173812   2.998   5.081   2.644  3.1360  1.0643  0.0999
23640SOL    HW273813   2.979   4.936   2.685  1.0209  0.9142 -1.2645
23641SOL     OW73814   1.418   8.905   3.248  0.1176  0.0535  0.2118
23641SOL    HW173815   1.406   8.911   3.343 -0.3945  0.5657  0.1192
23641SOL    HW273816   1.343   8.854   3.217  0.2418 -0.0450  0.0726
23642SOL     OW73817   2.963   4.745   6.428  0.6596  0.2231 -0.0281
23642SOL    HW173818   3.015   4.665   6.420 -1.9142 -1.5079 -0.5782
23642SOL    HW273819   2.917   4.736   6.512  1.2247  1.7475  0.4902
23643SOL     OW73820   8.358   0.095   1.719 -0.0967 -0.0853  0.1784
23643SOL    HW173821   8.417   0.074   1.792  0.5285 -0.4345 -0.4168
23643SOL    HW273822   8.273   0.059   1.746  0.0737 -0.0110  0.8302
23644SOL     OW73823   8.008   3.765   6.831  0.3167 -0.0751 -0.1902
23644SOL    HW173824   7.963   3.694   6.877 -1.2974  1.1895  0.2418
23644SOL    HW273825   8.021   3.731   6.742 -0.4303 -0.9100  0.0049
23645SOL     OW73826   8.721   3.156   3.897 -0.9586  0.2357  0.3279
23645SOL    HW173827   8.637   3.165   3.851 -0.6084 -0.6002 -0.4794
23645SOL    HW273828   8.771   3.233   3.870 -0.2008 -0.9657 -1.8946
23646SOL     OW73829   5.119   6.029   2.213  0.5385 -0.0315 -0.2192
23646SOL    HW173830   5.166   5.962   2.164  0.4141  0.3788 -0.9117
23646SOL    HW273831   5.132   6.110   2.164 -2.2098 -0.1775 -1.3772
23647SOL     OW73832   0.193   3.343   2.537  0.0268  0.1501 -0.4085
23647SOL    HW173833   0.194   3.251   2.562  0.4401  0.1600 -0.3916
23647SOL    HW273834   0.240   3.347   2.455  0.3127  0.3976 -0.2345
23648SOL     OW73835   8.440   8.160   8.140 -0.1815 -0.3379 -0.2115
23648SOL    HW173836   8.371   8.146   8.205 -0.7426  1.3263 -0.4061
23648SOL    HW273837   8.521   8.136   8.186 -0.5439  1.0135  1.2263
23649SOL     OW73838   0.098   5.348   5.964  0.5480  0.0353 -0.3514
23649SOL    HW173839   0.155   5.321   5.892 -0.8928 -0.4862 -1.3339
23649SOL    HW273840   0.120   5.440   5.978  0.3390  0.3678 -1.9850
23650SOL     OW73841   8.690   3.541   3.718  0.2197  0.7906 -0.7357
23650SOL    HW173842   8.662   3.633   3.718 -0.0928  0.6944 -0.9450
23650SOL    HW273843   8.772   3.542   3.767 -0.8974  0.8410  1.2518
23651SOL     OW73844   1.546   3.575   3.996  0.6551  0.0184  0.1004
23651SOL    HW173845   1.627   3.548   3.952  1.0265  3.1856 -1.4664
23651SOL    HW273846   1.566   3.661   4.032 -1.9018  0.7850 -0.0841
23652SOL     OW73847   0.586   4.479   8.497  0.3027  0.0459  0.0999
23652SOL    HW173848   0.566   4.517   8.411 -0.2851 -0.4101  0.0199
23652SOL    HW273849   0.597   4.554   8.555 -1.5748  0.3725  0.1129
23653SOL     OW73850   3.808   1.433   4.713 -0.0438 -0.0549  0.2489
23653SOL    HW173851   3.739   1.375   4.743  0.7557 -0.3366  1.6335
23653SOL    HW273852   3.788   1.448   4.621 -1.3993 -0.8913  0.3778
23654SOL     OW73853   4.238   3.524   6.205  0.2620 -0.6217  0.2572
23654SOL    HW173854   4.162   3.471   6.184 -0.3858  0.2558  0.3373
23654SOL    HW273855   4.207   3.587   6.270  0.4420  1.2093 -1.3369
23655SOL     OW73856   6.108   8.008   8.742  0.3986 -0.0936 -0.2195
23655SOL    HW173857   6.197   8.033   8.767 -0.1542  1.9893 -0.1213
23655SOL    HW273858   6.085   8.069   8.671 -1.1237 -0.2616  0.0916
23656SOL     OW73859   2.690   7.278   4.206  0.0964  0.0042 -0.4135
23656SOL    HW173860   2.691   7.359   4.155  4.4877  1.3238  1.3019
23656SOL    HW273861   2.775   7.238   4.188 -0.1105 -1.8668  2.2655
23657SOL     OW73862   0.801   0.277   1.131 -0.0012  0.1961 -0.6959
23657SOL    HW173863   0.890   0.245   1.117 -0.2253 -0.1403 -1.3902
23657SOL    HW273864   0.781   0.255   1.222  1.3041  1.9520  0.0796
23658SOL     OW73865   9.336   3.787   4.399  0.2229 -0.1709  0.1083
23658SOL    HW173866   9.258   3.760   4.350 -0.3047  0.6818  0.4406
23658SOL    HW273867   9.304   3.855   4.458  0.8792 -1.0578  1.5377
23659SOL     OW73868   0.993   9.394   8.162  0.6687  0.1283  0.5324
23659SOL    HW173869   0.947   9.457   8.217 -0.3987 -0.4909  0.3801
23659SOL    HW273870   1.086   9.412   8.177  0.3907  0.5858  1.8059
23660SOL     OW73871   7.788   4.110   4.350  0.0592 -0.0354 -0.0617
23660SOL    HW173872   7.748   4.023   4.354  0.2908 -0.2868 -2.2745
23660SOL    HW273873   7.776   4.146   4.438  0.6894 -2.6086  1.1636
23661SOL     OW73874   0.121   0.159   2.277 -0.5771 -0.3806  0.3055
23661SOL    HW173875   0.072   0.203   2.347 -2.4587 -0.1705 -1.0688
23661SOL    HW273876   0.145   0.074   2.314 -0.5312  0.1616  1.5784
23662SOL     OW73877   4.452   3.246   8.071  0.0303  0.0921  0.0231
23662SOL    HW173878   4.442   3.312   8.140  0.4787 -0.7050  0.8817
23662SOL    HW273879   4.507   3.288   8.005  0.2908  0.5925  0.5469
23663SOL     OW73880   1.936   7.985   4.702  0.1569  0.3435 -0.3181
23663SOL    HW173881   1.999   7.915   4.682 -1.5035 -1.3429  0.0276
23663SOL    HW273882   1.899   7.960   4.786 -2.3579  0.1605 -1.3764
23664SOL     OW73883   0.462   5.583   4.596  0.2612  0.2985  0.6905
23664SOL    HW173884   0.484   5.676   4.602  0.6876  0.2716 -0.2538
23664SOL    HW273885   0.465   5.552   4.687 -1.8887  1.6325  1.2931
23665SOL     OW73886   5.916   2.976   7.515  0.2463 -0.5934  0.1564
23665SOL    HW173887   5.840   2.919   7.530  0.0443 -0.1941  0.6930
23665SOL    HW273888   5.956   2.942   7.435 -0.7710 -0.5180 -0.4036
23666SOL     OW73889   8.537   9.484   1.344 -0.0795  0.9831  0.0029
23666SOL    HW173890   8.497   9.524   1.420  0.3107  1.3347  0.0323
23666SOL    HW273891   8.477   9.414   1.318  0.6081 -0.2780  1.6578
23667SOL     OW73892   1.512   9.186   0.578  0.1840  0.4332 -0.2166
23667SOL    HW173893   1.424   9.207   0.608  0.6670  1.3017  0.6519
23667SOL    HW273894   1.517   9.222   0.489 -0.4958 -0.0967 -0.4818
23668SOL     OW73895   2.299   5.996   4.728 -0.0752  0.0279  0.1933
23668SOL    HW173896   2.289   5.993   4.824 -0.1455  4.7527  0.5789
23668SOL    HW273897   2.212   6.019   4.695  0.3809  0.4474 -0.7604
23669SOL     OW73898   3.128   4.849   4.493  0.2135  0.3496  0.4504
23669SOL    HW173899   3.197   4.883   4.550 -0.7400  1.0604  1.2075
23669SOL    HW273900   3.101   4.767   4.533  0.3557  0.2578  0.3597
23670SOL     OW73901   7.615   2.039   5.214 -0.4896  0.5088  0.0641
23670SOL    HW173902   7.662   1.971   5.263 -0.3633  0.5443 -0.0070
23670SOL    HW273903   7.654   2.037   5.127 -0.2768  0.8774  0.1471
23671SOL     OW73904   9.378   8.543   8.037  0.3591  0.6179  1.0716
23671SOL    HW173905   9.355   8.612   7.974  0.1138 -1.0405 -0.7649
23671SOL    HW273906   9.303   8.483   8.036  1.5237 -0.9161  0.7551
23672SOL     OW73907   2.563   9.175   5.464 -0.0833 -0.4126 -0.1383
23672SOL    HW173908   2.576   9.103   5.402  0.9612  0.0756 -0.5148
23672SOL    HW273909   2.625   9.157   5.535 -0.1334 -0.1109 -0.0162
23673SOL     OW73910   9.112   8.060   6.657  0.1393  0.2876  0.1027
23673SOL    HW173911   9.073   8.146   6.670 -0.4702 -0.0081  0.3006
23673SOL    HW273912   9.129   8.028   6.746 -0.0606  0.0239  0.0495
23674SOL     OW73913   7.311   1.769   2.276 -0.4720 -0.0438 -0.1560
23674SOL    HW173914   7.392   1.728   2.248 -0.5998 -0.4253  0.0188
23674SOL    HW273915   7.253   1.696   2.298 -0.4178  0.2334  0.9751
23675SOL     OW73916   7.915   5.029   2.302  0.4212  0.2123  0.0531
23675SOL    HW173917   7.876   5.063   2.383 -1.0082  0.7094 -0.8108
23675SOL    HW273918   7.927   4.936   2.319  0.1470  0.3096  0.8395
23676SOL     OW73919   9.339   5.500   9.237 -0.1353 -0.4002 -0.2892
23676SOL    HW173920   9.393   5.484   9.315 -1.0943  2.0918  0.9913
23676SOL    HW273921   9.250   5.509   9.271 -0.2502  3.4150 -1.1676
23677SOL     OW73922   6.536   4.961   4.561 -0.9054  0.7706  0.1435
23677SOL    HW173923   6.457   5.001   4.524 -1.0934  0.6916  0.4547
23677SOL    HW273924   6.592   5.035   4.584 -0.3437  0.8116 -1.2228
23678SOL     OW73925   4.746   6.003   3.290  0.0949  0.3256 -0.7904
23678SOL    HW173926   4.765   6.097   3.296  0.7782  0.1705 -0.3615
23678SOL    HW273927   4.798   5.973   3.216  2.5399 -0.3120  1.0590
23679SOL     OW73928   7.842   3.344   2.784 -0.2486 -0.0361  0.2019
23679SOL    HW173929   7.865   3.429   2.821 -1.1589 -0.3183  1.4931
23679SOL    HW273930   7.903   3.283   2.826 -0.5761 -0.2176  0.4133
23680SOL     OW73931   0.584   2.472   5.700 -0.4532 -0.2917 -0.2855
23680SOL    HW173932   0.498   2.448   5.665 -0.0981  0.0034 -1.4078
23680SOL    HW273933   0.565   2.533   5.771 -1.1926 -0.5316 -0.2727
23681SOL     OW73934   5.161   0.097   8.248 -0.2994  0.5120  0.4519
23681SOL    HW173935   5.143   0.184   8.284 -0.9380  0.5423  0.0692
23681SOL    HW273936   5.084   0.044   8.271  0.3617 -0.1286  1.2304
23682SOL     OW73937   5.601   7.091   1.255 -0.1227  0.0402  0.5673
23682SOL    HW173938   5.617   7.043   1.174  0.7936 -1.3356  1.5308
23682SOL    HW273939   5.548   7.032   1.308 -2.8948  1.8900  0.0922
23683SOL     OW73940   7.023   5.373   5.278  0.3980  0.0994 -0.6082
23683SOL    HW173941   7.055   5.392   5.366  1.3455  0.9963 -1.1158
23683SOL    HW273942   7.011   5.278   5.277  2.3676 -0.2129 -0.1298
23684SOL     OW73943   8.975   6.863   1.500 -0.0712  0.4974  0.5187
23684SOL    HW173944   8.988   6.952   1.467 -0.0823  0.3583  0.1320
23684SOL    HW273945   8.883   6.845   1.485 -0.3116  0.7999  1.5571
23685SOL     OW73946   4.428   0.540   2.758  0.0277  0.2411 -0.0917
23685SOL    HW173947   4.483   0.604   2.804 -0.2125  0.7228 -0.4690
23685SOL    HW273948   4.486   0.498   2.695  0.1380  0.2305  0.0180
23686SOL     OW73949   5.419   3.279   9.310 -0.6528 -0.2066 -0.2228
23686SOL    HW173950   5.443   3.277   9.217 -1.3460 -0.6663 -0.3935
23686SOL    HW273951   5.502   3.263   9.356 -0.4022 -0.5313 -0.7732
23687SOL     OW73952   8.970   6.285   0.677  0.1074  0.5111 -0.1316
23687SOL    HW173953   8.898   6.244   0.629  0.0750  0.3540  0.0517
23687SOL    HW273954   8.931   6.365   0.713 -0.1627  0.0969  0.5225
23688SOL     OW73955   0.620   0.618   7.549 -0.2056 -0.1013  0.3235
23688SOL    HW173956   0.705   0.639   7.511 -1.3359  0.3825 -2.1370
23688SOL    HW273957   0.608   0.684   7.617  1.0515  0.3157  0.1803
23689SOL     OW73958   4.635   7.386   5.859  0.7524  0.1711 -0.6768
23689SOL    HW173959   4.613   7.419   5.771 -1.4885 -1.1104 -0.6766
23689SOL    HW273960   4.585   7.305   5.867  2.1876 -0.5944  1.2071
23690SOL     OW73961   8.789   9.228   1.074  0.1477  0.1936 -0.2626
23690SOL    HW173962   8.708   9.204   1.030  0.8617 -0.5729 -1.2096
23690SOL    HW273963   8.845   9.151   1.066  1.0420  0.7729  0.1812
23691SOL     OW73964   1.650   8.086   4.360  0.4308 -0.4211  0.2956
23691SOL    HW173965   1.615   8.149   4.423  0.4467 -1.1068  1.0051
23691SOL    HW273966   1.697   8.022   4.413 -0.0225 -1.3241 -0.3528
23692SOL     OW73967   2.032   6.761   8.769 -0.2458 -0.2591  0.8542
23692SOL    HW173968   1.951   6.756   8.719  1.5958 -0.3797 -2.4340
23692SOL    HW273969   2.037   6.852   8.799  0.8049  1.4775 -3.7192
23693SOL     OW73970   2.317   7.404   2.369  0.3821  0.3777  0.0357
23693SOL    HW173971   2.301   7.335   2.304  0.0710  1.2443 -0.8317
23693SOL    HW273972   2.277   7.482   2.331  0.0050  0.8610  1.3781
23694SOL     OW73973   3.812   7.958   1.997  0.4909  0.3967 -0.2602
23694SOL    HW173974   3.733   7.910   1.975  1.2153 -0.8933 -0.1910
23694SOL    HW273975   3.876   7.932   1.931  1.4420 -0.2103  0.8448
23695SOL     OW73976   6.675   1.964   9.393  0.3827 -0.2519  0.2195
23695SOL    HW173977   6.601   1.966   9.454 -1.9405  1.2808 -2.3884
23695SOL    HW273978   6.707   1.874   9.398 -2.8404 -1.5490  0.2812
23696SOL     OW73979   2.895   5.278   0.911  0.1371 -0.3073 -0.5063
23696SOL    HW173980   2.971   5.241   0.955  1.3016  0.5777 -1.7032
23696SOL    HW273981   2.893   5.370   0.939 -1.5186 -0.6965  0.8364
23697SOL     OW73982   5.663   5.465   1.591  0.0467 -0.2054 -0.0813
23697SOL    HW173983   5.744   5.445   1.638 -0.0831 -2.2860 -0.6615
23697SOL    HW273984   5.673   5.424   1.506 -0.9932  0.8843 -0.7724
23698SOL     OW73985   2.215   9.248   5.557 -0.4667 -0.2904  0.2053
23698SOL    HW173986   2.255   9.268   5.473  1.5935 -0.4782  1.0744
23698SOL    HW273987   2.223   9.329   5.607 -1.0718 -0.3717  0.4367
23699SOL     OW73988   6.086   9.461   1.645 -0.2370 -0.4946  0.1272
23699SOL    HW173989   6.004   9.414   1.627 -0.7126  0.8684 -1.4855
23699SOL    HW273990   6.136   9.453   1.563  0.2424  0.6395  0.2988
23700SOL     OW73991   3.058   3.113   3.736 -0.0651 -0.5287 -0.0697
23700SOL    HW173992   3.101   3.099   3.652  1.6797 -0.4282  0.7523
23700SOL    HW273993   3.009   3.032   3.752 -2.2474  0.2826 -2.1400
23701SOL     OW73994   8.833   8.808   3.758  0.4190  0.0508  0.5906
23701SOL    HW173995   8.820   8.713   3.756  2.1265 -0.2118 -1.3423
23701SOL    HW273996   8.864   8.825   3.847 -1.7444 -0.8660  1.5910
23702SOL     OW73997   8.594   7.362   7.027 -0.5653 -0.0323  0.2282
23702SOL    HW173998   8.635   7.281   6.997 -2.0758 -0.4208 -0.8784
23702SOL    HW273999   8.604   7.359   7.122  1.6138 -0.2640  0.0497
23703SOL     OW74000   1.988   0.621   7.184  0.2755  0.6364 -0.1435
23703SOL    HW174001   1.938   0.615   7.103  1.6349 -1.8975 -0.8844
23703SOL    HW274002   2.078   0.604   7.159  0.8760  0.7398  1.7731
23704SOL     OW74003   5.709   0.103   8.155  0.0561 -0.6996  0.2114
23704SOL    HW174004   5.708   0.161   8.079  1.1246 -1.3323 -0.3098
23704SOL    HW274005   5.618   0.100   8.184  0.2240  2.8008  1.5146
23705SOL     OW74006   4.205   3.580   2.549  0.2613  0.1889  0.0229
23705SOL    HW174007   4.118   3.614   2.572 -0.1838  0.1497 -1.4745
23705SOL    HW274008   4.260   3.659   2.542  0.9205  0.0981  2.9475
23706SOL     OW74009   3.490   7.513   2.362  0.0559  0.4383 -0.1743
23706SOL    HW174010   3.408   7.505   2.410 -1.4558 -1.8140 -2.8196
23706SOL    HW274011   3.550   7.556   2.423 -2.3710  0.0159  2.7296
23707SOL     OW74012   2.053   0.983   5.327 -0.1998 -0.1247 -0.7385
23707SOL    HW174013   2.139   0.987   5.369 -0.4348  0.3118 -0.2873
23707SOL    HW274014   2.071   0.949   5.239  0.3336 -0.7637 -0.3924
23708SOL     OW74015   5.054   4.360   8.947  0.1380 -0.0618  1.2265
23708SOL    HW174016   5.024   4.318   8.866  0.1407  3.1051 -0.5585
23708SOL    HW274017   5.146   4.337   8.952  0.2210 -0.0522  0.1366
23709SOL     OW74018   2.390   7.097   9.281 -0.1343 -0.2178  0.3258
23709SOL    HW174019   2.380   7.192   9.289  0.0479 -0.2174  0.5708
23709SOL    HW274020   2.418   7.083   9.191 -0.6039 -0.0772  0.1581
23710SOL     OW74021   7.846   2.260   5.002  0.3103 -0.3317 -0.3528
23710SOL    HW174022   7.760   2.252   4.962  0.0786 -2.5200  0.4540
23710SOL    HW274023   7.907   2.231   4.934  0.3812  0.5826 -0.6975
23711SOL     OW74024   1.438   7.388   8.922  0.0933  0.7299  0.2453
23711SOL    HW174025   1.527   7.424   8.917 -0.8156  3.0008 -2.4150
23711SOL    HW274026   1.412   7.400   9.014  1.7787  2.0197  0.5951
23712SOL     OW74027   7.473   7.997   1.033  0.0391  0.0698  0.1066
23712SOL    HW174028   7.568   7.985   1.025 -0.0337  0.4713 -1.7452
23712SOL    HW274029   7.437   7.908   1.030  0.3580 -0.1308  1.4448
23713SOL     OW74030   1.424   9.458   3.488  0.0277 -0.2241 -0.4476
23713SOL    HW174031   1.377   9.383   3.527 -0.5242  0.2133 -0.2655
23713SOL    HW274032   1.373   9.481   3.411 -0.2930  0.5180 -0.0192
23714SOL     OW74033   2.665   7.009   6.896 -0.1030  0.3275 -0.0022
23714SOL    HW174034   2.711   7.025   6.813  0.2422  1.6003  0.4146
23714SOL    HW274035   2.582   6.970   6.870  0.6170 -0.6934 -0.8566
23715SOL     OW74036   8.955   5.417   8.450 -0.5364  0.8297  0.3618
23715SOL    HW174037   8.873   5.466   8.443 -0.8657  0.1967 -0.3514
23715SOL    HW274038   8.949   5.373   8.535 -0.6024  1.3587  0.6374
23716SOL     OW74039   5.222   8.176   0.737 -0.2786 -0.2524  0.2552
23716SOL    HW174040   5.164   8.169   0.814 -2.7376 -0.8285 -1.5290
23716SOL    HW274041   5.200   8.261   0.699 -0.8421 -0.9820 -1.0924
23717SOL     OW74042   3.648   2.287   3.064 -0.0875  0.5231 -0.3413
23717SOL    HW174043   3.578   2.308   3.003  1.6064  0.3304 -2.4845
23717SOL    HW274044   3.652   2.361   3.124 -2.7822  0.0337  0.5592
23718SOL     OW74045   1.871   6.204   1.029  0.0011  0.1246 -0.3899
23718SOL    HW174046   1.792   6.245   1.064  0.1594  0.1820 -0.0992
23718SOL    HW274047   1.859   6.110   1.045  0.1610  0.1688 -0.0032
23719SOL     OW74048   5.885   7.988   5.150 -0.2869 -0.4391  0.4885
23719SOL    HW174049   5.795   8.008   5.177 -0.1863 -1.4628  1.6315
23719SOL    HW274050   5.897   7.895   5.170  1.0407 -0.3129  0.3980
23720SOL     OW74051   6.253   1.937   1.276 -0.0391 -0.4829  0.2269
23720SOL    HW174052   6.203   1.978   1.205  1.6191 -0.4066 -0.9596
23720SOL    HW274053   6.248   1.843   1.256 -0.5084 -0.5607  0.6787
23721SOL     OW74054   7.220   1.427   1.883  0.0811  0.6967  0.2050
23721SOL    HW174055   7.256   1.451   1.968  0.0181 -0.4177  0.5595
23721SOL    HW274056   7.180   1.342   1.897  1.8873 -0.5045 -1.4130
23722SOL     OW74057   8.428   0.805   3.644 -0.5274 -0.0236 -0.2055
23722SOL    HW174058   8.384   0.737   3.695  0.5315 -1.3895 -1.0610
23722SOL    HW274059   8.373   0.883   3.656 -0.2817 -0.2246  3.0567
23723SOL     OW74060   4.630   3.218   3.075 -0.5506  0.0298 -0.2794
23723SOL    HW174061   4.636   3.123   3.077  1.0777  0.0840  2.3927
23723SOL    HW274062   4.537   3.237   3.084 -0.8828 -1.2837 -0.7347
23724SOL     OW74063   7.438   5.427   2.615  0.1212  0.2986  0.6982
23724SOL    HW174064   7.358   5.387   2.649 -0.0173  0.5792  0.7090
23724SOL    HW274065   7.482   5.461   2.693  0.3602 -0.0503  0.7154
23725SOL     OW74066   9.020   7.515   6.231 -0.1960  0.9574 -0.4108
23725SOL    HW174067   9.050   7.548   6.146  0.0133  1.5262 -0.1278
23725SOL    HW274068   9.098   7.521   6.287  0.0159 -0.6471 -0.5098
23726SOL     OW74069   0.708   7.693   3.704 -0.4113  0.0391  0.0130
23726SOL    HW174070   0.755   7.667   3.783  0.4510 -0.5199 -0.6619
23726SOL    HW274071   0.623   7.724   3.735 -0.6246 -1.4872  1.0358
23727SOL     OW74072   5.079   5.062   2.948  0.0051 -0.2671 -0.3746
23727SOL    HW174073   5.080   5.009   2.868  1.3968  2.2726 -2.1739
23727SOL    HW274074   5.170   5.061   2.978  0.2792  1.7677 -0.9999
23728SOL     OW74075   1.605   7.868   0.658  0.6610  0.1028 -0.0531
23728SOL    HW174076   1.616   7.913   0.575 -0.5058  0.8847  0.1945
23728SOL    HW274077   1.662   7.915   0.719  0.3300  0.5110 -0.0582
23729SOL     OW74078   3.521   0.170   3.975 -0.6215  0.3831  0.3498
23729SOL    HW174079   3.474   0.250   3.999  0.7447  1.8264 -1.5115
23729SOL    HW274080   3.491   0.150   3.886 -1.9736 -2.0551  1.2488
23730SOL     OW74081   1.628   8.469   2.659 -0.1331 -0.2504  0.2400
23730SOL    HW174082   1.618   8.558   2.693 -1.0613  0.4459 -1.6924
23730SOL    HW274083   1.556   8.420   2.700 -0.1504  0.1088  0.6477
23731SOL     OW74084   8.477   7.761   8.869 -0.5289  0.2406  0.1601
23731SOL    HW174085   8.473   7.667   8.848 -2.2183  0.3342 -0.0918
23731SOL    HW274086   8.458   7.805   8.786  1.2506  0.8702  0.0409
23732SOL     OW74087   1.827   0.464   5.368  0.0807  0.1162  0.0081
23732SOL    HW174088   1.801   0.382   5.408  1.7534 -0.1129  0.7165
23732SOL    HW274089   1.825   0.447   5.274 -0.3750 -0.4659  0.1219
23733SOL     OW74090   1.338   2.236   2.937  0.4920  0.0062 -0.5082
23733SOL    HW174091   1.276   2.308   2.931  0.0005 -0.1285  1.8196
23733SOL    HW274092   1.327   2.202   3.026  3.3016 -0.5566 -0.2532
23734SOL     OW74093   2.033   8.848   6.781 -0.2291  0.1926 -0.7128
23734SOL    HW174094   1.998   8.759   6.778 -2.3317  0.8875  1.1539
23734SOL    HW274095   2.049   8.865   6.873 -0.7177  2.0567 -0.9291
23735SOL     OW74096   3.162   7.488   1.367 -0.3393  0.0773  0.3421
23735SOL    HW174097   3.181   7.409   1.316 -1.4533 -0.1262  0.2367
23735SOL    HW274098   3.227   7.486   1.437  1.0873  0.2543 -0.9183
23736SOL     OW74099   3.411   0.099   2.494 -0.4083 -0.1472  0.1039
23736SOL    HW174100   3.393   0.183   2.537 -1.2814 -0.5968  0.6402
23736SOL    HW274101   3.431   0.122   2.403 -1.1281  0.6029  0.1216
23737SOL     OW74102   0.924   7.262   2.771  0.0316 -0.0209  0.1080
23737SOL    HW174103   1.009   7.236   2.805 -0.2953 -1.9222 -0.4279
23737SOL    HW274104   0.878   7.299   2.847  1.0367  0.2923  0.5770
23738SOL     OW74105   8.327   6.152   3.397  0.2063  0.2345  0.1323
23738SOL    HW174106   8.339   6.235   3.352 -0.2413 -0.5584 -1.5290
23738SOL    HW274107   8.401   6.146   3.458  0.7878  1.3793 -0.4425
23739SOL     OW74108   4.452   0.475   0.100  0.1168 -0.5213  0.3069
23739SOL    HW174109   4.540   0.446   0.075 -0.4004 -0.9773 -1.1568
23739SOL    HW274110   4.396   0.443   0.029 -1.3801 -1.0759  1.6766
23740SOL     OW74111   0.287   3.486   1.404  0.6758 -0.1099  0.1066
23740SOL    HW174112   0.223   3.536   1.352 -0.1071  0.9948  2.0207
23740SOL    HW274113   0.253   3.397   1.403 -1.5813  0.6318  1.9375
23741SOL     OW74114   7.127   0.828   2.793 -1.0240  0.0599  0.1932
23741SOL    HW174115   7.114   0.894   2.861  0.4409  0.5504  0.0295
23741SOL    HW274116   7.109   0.744   2.836  2.7550  0.0501  2.1222
23742SOL     OW74117   8.702   0.817   4.737 -0.1587 -0.5017  0.1446
23742SOL    HW174118   8.683   0.910   4.753 -0.6483 -0.9762  2.6062
23742SOL    HW274119   8.624   0.785   4.691 -0.5273  0.0310  0.3776
23743SOL     OW74120   9.000   8.653   8.499  0.1280 -0.0803 -0.1989
23743SOL    HW174121   9.019   8.730   8.553  1.3113 -0.8212  0.4865
23743SOL    HW274122   9.029   8.677   8.412  0.0440  0.4229 -0.0920
23744SOL     OW74123   7.879   6.954   1.936 -0.1179 -0.1437 -0.1310
23744SOL    HW174124   7.969   6.988   1.939 -0.5910  1.1735 -0.1281
23744SOL    HW274125   7.824   7.033   1.937 -1.2418 -0.8685 -1.4913
23745SOL     OW74126   7.167   2.743   4.662 -0.3513  0.7433  0.4264
23745SOL    HW174127   7.243   2.800   4.657 -0.7929  1.2013 -2.5165
23745SOL    HW274128   7.092   2.801   4.649 -0.9643 -0.1635 -0.1863
23746SOL     OW74129   4.785   4.480   3.359  0.6188  0.0706  0.2530
23746SOL    HW174130   4.788   4.558   3.305  0.8644  0.2955  0.5883
23746SOL    HW274131   4.852   4.494   3.426  0.0577 -0.0317  0.8499
23747SOL     OW74132   7.646   5.521   4.474 -0.2730  0.3154 -0.2405
23747SOL    HW174133   7.631   5.610   4.442  2.0736  1.9328  2.6363
23747SOL    HW274134   7.685   5.475   4.399 -1.4549  1.6938 -1.7706
23748SOL     OW74135   0.098   8.854   4.076 -0.5511 -0.1066 -0.0680
23748SOL    HW174136   0.094   8.772   4.028  0.4006  0.2909 -0.8615
23748SOL    HW274137   0.042   8.914   4.027 -3.3491 -0.9100  1.9147
23749SOL     OW74138   6.428   8.228   8.101  0.6865  0.9102 -0.0318
23749SOL    HW174139   6.405   8.287   8.029  0.2219  0.7788  0.0035
23749SOL    HW274140   6.482   8.161   8.061 -0.5796  0.1467 -0.5181
23750SOL     OW74141   6.811   2.320   7.925 -0.3283 -0.0150  0.2317
23750SOL    HW174142   6.782   2.388   7.863  2.6425  1.0065 -0.1704
23750SOL    HW274143   6.824   2.242   7.871  2.0019  0.8010 -0.4739
23751SOL     OW74144   6.141   5.351   6.768  0.5034  0.4867  0.0145
23751SOL    HW174145   6.120   5.266   6.730  0.1819  0.1786  0.8550
23751SOL    HW274146   6.177   5.402   6.695  3.6979 -1.3752  0.1009
23752SOL     OW74147   8.528   8.844   2.612 -0.1238  0.4157  0.0600
23752SOL    HW174148   8.519   8.890   2.696 -0.9589  1.8856 -0.7856
23752SOL    HW274149   8.495   8.907   2.548  0.6580 -0.6205 -1.3897
23753SOL     OW74150   9.023   1.813   0.225  0.7420 -0.1745 -0.0146
23753SOL    HW174151   8.994   1.728   0.191 -0.4663 -0.9356  2.6745
23753SOL    HW274152   9.090   1.792   0.290 -0.8565  0.6851  2.0327
23754SOL     OW74153   1.563   2.297   9.602  0.0948  0.1072 -0.4958
23754SOL    HW174154   1.491   2.234   9.610 -0.1739  0.4456 -0.2149
23754SOL    HW274155   1.524   2.372   9.557  0.8207 -0.5526 -2.2887
23755SOL     OW74156   2.469   3.168   8.907  0.1137  0.5158 -0.3032
23755SOL    HW174157   2.400   3.186   8.843 -1.0133  0.3134  0.8163
23755SOL    HW274158   2.488   3.075   8.895  0.0355  0.5194 -0.4672
23756SOL     OW74159   2.883   0.844   3.292  0.2050  0.2406 -0.0829
23756SOL    HW174160   2.897   0.903   3.218 -0.1637 -0.4573 -0.7109
23756SOL    HW274161   2.847   0.765   3.254 -0.1833 -0.0551  0.8706
23757SOL     OW74162   9.142   3.482   2.371  0.2898 -0.2100 -0.2905
23757SOL    HW174163   9.202   3.541   2.417 -0.9847  0.3160  0.7429
23757SOL    HW274164   9.197   3.439   2.305  1.9621 -0.3151  1.1142
23758SOL     OW74165   8.931   1.591   4.874  0.1987 -0.5282  0.5394
23758SOL    HW174166   8.910   1.552   4.789 -0.0381 -0.9182  0.7718
23758SOL    HW274167   9.025   1.576   4.885  0.3167 -0.0735  0.1440
23759SOL     OW74168   3.974   0.748   2.030 -0.2008 -0.3193 -0.1619
23759SOL    HW174169   3.937   0.829   1.995 -0.0298 -0.5317 -0.8462
23759SOL    HW274170   3.946   0.680   1.969 -0.5051 -0.8101  0.5122
23760SOL     OW74171   8.684   6.151   4.802 -0.5479  0.2808  0.7460
23760SOL    HW174172   8.682   6.247   4.799  0.5684  0.3413  1.5597
23760SOL    HW274173   8.776   6.129   4.815 -0.9514 -0.8685  1.8144
23761SOL     OW74174   5.591   8.386   2.464  0.5614  0.6805 -0.6569
23761SOL    HW174175   5.582   8.361   2.556 -0.8743  2.4404 -0.2830
23761SOL    HW274176   5.662   8.329   2.431  0.1858 -0.9413  1.1445
23762SOL     OW74177   8.156   0.543   9.634  0.1874 -0.3887  0.2144
23762SOL    HW174178   8.243   0.505   9.634 -0.8566 -3.0873  2.1297
23762SOL    HW274179   8.167   0.630   9.672  2.2184 -0.0076 -1.1294
23763SOL     OW74180   1.693   0.586   2.880  0.6849 -0.2280 -0.1970
23763SOL    HW174181   1.785   0.566   2.901  0.7792 -0.0953 -0.4913
23763SOL    HW274182   1.663   0.510   2.830  0.5240 -0.4393  0.2060
23764SOL     OW74183   5.631   3.537   6.146 -0.2852  0.2928 -0.2502
23764SOL    HW174184   5.538   3.549   6.125 -0.7267 -1.6977  0.3508
23764SOL    HW274185   5.644   3.442   6.141  1.9983  0.5974 -1.3718
23765SOL     OW74186   4.358   3.522   7.117 -0.1814  0.4968  0.2972
23765SOL    HW174187   4.306   3.585   7.068  0.0904  0.3061 -0.2465
23765SOL    HW274188   4.294   3.472   7.168 -0.5879  0.0086 -0.6563
23766SOL     OW74189   1.748   4.283   4.447  0.2195 -0.7165 -0.3080
23766SOL    HW174190   1.825   4.227   4.455  0.4407 -0.4235 -0.3527
23766SOL    HW274191   1.700   4.271   4.529  0.4669 -0.6778 -0.1558
23767SOL     OW74192   0.978   4.563   3.998  0.1532  0.2356 -0.1814
23767SOL    HW174193   1.055   4.616   3.977  0.4110 -0.2264 -0.4166
23767SOL    HW274194   0.959   4.584   4.089  0.4286  0.5182 -0.1881
23768SOL     OW74195   7.982   0.085   3.667  0.5046  0.6755 -0.4574
23768SOL    HW174196   7.913   0.054   3.608  0.2154 -1.7847  1.0431
23768SOL    HW274197   7.980   0.180   3.657 -1.3117  0.5262 -2.4051
23769SOL     OW74198   4.360   3.214   3.125 -0.1368 -0.3118  0.0549
23769SOL    HW174199   4.334   3.219   3.217  0.2789 -2.0240  0.2914
23769SOL    HW274200   4.304   3.278   3.081 -0.5463  0.3219  1.4497
23770SOL     OW74201   5.535   8.847   2.603  0.5493 -0.2300 -0.3105
23770SOL    HW174202   5.583   8.928   2.588  0.1322 -0.2392 -1.8624
23770SOL    HW274203   5.443   8.874   2.606  0.4003 -0.6475 -0.9292
23771SOL     OW74204   2.383   5.031   0.358 -0.0957  0.3364 -0.5807
23771SOL    HW174205   2.392   5.086   0.280 -0.6669 -0.0573 -0.9331
23771SOL    HW274206   2.352   5.091   0.426  0.0854  0.6164 -0.7426
23772SOL     OW74207   1.702   7.597   1.151  0.1271 -0.3720 -0.1153
23772SOL    HW174208   1.751   7.520   1.124 -0.2360 -0.7174  0.1874
23772SOL    HW274209   1.763   7.648   1.205  1.8888  1.8454 -3.8364
23773SOL     OW74210   1.810   4.031   4.858 -0.2007  0.5263  0.3812
23773SOL    HW174211   1.729   4.016   4.810 -1.1121  2.6951  1.0886
23773SOL    HW274212   1.825   4.126   4.851  3.0772  0.0521 -0.9320
23774SOL     OW74213   9.084   0.934   3.460 -0.1757  0.4350 -0.2024
23774SOL    HW174214   9.072   0.887   3.377  1.3154  0.2617 -0.3394
23774SOL    HW274215   9.125   0.870   3.518 -1.6384  0.4034  0.8629
23775SOL     OW74216   8.653   2.123   4.443 -0.1968  0.5130 -0.2980
23775SOL    HW174217   8.602   2.067   4.385  2.0301 -0.3494 -1.5417
23775SOL    HW274218   8.712   2.062   4.488  2.8256  1.7784 -2.2414
23776SOL     OW74219   9.043   1.212   2.083  0.1295 -0.3555 -0.2789
23776SOL    HW174220   9.084   1.268   2.017 -0.8042  1.0272  0.2779
23776SOL    HW274221   9.013   1.135   2.033  0.6021  0.0631 -1.2289
23777SOL     OW74222   7.733   6.098   5.629 -0.1252 -0.6865 -0.1415
23777SOL    HW174223   7.798   6.077   5.695 -0.1402 -1.3518 -0.3372
23777SOL    HW274224   7.728   6.194   5.631 -0.7789 -0.7219  1.4405
23778SOL     OW74225   7.048   9.116   0.247 -0.5738 -0.1621 -0.2444
23778SOL    HW174226   7.103   9.054   0.294 -1.6551 -1.6080 -0.7821
23778SOL    HW274227   7.016   9.176   0.314  0.1438 -0.4516  0.3721
23779SOL     OW74228   1.366   2.570   0.730  0.3129 -0.4057  0.3781
23779SOL    HW174229   1.446   2.528   0.700 -0.4958 -1.5557 -0.2808
23779SOL    HW274230   1.296   2.527   0.680 -0.7564  0.2149  1.2720
23780SOL     OW74231   5.285   0.205   4.404 -0.0045  0.0991  0.2727
23780SOL    HW174232   5.365   0.230   4.357  0.8195 -0.3025  1.4106
23780SOL    HW274233   5.229   0.283   4.397  0.7385  0.6279 -0.0148
23781SOL     OW74234   4.691   2.273   0.653 -0.4030  0.0959  0.2346
23781SOL    HW174235   4.763   2.304   0.599  0.6629 -0.9932  0.9892
23781SOL    HW274236   4.650   2.204   0.601 -0.4938  0.2701  0.0751
23782SOL     OW74237   8.301   7.093   2.538 -0.1504  0.0147 -0.1477
23782SOL    HW174238   8.289   7.009   2.493  0.3725  0.8261 -1.8751
23782SOL    HW274239   8.284   7.159   2.471  0.0338  1.2950  1.0264
23783SOL     OW74240   4.862   3.820   4.441 -0.2279  0.1796 -0.3605
23783SOL    HW174241   4.787   3.877   4.458 -0.8752 -1.2348  1.8870
23783SOL    HW274242   4.911   3.818   4.523 -0.4454 -2.7406 -0.1937
23784SOL     OW74243   0.131   8.596   3.557 -0.4029  0.4091 -0.4574
23784SOL    HW174244   0.039   8.572   3.554 -0.1710 -0.5108 -0.3395
23784SOL    HW274245   0.178   8.513   3.567  0.4614  0.8306 -0.8908
23785SOL     OW74246   5.915   2.922   5.528  0.3100 -0.1680  0.1294
23785SOL    HW174247   5.850   2.974   5.575  0.0663 -0.6031  0.2742
23785SOL    HW274248   5.864   2.855   5.482  0.6883 -0.8040  0.6201
23786SOL     OW74249   5.653   1.663   0.878  0.1236 -0.1954 -0.3689
23786SOL    HW174250   5.606   1.676   0.960 -0.9182  0.2287 -1.0139
23786SOL    HW274251   5.629   1.575   0.850 -0.6568  0.1843 -0.9195
23787SOL     OW74252   0.682   7.723   4.956  0.0020 -0.3277 -0.4547
23787SOL    HW174253   0.628   7.766   5.022 -2.0087 -1.4195 -1.2966
23787SOL    HW274254   0.768   7.714   4.997 -0.7164  0.5455  1.3411
23788SOL     OW74255   0.322   6.394   1.604 -0.4380  0.0523 -0.3345
23788SOL    HW174256   0.273   6.322   1.564 -0.7700 -0.6645  1.2614
23788SOL    HW274257   0.413   6.364   1.603 -0.4787 -0.0749 -0.3431
23789SOL     OW74258   1.008   4.226   4.854 -0.0501  0.0469  0.1419
23789SOL    HW174259   0.958   4.174   4.791 -0.1632  0.5394 -0.1777
23789SOL    HW274260   0.950   4.237   4.928  0.0029 -0.3487  0.2452
23790SOL     OW74261   0.940   3.223   3.564 -0.4613  0.1378 -0.3801
23790SOL    HW174262   0.998   3.264   3.500  1.1349 -0.5361  0.5579
23790SOL    HW274263   0.887   3.295   3.598  0.4542  0.9461 -0.6238
23791SOL     OW74264   1.539   7.786   4.358 -0.1070  0.5437  0.0720
23791SOL    HW174265   1.544   7.698   4.395 -2.2624  0.5562  0.5009
23791SOL    HW274266   1.627   7.822   4.371  0.3660 -0.9455  1.3606
23792SOL     OW74267   7.498   5.935   8.372 -0.5393  0.3439 -0.6320
23792SOL    HW174268   7.496   5.862   8.310  1.3714 -0.2723 -0.0241
23792SOL    HW274269   7.452   5.903   8.449 -0.5330  0.1237 -0.7211
23793SOL     OW74270   7.145   3.987   4.474  0.0268 -0.1688  0.4964
23793SOL    HW174271   7.165   3.989   4.380 -2.4759 -0.1642 -0.1103
23793SOL    HW274272   7.184   3.905   4.505 -0.7605 -1.1389 -0.9848
23794SOL     OW74273   3.190   5.366   3.352  0.5073  0.2408  0.5953
23794SOL    HW174274   3.133   5.356   3.275  1.9385  0.4148 -0.5235
23794SOL    HW274275   3.219   5.457   3.348  2.4350 -0.3500 -0.0344
23795SOL     OW74276   0.726   8.347   7.009  0.3091 -0.2792  0.1814
23795SOL    HW174277   0.641   8.371   6.973  0.5976 -1.1575 -1.1890
23795SOL    HW274278   0.785   8.346   6.933  1.2548 -0.9268  0.8868
23796SOL     OW74279   8.300   9.270   6.632  0.5833 -0.0176 -0.1899
23796SOL    HW174280   8.273   9.310   6.549  0.9322  2.7836  0.9176
23796SOL    HW274281   8.377   9.321   6.659  1.3562 -1.7886  1.1913
23797SOL     OW74282   7.209   5.725   2.669 -0.1712 -0.4033 -0.6299
23797SOL    HW174283   7.131   5.685   2.632 -0.3449 -0.5121 -0.1543
23797SOL    HW274284   7.241   5.662   2.733 -1.2762  0.7995  1.1950
23798SOL     OW74285   7.623   1.596   4.025  0.2471 -0.2372 -0.0646
23798SOL    HW174286   7.589   1.513   4.058 -1.0222  0.4320  0.3398
23798SOL    HW274287   7.551   1.658   4.033  0.8827  0.7100 -1.2030
23799SOL     OW74288   9.446   2.957   7.969  0.3164  0.2068  0.5453
23799SOL    HW174289   9.390   2.979   8.044 -2.2454 -1.1702 -0.8173
23799SOL    HW274290   9.398   2.989   7.893  1.2502 -1.3132 -0.7381
23800SOL     OW74291   5.606   6.152   8.537 -0.2645  0.5272  0.1723
23800SOL    HW174292   5.666   6.220   8.508  0.2399 -1.4864 -4.3797
23800SOL    HW274293   5.662   6.080   8.565 -0.7333  0.3984  0.8266
23801SOL     OW74294   3.831   7.949   5.821 -0.2830  0.3346  0.0725
23801SOL    HW174295   3.757   7.890   5.838  0.1012 -0.2390 -0.1770
23801SOL    HW274296   3.860   7.924   5.733  0.0082  0.7693  0.0463
23802SOL     OW74297   8.373   3.688   9.317 -0.0463 -0.1193 -0.7419
23802SOL    HW174298   8.381   3.778   9.348  0.8926 -0.1450 -0.8730
23802SOL    HW274299   8.303   3.691   9.252  0.4954  0.6824 -1.3141
23803SOL     OW74300   1.611   3.725   5.051 -0.1856  0.0968  0.1382
23803SOL    HW174301   1.656   3.791   5.103 -2.2796  0.8777  1.0771
23803SOL    HW274302   1.679   3.663   5.026  1.7570  2.2973 -0.3308
23804SOL     OW74303   8.511   0.235   3.289 -0.4267  0.1959  0.0285
23804SOL    HW174304   8.519   0.262   3.197  0.5236  1.2146  0.3808
23804SOL    HW274305   8.594   0.261   3.328 -0.2054 -1.6153  0.8622
23805SOL     OW74306   8.397   6.606   6.032 -0.0057 -0.1396  0.0070
23805SOL    HW174307   8.304   6.593   6.017 -0.0778 -0.3615  0.6200
23805SOL    HW274308   8.440   6.534   5.985 -0.0322  0.8098 -1.5448
23806SOL     OW74309   1.209   1.658   4.923  0.4741 -0.3890 -0.2737
23806SOL    HW174310   1.203   1.585   4.984 -0.1591 -0.1935 -0.1071
23806SOL    HW274311   1.302   1.662   4.900  0.7225 -0.4250  0.7122
23807SOL     OW74312   8.808   2.656   0.001  0.0297  0.1026  0.5213
23807SOL    HW174313   8.812   2.611  -0.083  0.2029 -1.6062  1.4182
23807SOL    HW274314   8.714   2.667   0.018 -0.1310 -2.1182  1.3864
23808SOL     OW74315   4.990   1.593   4.912 -0.3313  0.1166 -0.0216
23808SOL    HW174316   4.916   1.638   4.952 -0.7600 -0.1914 -0.4570
23808SOL    HW274317   4.952   1.514   4.873  0.2926 -0.2586  0.1098
23809SOL     OW74318   9.437   3.823   6.720 -0.4596  0.0541  0.1334
23809SOL    HW174319   9.445   3.735   6.683 -1.4843  0.1838 -0.4266
23809SOL    HW274320   9.482   3.817   6.805  0.8169 -0.5871 -0.5615
23810SOL     OW74321   3.483   3.855   5.184  0.3801 -0.0832  0.1464
23810SOL    HW174322   3.507   3.819   5.270  0.6486 -1.1861 -0.3795
23810SOL    HW274323   3.455   3.779   5.133 -1.3918  0.7661 -0.2330
23811SOL     OW74324   7.402   2.519   7.857  0.2589  0.1306  0.6498
23811SOL    HW174325   7.438   2.446   7.908  1.7025 -0.0172 -0.5151
23811SOL    HW274326   7.442   2.597   7.897  0.7158  0.0780  0.3055
23812SOL     OW74327   1.991   4.446   7.979  0.1772  0.5812  0.2602
23812SOL    HW174328   2.021   4.458   8.069  0.5495  1.7772 -0.0000
23812SOL    HW274329   2.070   4.460   7.926 -0.1605  0.4660 -0.2767
23813SOL     OW74330   6.184   6.988   7.061 -0.3236 -0.2323 -0.6097
23813SOL    HW174331   6.250   7.031   7.116 -0.5491 -0.0286 -0.4961
23813SOL    HW274332   6.169   6.903   7.103 -1.1300  0.2685  0.1445
23814SOL     OW74333   6.244   2.891   4.191  0.4437  0.1132 -0.4584
23814SOL    HW174334   6.208   2.961   4.137  1.6374 -0.0585 -1.5375
23814SOL    HW274335   6.237   2.923   4.281 -0.9622  0.7008 -0.7487
23815SOL     OW74336   8.323   4.948   0.924  0.6865  0.2930  0.5110
23815SOL    HW174337   8.271   4.869   0.932 -0.9289  1.3156  0.5928
23815SOL    HW274338   8.342   4.955   0.830 -0.1209  0.3706  0.3453
23816SOL     OW74339   9.186   2.187   2.827  0.1795 -0.5598  0.0782
23816SOL    HW174340   9.151   2.226   2.747 -0.8365 -0.6794  0.4406
23816SOL    HW274341   9.150   2.241   2.898 -2.5310 -2.8966  0.6937
23817SOL     OW74342   9.268   6.868   0.530 -0.1632  0.3479  0.1923
23817SOL    HW174343   9.236   6.835   0.614 -0.3906 -0.5321 -0.2275
23817SOL    HW274344   9.190   6.902   0.486  0.2001  2.2537  0.9661
23818SOL     OW74345   0.878   7.928   5.143  0.1056  0.0598 -0.2448
23818SOL    HW174346   0.851   7.941   5.052 -0.0438  2.0878  0.0556
23818SOL    HW274347   0.972   7.911   5.137 -0.0059 -0.4190 -0.8018
23819SOL     OW74348   6.513   5.920   6.820 -0.7037 -0.0687 -0.6108
23819SOL    HW174349   6.443   5.986   6.819 -0.7734 -0.1141  0.2235
23819SOL    HW274350   6.511   5.881   6.733 -1.2277  0.4484 -0.8350
23820SOL     OW74351   4.388   5.579   4.050  0.2324  0.1628  0.2003
23820SOL    HW174352   4.414   5.526   4.125  0.1836  2.1540  1.7241
23820SOL    HW274353   4.363   5.664   4.088 -0.4267  1.0460 -2.0151
23821SOL     OW74354   7.496   9.487   1.417 -0.0124  0.1759  0.5332
23821SOL    HW174355   7.423   9.427   1.400 -0.7948  0.9990  0.8700
23821SOL    HW274356   7.468   9.536   1.495  0.1932  1.5872 -0.2518
23822SOL     OW74357   6.332   3.485   2.859 -0.2893  0.4866 -0.8654
23822SOL    HW174358   6.290   3.562   2.897 -0.7004  0.3500 -1.0377
23822SOL    HW274359   6.315   3.415   2.922 -0.0609  0.4937 -0.7918
23823SOL     OW74360   3.606   6.931   2.859  0.1009  0.5791 -0.2169
23823SOL    HW174361   3.612   7.016   2.903 -1.5538  0.3797  0.4750
23823SOL    HW274362   3.578   6.952   2.770 -1.0613  0.7591  0.1653
23824SOL     OW74363   4.860   2.534   4.554  0.1913  0.2020  0.4814
23824SOL    HW174364   4.911   2.547   4.474 -1.0337 -1.4509 -0.6288
23824SOL    HW274365   4.813   2.451   4.539 -2.4739  1.4064  1.6155
23825SOL     OW74366   2.720   1.060   0.294 -0.5221 -0.1833 -0.4606
23825SOL    HW174367   2.752   1.005   0.366 -0.6390  0.3732  0.0232
23825SOL    HW274368   2.673   1.131   0.338 -2.2878 -0.8772 -1.1408
23826SOL     OW74369   6.191   4.827   0.096 -0.1393 -0.4040  0.0486
23826SOL    HW174370   6.241   4.758   0.052 -0.5357  0.0480 -1.1531
23826SOL    HW274371   6.214   4.907   0.049  0.5838  0.3811  1.6423
23827SOL     OW74372   1.335   0.903   1.148 -0.1165 -0.1096 -0.2787
23827SOL    HW174373   1.298   0.854   1.222 -1.7891  0.7706 -0.4835
23827SOL    HW274374   1.261   0.953   1.114  0.5533 -0.6734 -2.7163
23828SOL     OW74375   6.241   1.715   8.731  0.5845 -0.5714 -0.1686
23828SOL    HW174376   6.238   1.800   8.686 -0.9711 -0.6230 -0.2269
23828SOL    HW274377   6.221   1.651   8.662 -0.1342 -0.8042  0.2453
23829SOL     OW74378   3.986   9.408   4.062  0.1091 -0.2768 -0.8699
23829SOL    HW174379   3.941   9.365   4.134 -0.8918 -0.9399 -1.8486
23829SOL    HW274380   4.079   9.395   4.079  0.1110  2.2874  1.9219
23830SOL     OW74381   0.842   3.672   0.602 -0.4148 -0.3901  0.3901
23830SOL    HW174382   0.839   3.715   0.687  1.0452  0.8879 -0.1561
23830SOL    HW274383   0.827   3.580   0.621 -1.8099  0.0768  1.8142
23831SOL     OW74384   3.419   4.150   4.532  0.2153  0.3220  0.2492
23831SOL    HW174385   3.380   4.141   4.618  0.3520 -0.9226  0.2040
23831SOL    HW274386   3.392   4.237   4.501 -0.8490  0.2793  1.0258
23832SOL     OW74387   7.616   3.318   3.690  0.7031  0.0629 -0.0739
23832SOL    HW174388   7.560   3.394   3.679 -0.3895 -0.7307 -0.1553
23832SOL    HW274389   7.634   3.288   3.600  0.5785 -0.1677 -0.0219
23833SOL     OW74390   4.246   2.282   6.229 -0.3472 -0.1387  0.2372
23833SOL    HW174391   4.314   2.227   6.266 -1.2279 -0.4369  1.4748
23833SOL    HW274392   4.293   2.348   6.178  0.8021 -0.8992  0.2815
23834SOL     OW74393   2.368   0.128   6.521  0.3834 -0.3261  0.3070
23834SOL    HW174394   2.359   0.035   6.502  1.4073 -0.7715  1.8747
23834SOL    HW274395   2.402   0.132   6.610 -0.1694  1.5724  0.4801
23835SOL     OW74396   7.576   0.372   2.227 -0.4680  0.0178 -0.4279
23835SOL    HW174397   7.526   0.392   2.147 -1.2854  1.4725  0.3893
23835SOL    HW274398   7.630   0.449   2.241 -0.1153 -0.3466  0.2645
23836SOL     OW74399   5.405   4.511   5.025  0.2792 -0.2876 -0.2143
23836SOL    HW174400   5.349   4.461   4.966  1.7867 -0.5355 -1.4980
23836SOL    HW274401   5.458   4.444   5.070 -0.0488 -0.0262  0.5887
23837SOL     OW74402   1.605   4.537   8.089 -0.3149  0.0473  0.0414
23837SOL    HW174403   1.570   4.625   8.101 -1.8814 -0.6082  0.5500
23837SOL    HW274404   1.663   4.523   8.164 -0.2996  0.5137  0.1188
23838SOL     OW74405   6.937   1.040   2.471  0.0409 -0.3374 -0.3849
23838SOL    HW174406   6.965   1.123   2.432  0.5050  0.0454  0.7328
23838SOL    HW274407   7.018   1.000   2.501 -0.4759  0.4665  2.2945
23839SOL     OW74408   5.402   3.112   8.030  0.0436  0.5423  0.1160
23839SOL    HW174409   5.428   3.075   8.115  0.7400  1.0728  0.1424
23839SOL    HW274410   5.482   3.151   7.995 -0.2944  0.5400 -0.6829
23840SOL     OW74411   2.815   8.636   5.249 -0.4014  0.1263 -0.8686
23840SOL    HW174412   2.885   8.601   5.304 -1.6822 -0.6741  0.3418
23840SOL    HW274413   2.857   8.656   5.166  0.7188 -3.1926 -1.2385
23841SOL     OW74414   2.364   1.726   8.132 -0.3762 -0.8730  0.0547
23841SOL    HW174415   2.338   1.638   8.161 -2.3993 -0.1241  0.6660
23841SOL    HW274416   2.436   1.711   8.071 -1.1715 -3.0079 -0.4331
23842SOL     OW74417   8.379   6.008   1.736 -0.2477 -0.5447  0.0313
23842SOL    HW174418   8.454   5.994   1.793  0.0169  0.5368 -0.0229
23842SOL    HW274419   8.304   5.981   1.789  0.1965 -2.1293 -0.1037
23843SOL     OW74420   2.436   0.953   9.486 -0.3366 -0.1705 -0.1535
23843SOL    HW174421   2.437   0.859   9.503 -0.9590  0.0193  1.0045
23843SOL    HW274422   2.346   0.972   9.459 -0.4469  0.2210  0.4596
23844SOL     OW74423   6.097   7.389   2.185  0.0164 -0.4948 -0.0788
23844SOL    HW174424   6.170   7.416   2.240  0.2046 -0.8749 -0.1434
23844SOL    HW274425   6.118   7.300   2.159  0.2892 -0.0657 -1.3811
23845SOL     OW74426   5.987   0.352   7.053 -0.0770 -0.0408 -0.1324
23845SOL    HW174427   5.939   0.421   7.099 -0.6100  0.0022 -0.7484
23845SOL    HW274428   6.079   0.371   7.071 -0.2644 -0.0375  0.9415
23846SOL     OW74429   2.512   8.139   8.696 -0.7701  0.1408 -0.3086
23846SOL    HW174430   2.558   8.151   8.779 -1.4672 -0.1398  0.1237
23846SOL    HW274431   2.569   8.082   8.645  0.3213  1.4118 -0.5630
23847SOL     OW74432   7.885   2.067   9.249 -0.5624 -0.6215  0.3707
23847SOL    HW174433   7.966   2.035   9.289 -0.0513 -0.2703 -0.3604
23847SOL    HW274434   7.852   1.991   9.200 -1.2293 -1.0739  1.4983
23848SOL     OW74435   1.506   5.628   3.991 -0.3626  0.3939  0.3761
23848SOL    HW174436   1.569   5.699   4.000 -0.7280  0.7261  0.3489
23848SOL    HW274437   1.530   5.566   4.058 -0.1767  0.6510  0.5492
23849SOL     OW74438   6.936   5.822   8.330  0.4851  0.1346 -0.4269
23849SOL    HW174439   6.927   5.805   8.236  1.8211 -0.2916 -0.5024
23849SOL    HW274440   6.997   5.755   8.360 -0.8533 -0.5035  1.0022
23850SOL     OW74441   8.414   7.767   3.329  0.4599  0.5083  0.3276
23850SOL    HW174442   8.423   7.692   3.271  1.0784  0.4698  0.4669
23850SOL    HW274443   8.320   7.780   3.338  0.3085 -1.1360  1.4623
23851SOL     OW74444   4.323   4.784   0.544 -0.4021  0.4381 -0.3422
23851SOL    HW174445   4.401   4.744   0.507 -0.3168 -1.0042  1.2790
23851SOL    HW274446   4.252   4.723   0.524 -0.5092  0.0867  0.9711
23852SOL     OW74447   9.565   8.079   3.307 -0.0059 -0.5151  0.7037
23852SOL    HW174448   9.524   8.165   3.311 -0.5739 -0.6582 -1.1842
23852SOL    HW274449   9.496   8.020   3.277  0.9655 -1.1985 -0.2606
23853SOL     OW74450   0.501   7.290   1.538 -0.3167  0.3236  0.3308
23853SOL    HW174451   0.445   7.237   1.595  0.1374 -0.4240  0.0806
23853SOL    HW274452   0.590   7.261   1.557 -0.1926 -0.2620 -1.0901
23854SOL     OW74453   1.536   6.566   0.999  0.1374 -0.0805 -0.1577
23854SOL    HW174454   1.456   6.571   1.052  0.3390 -1.1995  0.2728
23854SOL    HW274455   1.505   6.540   0.912 -0.0776  0.6008 -0.2862
23855SOL     OW74456   0.985   1.048   9.249  0.1993  0.3704 -0.0660
23855SOL    HW174457   0.965   0.967   9.296 -2.6468 -0.2881 -2.1619
23855SOL    HW274458   0.976   1.116   9.316  1.7720 -0.9053  1.5351
23856SOL     OW74459   0.165   1.435   6.390 -0.4362 -0.1205 -0.0692
23856SOL    HW174460   0.230   1.448   6.322 -1.1642  1.5946 -0.4962
23856SOL    HW274461   0.081   1.433   6.343 -0.8252 -0.5999  0.6243
23857SOL     OW74462   3.767   7.414   7.184 -0.2592  0.0157 -0.9265
23857SOL    HW174463   3.754   7.322   7.206 -0.5748  0.5196  1.2922
23857SOL    HW274464   3.684   7.456   7.206 -0.3732  0.7604 -2.6210
23858SOL     OW74465   0.878   4.804   9.396  0.7226 -0.0976  0.1407
23858SOL    HW174466   0.965   4.837   9.374  0.9588 -0.0480  1.0697
23858SOL    HW274467   0.838   4.874   9.447  0.7552 -0.7271  1.0710
23859SOL     OW74468   1.816   3.149   8.099  0.0214 -0.2598 -0.1390
23859SOL    HW174469   1.869   3.213   8.147  1.3121 -0.4032 -1.2912
23859SOL    HW274470   1.865   3.066   8.109 -1.0192 -0.8280  0.3756
23860SOL     OW74471   8.345   8.566   9.381 -0.4993 -0.2830  0.2947
23860SOL    HW174472   8.427   8.556   9.430 -0.8314 -0.6321  0.7857
23860SOL    HW274473   8.324   8.659   9.388  0.4108  0.0319 -0.7536
23861SOL     OW74474   8.987   0.526   5.937 -0.1852 -0.4198  0.1194
23861SOL    HW174475   8.992   0.501   5.845  0.7575  0.9537 -0.2434
23861SOL    HW274476   9.059   0.479   5.979 -0.2774 -0.6251  0.0482
23862SOL     OW74477   5.904   0.358   7.997  1.1140 -0.0309 -0.7071
23862SOL    HW174478   5.818   0.336   7.963  0.4038 -0.0985  1.0507
23862SOL    HW274479   5.959   0.284   7.973 -0.6577 -2.8654  2.9632
23863SOL     OW74480   4.123   0.718   8.592 -0.3039  0.5355  0.0172
23863SOL    HW174481   4.126   0.690   8.501  0.6094 -3.0722  0.9885
23863SOL    HW274482   4.214   0.740   8.613 -0.2083 -0.1910  0.4187
23864SOL     OW74483   5.101   1.717   5.870  0.5936  0.2130 -0.0760
23864SOL    HW174484   5.165   1.695   5.939 -0.5496 -1.3856  0.5510
23864SOL    HW274485   5.035   1.770   5.915  0.9920  1.0954 -0.5098
23865SOL     OW74486   8.447   6.920   0.180 -0.3170  0.5737 -0.2454
23865SOL    HW174487   8.413   6.839   0.219 -1.7632  0.9953 -0.5550
23865SOL    HW274488   8.368   6.969   0.155  0.5464  1.6180 -1.0059
23866SOL     OW74489   0.796   3.324   9.503 -0.2190  0.3515  0.0672
23866SOL    HW174490   0.783   3.350   9.594 -1.1391  0.1148  0.0143
23866SOL    HW274491   0.855   3.391   9.467 -1.7123  1.8398  0.2120
23867SOL     OW74492   3.914   3.128   6.911  0.4645  0.5452 -0.1878
23867SOL    HW174493   3.957   3.046   6.934 -1.1137 -0.1358  0.4614
23867SOL    HW274494   3.984   3.181   6.871  1.6218 -0.9068 -0.1871
23868SOL     OW74495   1.156   5.845   1.169 -0.0418  0.2879  0.5970
23868SOL    HW174496   1.204   5.812   1.245  0.6801  0.5718  0.2776
23868SOL    HW274497   1.070   5.805   1.176  0.5303 -0.9861  0.6973
23869SOL     OW74498   8.117   1.831   3.959  0.0326  0.1711  0.5722
23869SOL    HW174499   8.049   1.883   4.002 -0.1967 -1.7924  2.7904
23869SOL    HW274500   8.091   1.740   3.974  1.6839 -0.6301 -1.0108
23870SOL     OW74501   7.091   4.363   5.553  0.1974 -0.0351  0.1485
23870SOL    HW174502   7.052   4.277   5.535  0.7364  0.1135 -2.1104
23870SOL    HW274503   7.016   4.421   5.567 -0.1993 -0.6675  0.7040
23871SOL     OW74504   6.005   3.803   5.361 -0.4554  0.3978 -0.4898
23871SOL    HW174505   5.987   3.873   5.298 -2.6895  0.8765  0.5959
23871SOL    HW274506   5.963   3.726   5.325  0.7421 -0.0645 -0.9546
23872SOL     OW74507   3.760   8.620   3.296  0.2347 -0.3659 -0.2736
23872SOL    HW174508   3.679   8.609   3.346 -0.9702  1.1026 -1.7939
23872SOL    HW274509   3.765   8.542   3.240 -1.0426  0.3038 -1.3578
23873SOL     OW74510   9.271   2.160   1.910  0.2596  0.2798  0.1166
23873SOL    HW174511   9.266   2.169   1.814 -1.1096 -0.6712  0.0673
23873SOL    HW274512   9.228   2.238   1.944 -3.1559 -1.3049 -0.1639
23874SOL     OW74513   5.257   2.141   0.811 -0.4682 -0.4190 -0.3970
23874SOL    HW174514   5.291   2.110   0.727  1.3763  1.6661 -0.5187
23874SOL    HW274515   5.311   2.097   0.876  1.2392  1.3694 -0.5241
23875SOL     OW74516   5.343   0.877   6.615  0.7553 -1.2246  0.2184
23875SOL    HW174517   5.372   0.945   6.554  0.4386 -0.5616  0.7965
23875SOL    HW274518   5.420   0.856   6.667  0.8326 -1.2483  0.0929
23876SOL     OW74519   9.327   9.411   4.705 -0.0299 -0.2411 -0.5657
23876SOL    HW174520   9.277   9.491   4.719 -0.6953 -0.7874  0.3550
23876SOL    HW274521   9.314   9.390   4.613 -0.0692  0.5537 -0.7500
23877SOL     OW74522   4.208   7.745   7.863  0.1354 -0.0503 -0.3063
23877SOL    HW174523   4.168   7.828   7.838 -0.7916  0.3528  2.2407
23877SOL    HW274524   4.135   7.683   7.869  0.4276 -0.3402  0.4378
23878SOL     OW74525   6.180   1.597   2.322  0.4104  0.1220  0.2469
23878SOL    HW174526   6.263   1.626   2.360  1.0546 -1.0067 -0.2532
23878SOL    HW274527   6.201   1.514   2.278 -1.3033 -1.0427  1.4723
23879SOL     OW74528   4.337   4.056   2.065 -0.2450  0.0261 -0.1220
23879SOL    HW174529   4.271   3.988   2.048 -0.5163  0.2197  0.1481
23879SOL    HW274530   4.341   4.062   2.160 -1.2227  1.3495 -0.1365
23880SOL     OW74531   5.251   5.460   2.283 -0.1896 -0.5925 -0.1862
23880SOL    HW174532   5.240   5.544   2.328  1.8030  0.0351 -0.7799
23880SOL    HW274533   5.216   5.396   2.345 -0.8579  0.5759  0.6971
23881SOL     OW74534   8.663   9.210   0.083  0.5995 -0.2688 -0.0974
23881SOL    HW174535   8.665   9.264   0.005 -2.3102  0.9285  0.5106
23881SOL    HW274536   8.618   9.130   0.056  1.0335 -0.5438 -0.0108
23882SOL     OW74537   3.362   2.734   1.124 -0.3761  0.7778  0.3745
23882SOL    HW174538   3.344   2.771   1.210  0.5406 -0.1868  1.0154
23882SOL    HW274539   3.365   2.639   1.139 -3.2434  0.3095 -1.3084
23883SOL     OW74540   6.346   2.429   7.705  0.2701  0.0855 -0.2702
23883SOL    HW174541   6.387   2.503   7.660  1.9436 -0.3516  0.4332
23883SOL    HW274542   6.394   2.352   7.673  0.7382 -0.3437  1.3514
23884SOL     OW74543   2.240   8.573   0.853 -0.8432 -0.6977  0.8173
23884SOL    HW174544   2.243   8.513   0.928 -1.0005  0.1055  1.4886
23884SOL    HW274545   2.182   8.643   0.881 -1.8936 -0.9848 -0.5350
23885SOL     OW74546   1.044   5.760   5.933  0.1699  0.1219 -0.3228
23885SOL    HW174547   1.066   5.852   5.921  1.1885 -0.1175 -0.4307
23885SOL    HW274548   1.090   5.715   5.862  0.1466 -0.5188  0.0606
23886SOL     OW74549   8.167   0.738   3.092  0.1996  0.0361 -0.4968
23886SOL    HW174550   8.196   0.676   3.025  0.4548  0.3203 -0.6497
23886SOL    HW274551   8.084   0.701   3.124  1.8296 -2.1112  1.6516
23887SOL     OW74552   2.623   9.123   8.775  0.0731  0.1418 -0.3260
23887SOL    HW174553   2.643   9.214   8.798  0.4818  0.2937 -1.2205
23887SOL    HW274554   2.692   9.072   8.818  1.3468  0.5002 -1.8110
23888SOL     OW74555   9.029   6.584   2.551  0.0828 -0.3042 -0.2023
23888SOL    HW174556   9.058   6.529   2.478 -0.1950 -2.3188  1.1163
23888SOL    HW274557   9.101   6.580   2.614 -0.5446 -0.3347  0.5261
23889SOL     OW74558   8.863   9.586   2.433 -0.0477 -0.0626  0.8630
23889SOL    HW174559   8.880   9.531   2.357  1.0800  0.3725  0.7881
23889SOL    HW274560   8.828   9.668   2.398 -1.3993 -0.5621  0.9558
23890SOL     OW74561   0.583   0.303   5.151  0.1944 -0.0827  0.3947
23890SOL    HW174562   0.634   0.289   5.071  0.3041 -1.4733  0.6928
23890SOL    HW274563   0.630   0.373   5.198  2.0552 -1.5562  0.8296
23891SOL     OW74564   2.836   7.942   5.177 -0.5247 -0.3855 -0.0673
23891SOL    HW174565   2.810   7.850   5.176 -0.6760 -0.3412 -0.1912
23891SOL    HW274566   2.786   7.981   5.249 -1.0903 -0.2183 -0.5398
23892SOL     OW74567   5.544   2.172   5.562  0.1354  0.3972 -0.1278
23892SOL    HW174568   5.589   2.140   5.484  1.3636  0.9921  0.3077
23892SOL    HW274569   5.522   2.093   5.612  0.7683  0.0867 -0.3279
23893SOL     OW74570   5.883   2.497   0.591 -0.0933  0.2073 -0.1498
23893SOL    HW174571   5.806   2.453   0.556  0.4863 -0.5929 -0.4394
23893SOL    HW274572   5.897   2.456   0.677 -1.7701  2.4574  1.3153
23894SOL     OW74573   1.385   3.982   1.843 -0.5986  0.7964  0.3185
23894SOL    HW174574   1.364   3.893   1.815  2.8224  0.0741 -0.4209
23894SOL    HW274575   1.327   3.999   1.917  0.0450 -2.9163  1.8986
23895SOL     OW74576   9.300   0.502   5.348  0.1914  0.1581 -0.0573
23895SOL    HW174577   9.260   0.568   5.292 -2.3578 -2.0228 -1.0084
23895SOL    HW274578   9.354   0.449   5.289 -0.0974 -0.3496  0.1312
23896SOL     OW74579   2.932   9.481   0.754  0.0943  0.2156  0.0088
23896SOL    HW174580   2.992   9.508   0.823  0.1034  0.6326 -0.1606
23896SOL    HW274581   2.973   9.512   0.673  1.1722 -2.1309 -0.4239
23897SOL     OW74582   2.775   6.764   1.395 -0.3412 -0.6652  0.1966
23897SOL    HW174583   2.686   6.797   1.382 -1.1202 -1.7978  2.2613
23897SOL    HW274584   2.832   6.838   1.372 -1.8775  0.7931  0.9301
23898SOL     OW74585   1.583   5.963   5.705  0.0612 -0.6136  0.1474
23898SOL    HW174586   1.488   5.970   5.715 -0.2662 -2.5359 -1.0493
23898SOL    HW274587   1.596   5.922   5.620  1.9230 -1.3672  0.7238
23899SOL     OW74588   4.978   7.526   3.103  0.1394  0.0569 -0.1925
23899SOL    HW174589   4.890   7.488   3.102  0.6085 -1.0861  0.0902
23899SOL    HW274590   5.031   7.464   3.054  0.6076  1.2641 -1.2720
23900SOL     OW74591   7.508   5.676   6.850 -0.7068  0.0598 -0.0245
23900SOL    HW174592   7.558   5.618   6.793 -0.6913 -0.9936  1.0284
23900SOL    HW274593   7.452   5.618   6.902 -1.2588  1.0374  0.5208
23901SOL     OW74594   0.741   6.301   3.415  0.0784  0.2300  0.0382
23901SOL    HW174595   0.705   6.383   3.448 -0.9741 -0.9278  1.9788
23901SOL    HW274596   0.802   6.272   3.483 -0.1234 -0.9350 -0.2426
23902SOL     OW74597   4.721   1.790   8.776 -0.0619  0.2673 -0.4953
23902SOL    HW174598   4.796   1.837   8.813  0.6495 -0.7058 -0.6637
23902SOL    HW274599   4.707   1.830   8.690  0.7433 -0.0324 -0.7712
23903SOL     OW74600   0.064   0.046   0.972  1.1295  0.2521 -0.2445
23903SOL    HW174601   0.159   0.054   0.970  1.2486 -0.5367  0.8848
23903SOL    HW274602   0.047  -0.048   0.961  0.3538  0.5977 -2.5117
23904SOL     OW74603   3.366   6.117   7.452 -0.4601  0.0509  0.1029
23904SOL    HW174604   3.286   6.142   7.407 -0.1057  1.9034  0.4241
23904SOL    HW274605   3.365   6.167   7.534  1.0470  0.2123  0.0568
23905SOL     OW74606   4.097   3.664   3.157  0.2981  0.0916 -0.3917
23905SOL    HW174607   4.015   3.617   3.139 -1.0135  2.4563 -0.9603
23905SOL    HW274608   4.133   3.619   3.234 -0.2202 -2.5391 -1.5574
23906SOL     OW74609   6.862   8.029   9.461  0.3005  0.4565  0.4154
23906SOL    HW174610   6.837   8.118   9.483 -1.0826  0.1840 -0.0080
23906SOL    HW274611   6.957   8.034   9.446  0.4070  1.6379  1.3755
23907SOL     OW74612   4.535   9.051   5.664  0.3798 -0.2441 -0.3453
23907SOL    HW174613   4.497   9.093   5.587  0.2724  0.3470  0.0224
23907SOL    HW274614   4.616   9.099   5.680  0.2482 -0.1633  0.0850
23908SOL     OW74615   5.144   5.218   4.994  0.4050  0.1704  0.1339
23908SOL    HW174616   5.229   5.234   5.035 -0.4760  0.3425  2.0038
23908SOL    HW274617   5.085   5.200   5.067 -0.6946 -2.2834 -1.2221
23909SOL     OW74618   9.641   0.372   8.546  0.0904  0.2887  0.0127
23909SOL    HW174619   9.619   0.298   8.488 -1.6756 -1.5099  2.7402
23909SOL    HW274620   9.590   0.445   8.511  0.2428 -0.3121 -1.5447
23910SOL     OW74621   3.236   8.332   4.104 -0.2619  0.3680  0.2025
23910SOL    HW174622   3.203   8.321   4.192 -1.6179  0.6779 -0.2508
23910SOL    HW274623   3.295   8.258   4.091  0.0093  0.3612  1.3764
23911SOL     OW74624   9.545   4.814   2.079  0.7876  0.2062  0.3204
23911SOL    HW174625   9.640   4.813   2.078  0.8075  0.9033 -1.4366
23911SOL    HW274626   9.521   4.898   2.040 -0.5598  1.0861  2.8081
23912SOL     OW74627   8.277   3.459   6.131 -0.5226  0.3590 -0.2098
23912SOL    HW174628   8.320   3.412   6.060  0.3675  3.0425 -1.5635
23912SOL    HW274629   8.183   3.446   6.115 -0.3263  0.6484 -1.7245
23913SOL     OW74630   4.602   5.051   4.889 -0.8166  0.0938  0.0368
23913SOL    HW174631   4.677   5.043   4.830 -1.3630 -4.4702 -0.3920
23913SOL    HW274632   4.533   5.087   4.834 -0.1885 -0.0712 -0.8927
23914SOL     OW74633   6.643   4.731   5.326  0.5453  0.0244 -0.5139
23914SOL    HW174634   6.655   4.764   5.415  0.7104  2.3686 -1.3294
23914SOL    HW274635   6.729   4.740   5.285  0.4937 -1.1125 -0.9212
23915SOL     OW74636   2.966   9.000   8.220  0.0524 -0.0836 -0.0639
23915SOL    HW174637   2.886   8.948   8.220 -0.4539  0.6784  0.1489
23915SOL    HW274638   2.937   9.089   8.237  0.9191  0.2573 -0.3077
23916SOL     OW74639   1.446   0.037   0.511 -0.4771  0.4920  0.6800
23916SOL    HW174640   1.516  -0.016   0.550  1.8453  1.9064 -1.3210
23916SOL    HW274641   1.425  -0.008   0.429 -0.1550  1.3765  0.0984
23917SOL     OW74642   9.086   6.591   8.660  0.3927  0.6089 -0.0274
23917SOL    HW174643   9.021   6.593   8.590  1.3275 -1.1237 -1.0278
23917SOL    HW274644   9.038   6.614   8.739 -1.1951  0.3727 -0.8842
23918SOL     OW74645   1.104   5.502   3.343 -0.5384  0.1791  0.1320
23918SOL    HW174646   1.020   5.458   3.357 -0.2964 -0.4268 -0.2975
23918SOL    HW274647   1.123   5.544   3.427 -1.3167  0.4081  0.2080
23919SOL     OW74648   6.865   5.731   7.796 -0.2322 -0.2640 -0.3402
23919SOL    HW174649   6.825   5.722   7.709  0.5111 -0.2612 -0.6921
23919SOL    HW274650   6.951   5.767   7.779 -0.4764  0.7758  0.4966
23920SOL     OW74651   9.280   1.695   3.980  0.0122 -0.1741 -0.7796
23920SOL    HW174652   9.192   1.728   3.960  0.0120 -0.2388 -0.8870
23920SOL    HW274653   9.331   1.712   3.900  0.9201  2.6520  0.2715
23921SOL     OW74654   3.459   0.280   6.712 -0.3249 -0.6045  0.2274
23921SOL    HW174655   3.364   0.288   6.724 -0.0698 -0.6443  2.8024
23921SOL    HW274656   3.497   0.341   6.775  1.4133  0.1286 -1.4053
23922SOL     OW74657   2.670   7.506   2.837 -0.4024 -0.3243 -0.1170
23922SOL    HW174658   2.590   7.455   2.848 -0.9293  0.0391 -1.8929
23922SOL    HW274659   2.718   7.461   2.767 -0.0762  0.6304 -0.5282
23923SOL     OW74660   9.330   2.949   5.732 -0.1616  0.1932  0.1062
23923SOL    HW174661   9.305   2.879   5.671  0.0942 -2.3878  2.7760
23923SOL    HW274662   9.281   3.026   5.702 -0.1744 -0.9502 -3.1873
23924SOL     OW74663   5.048   6.912   5.945 -0.3610  0.1148  0.5825
23924SOL    HW174664   5.064   6.833   5.894 -2.6521 -0.9937  1.4166
23924SOL    HW274665   4.977   6.957   5.899  0.0848  1.0597  0.7888
23925SOL     OW74666   4.784   4.831   9.267  0.1276 -0.3347 -0.5108
23925SOL    HW174667   4.816   4.921   9.261 -0.1468 -0.1130  0.8638
23925SOL    HW274668   4.844   4.788   9.328 -0.4704 -0.7264 -0.1902
23926SOL     OW74669   2.289   8.058   1.984  0.1992 -0.1359 -0.1769
23926SOL    HW174670   2.220   8.037   2.047  0.9351 -1.0072  0.3730
23926SOL    HW274671   2.243   8.097   1.910 -0.8061 -0.1071  0.4460
23927SOL     OW74672   4.749   4.537   8.694  0.5009 -0.4626  0.2464
23927SOL    HW174673   4.828   4.522   8.642  2.0544  1.9131  1.7519
23927SOL    HW274674   4.748   4.631   8.711 -1.6182 -0.6913  1.9112
23928SOL     OW74675   7.093   7.281   2.374 -0.5033  0.0350 -0.3836
23928SOL    HW174676   7.115   7.342   2.444  0.4198 -0.9698  0.2163
23928SOL    HW274677   7.175   7.268   2.326 -0.9838  0.2394 -1.3012
23929SOL     OW74678   1.173   2.644   6.411  0.2338 -0.1426 -0.4235
23929SOL    HW174679   1.168   2.549   6.414 -0.8665 -0.0613  0.9644
23929SOL    HW274680   1.106   2.674   6.472  0.8780  1.5194 -0.4847
23930SOL     OW74681   5.902   9.399   2.493 -0.4542  0.1457  0.0793
23930SOL    HW174682   5.954   9.362   2.565 -0.9408  0.1149  0.4252
23930SOL    HW274683   5.867   9.480   2.529  0.5949  0.9578 -0.6688
23931SOL     OW74684   4.516   4.665   3.190 -0.1347  0.1307 -0.1415
23931SOL    HW174685   4.476   4.593   3.141  0.2553 -0.9164  1.0244
23931SOL    HW274686   4.450   4.734   3.190 -0.7311 -0.4274 -0.8395
23932SOL     OW74687   9.315   7.454   2.091 -0.1903  0.1780  0.1488
23932SOL    HW174688   9.360   7.446   2.006 -1.2191  0.8561 -0.4748
23932SOL    HW274689   9.329   7.545   2.118 -1.1385  0.3904 -0.0376
23933SOL     OW74690   8.419   5.117   2.093 -0.2007  0.2844  0.1673
23933SOL    HW174691   8.398   5.028   2.122 -1.0558  0.6568  0.7145
23933SOL    HW274692   8.507   5.133   2.128  0.1089 -0.4703 -0.2395
23934SOL     OW74693   1.527   8.784   5.466  0.2205  0.3582 -0.0718
23934SOL    HW174694   1.513   8.856   5.404 -0.0159 -0.0615 -0.5097
23934SOL    HW274695   1.532   8.827   5.551  1.2274  1.0132 -0.4465
23935SOL     OW74696   9.015   6.084   2.330 -0.0819 -0.1767  0.0302
23935SOL    HW174697   9.050   6.171   2.346 -0.8386  0.4398 -1.5075
23935SOL    HW274698   8.935   6.080   2.382 -0.9656  0.7241 -1.1953
23936SOL     OW74699   6.886   7.375   3.755  0.2188  0.0966  0.0673
23936SOL    HW174700   6.803   7.411   3.724  0.6617  0.6917 -0.4552
23936SOL    HW274701   6.892   7.289   3.713 -1.6994 -1.4560  2.7298
23937SOL     OW74702   7.664   8.574   6.959  0.5634 -0.3249 -0.0268
23937SOL    HW174703   7.704   8.586   6.872  0.7692  0.9238  0.2131
23937SOL    HW274704   7.696   8.648   7.010  0.4852 -1.0729  1.1447
23938SOL     OW74705   9.112   8.809   9.375  0.6124  0.5998  0.1079
23938SOL    HW174706   9.178   8.836   9.440  0.7054  0.7257 -0.0381
23938SOL    HW274707   9.158   8.744   9.322  0.2161 -0.2781  0.8097
23939SOL     OW74708   1.272   0.150   2.537  0.2254 -0.2171  0.1528
23939SOL    HW174709   1.237   0.183   2.454  1.0644  1.1163  0.2985
23939SOL    HW274710   1.195   0.118   2.584 -0.4439  0.2645 -0.5926
23940SOL     OW74711   6.860   3.733   8.217 -0.1812  0.3238  0.3037
23940SOL    HW174712   6.876   3.685   8.136 -1.1830  0.0529  0.2563
23940SOL    HW274713   6.790   3.685   8.260 -1.3975  1.8812  0.1376
23941SOL     OW74714   8.213   9.432   8.166  0.2831 -0.7268  0.3956
23941SOL    HW174715   8.222   9.430   8.071 -0.3778 -0.6863  0.3255
23941SOL    HW274716   8.287   9.483   8.196 -0.6304  1.0881 -0.2649
23942SOL     OW74717   5.916   5.592   1.155 -0.2604 -0.4867 -0.6049
23942SOL    HW174718   5.824   5.565   1.161 -0.1796 -0.6791 -0.1303
23942SOL    HW274719   5.953   5.537   1.086  0.1724 -2.4681  1.0756
23943SOL     OW74720   4.523   1.820   3.524  0.2223  0.3313  0.2161
23943SOL    HW174721   4.510   1.846   3.433  0.8199 -3.1272 -0.9961
23943SOL    HW274722   4.532   1.903   3.571 -2.1177  2.3170 -2.4925
23944SOL     OW74723   2.339   0.713   8.353  0.2330  0.6354  0.3786
23944SOL    HW174724   2.350   0.776   8.425 -2.0976  0.6358  0.8032
23944SOL    HW274725   2.290   0.641   8.392  1.4986 -0.7605 -0.5172
23945SOL     OW74726   4.209   7.512   7.464  0.2545  0.1833 -0.2898
23945SOL    HW174727   4.115   7.531   7.461  0.3338  0.8213  0.7748
23945SOL    HW274728   4.251   7.598   7.473  0.9241 -0.1173 -0.4430
23946SOL     OW74729   7.405   0.984   0.538  0.2737  0.5101 -0.6457
23946SOL    HW174730   7.353   0.908   0.513  0.5695  1.1747 -3.6242
23946SOL    HW274731   7.393   0.991   0.633 -0.7121 -2.4939 -0.4457
23947SOL     OW74732   2.737   6.128   4.764  0.2089 -0.0715  0.0803
23947SOL    HW174733   2.697   6.200   4.714 -0.2467 -0.2932  0.1130
23947SOL    HW274734   2.662   6.080   4.800  0.5327 -0.0059  0.8482
23948SOL     OW74735   6.046   3.285   6.825 -0.0462 -0.3924 -0.5760
23948SOL    HW174736   6.013   3.372   6.848 -1.0343 -0.8918 -0.0512
23948SOL    HW274737   5.979   3.248   6.767 -0.2362 -1.2575  0.1667
23949SOL     OW74738   5.796   4.332   7.489 -0.0507 -0.7293  0.6966
23949SOL    HW174739   5.881   4.299   7.459 -0.0845 -0.0384 -0.1973
23949SOL    HW274740   5.738   4.321   7.414 -0.3491  0.2716  0.7628
23950SOL     OW74741   3.523   7.867   8.319  0.0051  0.1570  0.5298
23950SOL    HW174742   3.494   7.834   8.234 -0.8318  0.9617  0.4864
23950SOL    HW274743   3.571   7.947   8.298 -0.0665  0.2725  0.8033
23951SOL     OW74744   0.131   2.799   7.081  0.0863  0.1815 -0.2433
23951SOL    HW174745   0.208   2.771   7.032  1.6903 -0.0050  2.2047
23951SOL    HW274746   0.095   2.718   7.117 -1.0678  0.3128 -1.0345
23952SOL     OW74747   8.007   8.277   9.350 -0.6005  0.7024  0.3167
23952SOL    HW174748   8.064   8.327   9.292 -0.0071  0.6869  0.8702
23952SOL    HW274749   8.003   8.190   9.312  0.4625  0.4536  0.7283
23953SOL     OW74750   1.909   2.616   0.373  0.0737  0.2791 -0.0229
23953SOL    HW174751   1.932   2.627   0.465  2.0619 -0.3733 -0.3719
23953SOL    HW274752   1.889   2.704   0.342  1.7659  0.8950  0.5022
23954SOL     OW74753   8.748   6.785   3.359 -0.6922 -0.2074  0.0380
23954SOL    HW174754   8.762   6.816   3.270  1.7235  0.7793  0.6640
23954SOL    HW274755   8.674   6.725   3.353 -0.8285  0.1127 -2.5381
23955SOL     OW74756   0.190   6.873   0.468 -0.3488 -0.2876  0.3312
23955SOL    HW174757   0.256   6.938   0.493 -0.2729 -1.5315  3.9263
23955SOL    HW274758   0.241   6.798   0.437 -0.2745  0.0920 -0.4814
23956SOL     OW74759   0.122   4.383   3.858  0.4072 -0.0599 -0.6323
23956SOL    HW174760   0.123   4.477   3.877 -0.8800 -0.2984  0.8515
23956SOL    HW274761   0.042   4.370   3.808 -1.0573 -0.7360  1.7268
23957SOL     OW74762   6.036   5.323   9.152  0.8833  0.1650 -0.1788
23957SOL    HW174763   6.023   5.306   9.058  0.6769  1.6526 -0.4477
23957SOL    HW274764   6.104   5.261   9.178 -0.7972 -2.0227 -0.6980
23958SOL     OW74765   5.091   4.686   3.015  0.5409  0.2957  0.5377
23958SOL    HW174766   5.078   4.749   3.086  0.6347  0.2988  0.5518
23958SOL    HW274767   5.007   4.685   2.968  0.1918 -0.3368  1.1588
23959SOL     OW74768   6.124   5.279   7.093  0.2644 -0.2170  0.1733
23959SOL    HW174769   6.186   5.344   7.125 -0.4545  0.4180  0.2971
23959SOL    HW274770   6.131   5.284   6.997  1.3736 -1.1093  0.1858
23960SOL     OW74771   8.262   6.703   9.275  0.1712  0.2261 -0.1998
23960SOL    HW174772   8.279   6.754   9.354  0.0416  1.2307 -0.8040
23960SOL    HW274773   8.248   6.769   9.207 -1.3728 -0.5840 -0.7260
23961SOL     OW74774   1.460   5.304   4.633  0.1799  0.2740  0.1381
23961SOL    HW174775   1.473   5.398   4.618 -1.5408  0.2557 -1.8940
23961SOL    HW274776   1.400   5.300   4.708  0.1403  0.8055  0.1372
23962SOL     OW74777   7.239   8.972   5.072  0.3638 -0.1815  0.7295
23962SOL    HW174778   7.255   8.904   5.007 -0.6486 -1.0773  1.3869
23962SOL    HW274779   7.144   8.981   5.076  0.4309  0.2614  1.6734
23963SOL     OW74780   6.563   7.683   8.979  0.2439  0.2388  0.1713
23963SOL    HW174781   6.532   7.639   8.900 -1.5178  0.1738  0.8649
23963SOL    HW274782   6.633   7.626   9.012  0.9471  0.2318 -1.2822
23964SOL     OW74783   5.212   6.419   1.299  0.2672 -0.2552  0.3225
23964SOL    HW174784   5.119   6.429   1.322  0.3412  1.1716  0.0869
23964SOL    HW274785   5.258   6.469   1.366  0.8150 -0.2160 -0.0808
23965SOL     OW74786   5.893   0.444   6.235 -0.0576  0.3457  0.2621
23965SOL    HW174787   5.967   0.387   6.257  1.7933  2.8982  1.1529
23965SOL    HW274788   5.844   0.453   6.317 -0.5829 -0.2350  0.0216
23966SOL     OW74789   4.740   5.890   1.898  0.2564 -0.4073 -0.4803
23966SOL    HW174790   4.806   5.822   1.916 -0.2841 -0.3334  2.1260
23966SOL    HW274791   4.667   5.842   1.860  0.9721 -0.8230 -1.3655
23967SOL     OW74792   3.045   1.676   3.455  0.4267 -0.2018 -0.2524
23967SOL    HW174793   3.040   1.639   3.366  0.5881  0.4488 -0.5382
23967SOL    HW274794   2.964   1.646   3.497  0.1226 -0.1421 -0.7724
23968SOL     OW74795   4.848   7.998   4.334 -0.7412  0.5152 -0.3276
23968SOL    HW174796   4.875   7.911   4.304 -1.0188  0.5105 -0.5708
23968SOL    HW274797   4.861   8.055   4.258 -1.4810  0.4967 -0.4751
23969SOL     OW74798   6.450   9.037   0.141  0.5179 -0.0662  0.1443
23969SOL    HW174799   6.434   9.009   0.051  0.4973 -1.0263  0.4341
23969SOL    HW274800   6.401   9.119   0.150 -0.7877 -0.7754 -0.2498
23970SOL     OW74801   3.275   2.288   8.371 -0.0439 -0.1446 -0.2134
23970SOL    HW174802   3.348   2.227   8.387  1.1030  1.2673  0.1478
23970SOL    HW274803   3.257   2.326   8.457  0.4326  1.2737 -0.7217
23971SOL     OW74804   5.648   2.728   1.632 -0.5806  0.2562  0.1762
23971SOL    HW174805   5.704   2.650   1.629 -0.9168  0.0260 -2.1868
23971SOL    HW274806   5.686   2.787   1.567 -1.1415  1.5196  0.9643
23972SOL     OW74807   0.550   8.898   8.595 -0.3503  0.5700 -0.1535
23972SOL    HW174808   0.562   8.826   8.532 -0.7260  0.4060 -0.0436
23972SOL    HW274809   0.639   8.925   8.618 -0.1348 -1.1344  1.2497
23973SOL     OW74810   1.477   9.059   6.652 -0.5142  0.1188 -0.0410
23973SOL    HW174811   1.421   9.038   6.727 -0.5742 -2.9368 -0.8109
23973SOL    HW274812   1.417   9.061   6.577 -0.0238  0.1309 -0.4365
23974SOL     OW74813   2.439   1.875   1.542  0.4471  0.4220 -0.1530
23974SOL    HW174814   2.487   1.890   1.460 -1.9082  1.7310 -1.3752
23974SOL    HW274815   2.395   1.791   1.529  0.5836  0.3172  0.0515
23975SOL     OW74816   6.313   0.186   9.463  0.1166 -0.4581 -0.4650
23975SOL    HW174817   6.304   0.168   9.556  1.5151 -0.5592 -0.3189
23975SOL    HW274818   6.249   0.255   9.445 -0.1680 -0.4342  0.5700
23976SOL     OW74819   8.964   2.441   8.172  0.0618 -0.1097 -0.2949
23976SOL    HW174820   8.972   2.358   8.218  1.2277 -1.1683 -2.2751
23976SOL    HW274821   8.870   2.460   8.173 -0.0207 -0.3273  1.9716
23977SOL     OW74822   4.568   1.778   5.356 -0.6848 -0.5879  0.5532
23977SOL    HW174823   4.596   1.793   5.447  2.6005  0.7913 -0.5275
23977SOL    HW274824   4.576   1.864   5.315  0.0442 -1.5831 -1.5245
23978SOL     OW74825   6.292   3.911   8.480 -0.0986  0.1214 -0.2462
23978SOL    HW174826   6.204   3.903   8.517  0.1649 -0.6781  0.2280
23978SOL    HW274827   6.285   3.985   8.419 -0.7201  1.0177  0.8672
23979SOL     OW74828   2.823   0.099   5.891 -0.1718  0.5288  0.1338
23979SOL    HW174829   2.757   0.127   5.827  0.2361  2.1075  0.3642
23979SOL    HW274830   2.905   0.103   5.843 -0.1156 -0.5781  0.1073
23980SOL     OW74831   6.650   9.040   5.438  0.3141  0.0959 -0.4079
23980SOL    HW174832   6.621   8.960   5.482  0.6137 -0.1935 -0.7311
23980SOL    HW274833   6.630   9.110   5.501 -1.1037 -0.0833 -0.6274
23981SOL     OW74834   2.538   0.316   1.045  0.3953  0.3165 -0.8350
23981SOL    HW174835   2.608   0.382   1.034  0.0924  0.4695 -2.0531
23981SOL    HW274836   2.486   0.348   1.119 -0.8801  2.5463 -2.5658
23982SOL     OW74837   4.171   0.980   7.534  0.0460 -0.3746 -0.1935
23982SOL    HW174838   4.172   0.971   7.439 -0.3370  0.3284 -0.2725
23982SOL    HW274839   4.264   0.984   7.559  0.1863  1.6899 -0.7943
23983SOL     OW74840   8.993   1.757   3.833 -0.3686 -0.1585  0.0677
23983SOL    HW174841   8.912   1.765   3.884 -0.2581 -0.5281  0.3040
23983SOL    HW274842   8.966   1.718   3.751 -0.1405 -2.3596  0.9665
23984SOL     OW74843   0.143   8.263   8.782  0.5523  0.1838  0.1833
23984SOL    HW174844   0.103   8.269   8.869  1.0876 -0.0497  0.4544
23984SOL    HW274845   0.183   8.176   8.780  1.8497  0.7388  0.2941
23985SOL     OW74846   8.605   3.897   4.487 -0.1260  1.0286 -0.0921
23985SOL    HW174847   8.632   3.848   4.565  0.4012 -0.6019 -1.2606
23985SOL    HW274848   8.543   3.840   4.443  1.2534  0.9252 -2.0138
23986SOL     OW74849   4.997   8.276   9.197  0.7305 -0.1876 -0.4722
23986SOL    HW174850   5.018   8.304   9.286 -0.8198 -1.7091  0.4339
23986SOL    HW274851   4.954   8.353   9.158  2.5199  0.9127 -0.3729
23987SOL     OW74852   6.676   1.812   3.738  0.0262 -0.2122  0.0704
23987SOL    HW174853   6.709   1.781   3.654  1.3091  1.7803 -0.2163
23987SOL    HW274854   6.751   1.810   3.796 -0.4098  0.1676  0.6610
23988SOL     OW74855   2.908   7.793   1.394  0.1325  0.3016 -0.0415
23988SOL    HW174856   2.857   7.874   1.407 -0.8943  0.5481 -4.0923
23988SOL    HW274857   2.974   7.795   1.463  0.6031  5.0173 -0.2839
23989SOL     OW74858   8.890   3.476   5.730 -0.0042  0.0471 -0.6796
23989SOL    HW174859   8.831   3.403   5.745  0.3803 -0.2398 -0.5643
23989SOL    HW274860   8.834   3.545   5.693 -0.3703 -0.2872 -0.7484
23990SOL     OW74861   7.629   0.221   2.441 -0.3311 -0.3270 -0.5326
23990SOL    HW174862   7.615   0.250   2.351  0.7735  1.2360 -0.2395
23990SOL    HW274863   7.712   0.173   2.437  0.7187  1.3797 -0.0484
23991SOL     OW74864   6.536   5.383   7.902  0.0152 -0.3093 -0.3181
23991SOL    HW174865   6.484   5.459   7.927 -0.2870 -0.7672  0.4966
23991SOL    HW274866   6.627   5.411   7.911 -0.0969  0.0117 -0.2016
23992SOL     OW74867   1.928   5.844   2.597  0.1707  0.6841 -0.1504
23992SOL    HW174868   1.916   5.749   2.605  2.1260  0.4884  0.8893
23992SOL    HW274869   1.921   5.877   2.687  1.9732  1.1874 -0.1681
23993SOL     OW74870   0.766   5.248   7.925  0.0241  0.2613  0.2932
23993SOL    HW174871   0.706   5.323   7.919 -0.4311 -0.0904  0.3944
23993SOL    HW274872   0.758   5.219   8.015 -0.5078 -0.4828  0.0154
23994SOL     OW74873   1.346   4.095   3.650 -0.8050  0.3000  0.2913
23994SOL    HW174874   1.431   4.091   3.606 -1.3907 -0.2185 -0.8532
23994SOL    HW274875   1.322   4.188   3.650  0.9383  0.8572  3.0646
23995SOL     OW74876   1.728   1.734   3.529 -0.3096  0.3575 -0.2406
23995SOL    HW174877   1.794   1.687   3.478 -1.4029 -0.1466 -1.2482
23995SOL    HW274878   1.707   1.674   3.601 -0.5384 -0.0252 -0.6167
23996SOL     OW74879   8.908   3.869   6.534 -0.0439 -0.6658  0.1576
23996SOL    HW174880   8.969   3.942   6.525  1.1075 -1.3687  1.7881
23996SOL    HW274881   8.826   3.909   6.564  0.0206  0.1271 -0.6841
23997SOL     OW74882   6.539   2.097   6.295  0.0341  0.2434  0.1027
23997SOL    HW174883   6.617   2.063   6.251 -0.0537  0.9536 -0.6297
23997SOL    HW274884   6.572   2.169   6.350  0.0611 -0.2630  0.7607
23998SOL     OW74885   0.849   8.068   6.689 -0.3303  0.1621  0.3851
23998SOL    HW174886   0.869   8.080   6.782 -1.0517 -0.0983  0.5765
23998SOL    HW274887   0.815   7.979   6.683  1.8019 -0.6747 -0.4939
23999SOL     OW74888   4.489   4.181   1.855  0.4998 -0.0541  0.4216
23999SOL    HW174889   4.421   4.163   1.920  0.0198 -0.6948 -0.2435
23999SOL    HW274890   4.571   4.160   1.900  0.1665 -0.6230  0.7796
24000SOL     OW74891   2.420   7.459   0.922 -0.8775 -0.1301 -0.3451
24000SOL    HW174892   2.414   7.553   0.905  0.1416  0.0288  0.0684
24000SOL    HW274893   2.433   7.453   1.017 -2.5846 -0.7872 -0.1273
24001SOL     OW74894   2.886   5.242   5.585 -0.3297 -0.1799  0.0123
24001SOL    HW174895   2.837   5.195   5.517 -2.1875  0.4137  0.8679
24001SOL    HW274896   2.954   5.180   5.612 -0.1077 -0.7652 -1.7487
24002SOL     OW74897   0.033   5.927   5.059  0.2214  0.0458  0.1710
24002SOL    HW174898  -0.058   5.902   5.047  0.9528 -2.7819 -0.1234
24002SOL    HW274899   0.048   5.919   5.153  0.3415 -0.0822  0.1398
24003SOL     OW74900   5.983   5.186   3.825  0.2221 -0.3523 -0.0029
24003SOL    HW174901   6.034   5.248   3.773  1.0837 -0.4422  0.7108
24003SOL    HW274902   5.912   5.239   3.861  0.2359 -0.0586 -0.4006
24004SOL     OW74903   3.546   2.771   0.824  0.3468  0.1386  0.4531
24004SOL    HW174904   3.528   2.784   0.917  1.4172  1.0678  0.5559
24004SOL    HW274905   3.626   2.718   0.823 -0.4969 -1.1710  0.0370
24005SOL     OW74906   3.893   3.392   4.028 -0.6402  0.4487  0.2746
24005SOL    HW174907   3.838   3.355   3.959 -0.8983  2.3455 -0.5885
24005SOL    HW274908   3.833   3.407   4.101 -0.1885 -2.4877  1.3887
24006SOL     OW74909   8.589   5.777   5.296  0.2320 -0.4144  0.4281
24006SOL    HW174910   8.512   5.826   5.268  0.6011 -0.2430 -0.2965
24006SOL    HW274911   8.659   5.805   5.238  0.9308 -0.3422  1.2710
24007SOL     OW74912   2.956   6.371   1.750  0.4328  0.5825 -0.0218
24007SOL    HW174913   2.925   6.280   1.759 -0.0020  0.8689  1.7337
24007SOL    HW274914   2.989   6.376   1.661 -0.7915 -0.9254 -0.6141
24008SOL     OW74915   8.411   0.739   6.598  0.2054  0.4687 -1.4850
24008SOL    HW174916   8.434   0.648   6.580 -0.7243  0.3264 -2.0315
24008SOL    HW274917   8.326   0.750   6.556 -0.5173  1.0865  0.0842
24009SOL     OW74918   3.042   4.780   5.578  0.3456  0.0989 -0.5633
24009SOL    HW174919   3.075   4.693   5.555  2.4076  0.5967  0.2564
24009SOL    HW274920   3.092   4.805   5.655 -0.6289  1.7882 -0.4262
24010SOL     OW74921   6.419   0.717   8.797 -0.1025  0.1715  0.0879
24010SOL    HW174922   6.503   0.755   8.820 -0.3025  0.7946 -0.2050
24010SOL    HW274923   6.357   0.757   8.858 -0.2427 -0.0327  0.0819
24011SOL     OW74924   4.185   5.369   5.420  0.1771  0.0343  0.3562
24011SOL    HW174925   4.104   5.418   5.436 -0.7027 -0.6594 -1.6097
24011SOL    HW274926   4.253   5.436   5.415 -0.3188  0.6721  1.6156
24012SOL     OW74927   3.332   0.105   8.755 -0.4096 -0.1299 -0.2264
24012SOL    HW174928   3.399   0.112   8.686  0.9716 -0.9375  0.9785
24012SOL    HW274929   3.263   0.052   8.716  0.3426 -0.5700 -0.9970
24013SOL     OW74930   0.166   3.877   3.457 -0.0405  0.1102 -0.1461
24013SOL    HW174931   0.211   3.939   3.515 -1.4949  0.9478  0.1411
24013SOL    HW274932   0.183   3.910   3.369  0.9835 -0.3362 -0.1215
24014SOL     OW74933   1.630   4.464   6.227  0.2256  0.2576 -0.0177
24014SOL    HW174934   1.599   4.423   6.145  1.4290 -0.5293 -0.1000
24014SOL    HW274935   1.676   4.542   6.198 -0.5525  0.7394  0.0178
24015SOL     OW74936   5.011   8.654   8.412  0.4041  0.1183  0.5881
24015SOL    HW174937   4.996   8.611   8.328  0.6655 -0.0474  0.6236
24015SOL    HW274938   4.991   8.586   8.477 -2.9499  1.1416  0.7992
24016SOL     OW74939   0.681   8.762   3.748 -0.1061  0.3027  0.3369
24016SOL    HW174940   0.723   8.679   3.728 -0.0932  0.5908 -0.8979
24016SOL    HW274941   0.598   8.759   3.701 -0.5706  0.5809  1.1142
24017SOL     OW74942   1.397   0.294   8.583  0.2274  0.4592 -0.6198
24017SOL    HW174943   1.332   0.324   8.647 -0.3518  1.7623 -1.7778
24017SOL    HW274944   1.451   0.231   8.632 -2.1670 -1.0704  0.2495
24018SOL     OW74945   5.860   4.591   5.329  0.4187 -0.1090 -0.0363
24018SOL    HW174946   5.869   4.646   5.251 -0.3976 -0.7605 -0.6109
24018SOL    HW274947   5.918   4.516   5.313 -0.1656 -0.5187 -0.2832
24019SOL     OW74948   4.628   1.097   6.799 -0.1377 -0.4514  0.6266
24019SOL    HW174949   4.557   1.124   6.741 -0.5210  2.8389  2.4161
24019SOL    HW274950   4.700   1.074   6.741 -0.9362  1.3805 -1.1896
24020SOL     OW74951   7.669   0.828   7.706 -0.6502 -0.7402  0.8199
24020SOL    HW174952   7.742   0.766   7.702 -1.1451 -1.2646 -1.1039
24020SOL    HW274953   7.594   0.779   7.674 -1.7207  0.0274  2.0220
24021SOL     OW74954   8.382   5.490   3.819  1.0715  0.1441 -0.6132
24021SOL    HW174955   8.377   5.585   3.831  3.1164  0.4138 -1.5049
24021SOL    HW274956   8.293   5.464   3.798  0.1443  1.6222  1.1631
24022SOL     OW74957   0.642   1.031   7.553 -0.2535  0.1390 -0.3719
24022SOL    HW174958   0.589   1.108   7.572  0.4843  0.2143  1.6965
24022SOL    HW274959   0.590   0.958   7.587  0.5483  0.1340  0.9356
24023SOL     OW74960   5.771   0.721   9.107 -0.3618 -0.2868 -0.2801
24023SOL    HW174961   5.760   0.651   9.171 -0.9948 -0.6482 -0.7744
24023SOL    HW274962   5.813   0.679   9.032  0.8283  0.2410  0.0727
24024SOL     OW74963   5.642   8.049   3.271  0.6104  0.5364  0.1678
24024SOL    HW174964   5.722   8.000   3.290  1.5514  1.2286 -1.7892
24024SOL    HW274965   5.643   8.062   3.177 -1.7721  0.6912  0.0898
24025SOL     OW74966   7.545   8.094   8.655 -0.1743 -0.0277  0.0840
24025SOL    HW174967   7.475   8.138   8.703  1.0136  0.2832  1.6182
24025SOL    HW274968   7.542   8.134   8.568 -2.2522 -0.4534 -0.0944
24026SOL     OW74969   3.674   0.472   5.904  0.2883 -0.0256  0.1658
24026SOL    HW174970   3.737   0.532   5.943  0.0283 -0.8337  1.9487
24026SOL    HW274971   3.704   0.385   5.930  0.5228 -0.7155 -2.1670
24027SOL     OW74972   7.204   0.123   8.711 -0.2820  0.0027 -0.2694
24027SOL    HW174973   7.174   0.203   8.754 -0.3990 -0.4029  0.4190
24027SOL    HW274974   7.296   0.115   8.736 -0.4468 -0.4306  0.2278
24028SOL     OW74975   0.614   8.842   1.673 -0.1780  0.4378 -0.2464
24028SOL    HW174976   0.541   8.816   1.728  1.7026  1.5453  3.0634
24028SOL    HW274977   0.679   8.772   1.684 -0.0698  0.2521 -1.8210
24029SOL     OW74978   0.214   4.868   0.881  0.0370  0.6058 -0.0309
24029SOL    HW174979   0.165   4.936   0.836 -1.0477  0.0216  0.2346
24029SOL    HW274980   0.242   4.808   0.811 -1.9269 -0.4809  0.0290
24030SOL     OW74981   4.253   5.416   3.436  0.0293  0.5849 -0.6557
24030SOL    HW174982   4.274   5.345   3.496  0.3603  0.8096 -0.5055
24030SOL    HW274983   4.164   5.396   3.406 -1.2827  1.8720  2.0030
24031SOL     OW74984   3.509   1.251   3.761  0.2857 -0.3453  0.2973
24031SOL    HW174985   3.429   1.241   3.812  0.9240 -1.5612  1.1351
24031SOL    HW274986   3.553   1.166   3.770  3.1913  1.1939  2.5691
24032SOL     OW74987   0.043   8.822   7.858  0.3468  0.2113 -0.1357
24032SOL    HW174988   0.105   8.829   7.785  2.3475  1.2314  1.5412
24032SOL    HW274989   0.098   8.805   7.934 -1.4489  1.3149  1.4901
24033SOL     OW74990   4.900   7.033   9.494 -0.1172 -0.0023  0.2725
24033SOL    HW174991   4.948   7.081   9.561  1.4943  1.4125 -1.7526
24033SOL    HW274992   4.964   6.972   9.458  0.1629  1.5909 -2.1699
24034SOL     OW74993   9.253   1.336   5.317  0.3612 -0.1426 -0.7062
24034SOL    HW174994   9.197   1.261   5.296  1.1711 -0.5723 -1.3585
24034SOL    HW274995   9.339   1.313   5.283  1.5393 -0.4253  2.1580
24035SOL     OW74996   5.409   9.116   1.795 -0.3934  0.2381  0.3023
24035SOL    HW174997   5.381   9.032   1.759  1.5808  0.6585 -2.5457
24035SOL    HW274998   5.471   9.092   1.864 -0.7584 -0.6468  0.3434
24036SOL     OW74999   6.451   7.132   7.730  0.2341 -0.3814 -0.1056
24036SOL    HW175000   6.407   7.188   7.794 -1.2272  0.9686 -2.1406
24036SOL    HW275001   6.526   7.184   7.700  0.6864 -0.8406  0.2155
24037SOL     OW75002   5.904   3.349   7.831 -0.2708  0.5191  0.4266
24037SOL    HW175003   5.928   3.416   7.894 -0.1059  1.2355 -0.3784
24037SOL    HW275004   5.847   3.394   7.768 -0.3155 -0.1381 -0.0128
24038SOL     OW75005   4.783   9.483   3.877 -0.5285  0.0180 -0.3042
24038SOL    HW175006   4.832   9.520   3.803  0.5585  1.1262  0.9151
24038SOL    HW275007   4.693   9.511   3.863  0.2532  3.3527  0.6052
24039SOL     OW75008   5.538   1.299   2.773 -0.7372  0.0841 -0.0177
24039SOL    HW175009   5.464   1.340   2.729 -0.3729  1.0122  0.2099
24039SOL    HW275010   5.500   1.229   2.825 -1.1232 -1.4079 -2.1989
24040SOL     OW75011   4.451   9.401   3.299 -0.0841 -0.0667 -0.7515
24040SOL    HW175012   4.408   9.346   3.364 -1.1308  1.7158  0.1458
24040SOL    HW275013   4.526   9.439   3.345  0.3450 -0.3253 -1.2155
24041SOL     OW75014   0.380   2.605   7.627 -0.3285 -0.5427  0.1944
24041SOL    HW175015   0.372   2.690   7.584  0.6527  0.3874  1.7470
24041SOL    HW275016   0.391   2.543   7.555  0.7903  0.8815 -0.9415
24042SOL     OW75017   4.063   6.116   0.057  0.0468 -0.3122 -0.1979
24042SOL    HW175018   4.033   6.200   0.091  0.4011  0.6026 -2.0150
24042SOL    HW275019   3.983   6.071   0.029 -0.0005  0.2810 -1.0441
24043SOL     OW75020   7.503   7.186   7.682  0.8099  0.2622  1.0796
24043SOL    HW175021   7.598   7.192   7.674  0.8896 -1.7501 -0.6340
24043SOL    HW275022   7.487   7.101   7.723 -0.2657  0.7300  1.6922
24044SOL     OW75023   9.169   0.540   3.870 -0.6104 -0.3008 -0.0096
24044SOL    HW175024   9.154   0.557   3.777  1.8007 -0.3398 -0.4837
24044SOL    HW275025   9.189   0.626   3.907 -1.1060 -0.3478  0.3662
24045SOL     OW75026   6.140   2.391   7.435  0.6056 -0.5181  0.2882
24045SOL    HW175027   6.147   2.484   7.413 -1.1617 -0.4518 -0.1127
24045SOL    HW275028   6.150   2.389   7.531 -0.5706  0.2415  0.4481
24046SOL     OW75029   8.748   2.346   2.471  0.3810  0.2327 -0.8425
24046SOL    HW175030   8.661   2.358   2.510  0.9395 -1.6468  1.1167
24046SOL    HW275031   8.785   2.434   2.469 -0.2667  0.6248  1.5558
24047SOL     OW75032   3.861   7.387   6.390  0.1951  0.1801  0.2494
24047SOL    HW175033   3.900   7.371   6.304 -1.0556  2.2170 -0.7941
24047SOL    HW275034   3.781   7.334   6.390 -0.2805  0.8664 -0.2742
24048SOL     OW75035   7.807   7.199   6.946  0.4853  0.1990 -0.2101
24048SOL    HW175036   7.840   7.222   7.033  0.2543  1.6970 -0.4820
24048SOL    HW275037   7.720   7.162   6.961  0.8083 -0.3928  0.2437
24049SOL     OW75038   5.517   2.203   9.060 -0.2991 -0.2363  0.6697
24049SOL    HW175039   5.474   2.185   9.144 -0.0522  0.8041  1.0364
24049SOL    HW275040   5.518   2.119   9.014 -1.3214 -0.6031  1.3036
24050SOL     OW75041   4.257   0.569   2.101 -0.4020  0.4037  0.5445
24050SOL    HW175042   4.287   0.493   2.051  0.1555 -0.7794  2.5472
24050SOL    HW275043   4.336   0.621   2.116 -0.4963  0.5719  0.4488
24051SOL     OW75044   7.334   5.612   7.703  0.1323 -0.0827 -0.3276
24051SOL    HW175045   7.406   5.570   7.656 -1.9225 -2.3161 -1.7291
24051SOL    HW275046   7.302   5.543   7.762 -0.4109  1.1079  0.8062
24052SOL     OW75047   5.239   4.353   4.846  0.0920  0.2057  0.0939
24052SOL    HW175048   5.221   4.371   4.754 -1.3780  0.5666  0.4319
24052SOL    HW275049   5.195   4.270   4.864 -1.1413  1.0070  0.8925
24053SOL     OW75050   4.896   5.991   1.082  0.0279  0.4331  0.2549
24053SOL    HW175051   4.904   6.086   1.080  1.5383  0.3183 -1.0973
24053SOL    HW275052   4.804   5.975   1.104  0.1186  2.1665  2.1888
24054SOL     OW75053   1.212   7.095   5.136  0.4205 -0.0391 -0.5389
24054SOL    HW175054   1.149   7.135   5.076  0.5185  2.3727  0.8324
24054SOL    HW275055   1.158   7.053   5.203  0.2811  0.8092 -0.1179
24055SOL     OW75056   7.791   2.393   3.401  0.5090 -0.0062 -0.2235
24055SOL    HW175057   7.855   2.463   3.393 -0.1155  0.4805 -1.2604
24055SOL    HW275058   7.706   2.436   3.388  0.1101 -0.9189 -0.7917
24056SOL     OW75059   8.963   2.605   3.113  0.3033  0.6204 -0.3721
24056SOL    HW175060   9.045   2.650   3.093  0.7136 -0.1440 -0.4682
24056SOL    HW275061   8.978   2.565   3.198  0.5344 -0.6357 -0.9740
24057SOL     OW75062   3.551   3.684   2.021  0.5711 -0.1211 -0.5023
24057SOL    HW175063   3.529   3.654   1.933  2.4531 -0.1240 -1.0123
24057SOL    HW275064   3.503   3.767   2.031  0.8644  0.2238 -1.8107
24058SOL     OW75065   4.581   9.490   0.791  0.0966 -0.2178 -0.5778
24058SOL    HW175066   4.653   9.535   0.747  0.3374  0.3703  0.3865
24058SOL    HW275067   4.560   9.416   0.734 -0.0002  0.8539 -1.9753
24059SOL     OW75068   8.064   8.712   0.132 -0.3067  0.1113  0.0934
24059SOL    HW175069   8.083   8.632   0.083 -0.5316  0.2768 -0.2704
24059SOL    HW275070   7.977   8.696   0.170 -0.6741  0.4628 -0.5817
24060SOL     OW75071   9.268   6.514   6.918  0.0699 -0.4131  0.0471
24060SOL    HW175072   9.309   6.442   6.966 -1.0232 -1.3455 -0.3611
24060SOL    HW275073   9.342   6.565   6.884  0.8915 -1.6857 -0.1624
24061SOL     OW75074   1.939   1.003   2.993 -0.1382 -0.7418  0.1082
24061SOL    HW175075   1.915   1.088   2.957  1.6334 -0.5268 -0.6745
24061SOL    HW275076   1.874   0.986   3.060 -0.5321  1.2322  0.2819
24062SOL     OW75077   1.384   1.050   8.499 -0.2045 -0.2495 -0.1578
24062SOL    HW175078   1.414   0.988   8.433  0.2845 -1.2639  0.9897
24062SOL    HW275079   1.459   1.063   8.556 -0.7239  0.3445  0.4077
24063SOL     OW75080   7.495   7.214   8.639  0.7152  0.4373 -0.2662
24063SOL    HW175081   7.453   7.220   8.553 -1.3243  0.9649  0.7163
24063SOL    HW275082   7.496   7.120   8.658 -0.6886  0.4415 -0.0314
24064SOL     OW75083   8.273   2.782   0.052  0.2338  0.5704 -0.1590
24064SOL    HW175084   8.299   2.694   0.026  1.5925  1.2331 -1.1665
24064SOL    HW275085   8.178   2.779   0.055  0.2070 -0.6142 -1.3705
24065SOL     OW75086   3.084   2.008   5.650 -0.0821 -0.0855 -0.0241
24065SOL    HW175087   3.025   2.077   5.620  0.6009  0.2458 -0.6337
24065SOL    HW275088   3.079   1.941   5.581 -0.0816 -0.2559  0.1418
24066SOL     OW75089   5.484   6.426   6.395  0.3941  0.3762  0.0254
24066SOL    HW175090   5.512   6.373   6.320 -0.6063  0.2595 -0.2752
24066SOL    HW275091   5.566   6.457   6.435  0.9629  2.4811 -2.5271
24067SOL     OW75092   5.267   7.068   4.301  0.2744 -0.2744 -0.3786
24067SOL    HW175093   5.358   7.056   4.273  0.7962  0.8383  0.7714
24067SOL    HW275094   5.258   7.011   4.378 -0.3094 -1.1140 -1.0445
24068SOL     OW75095   6.982   1.955   6.104 -0.1962  0.7621  0.6124
24068SOL    HW175096   6.945   1.875   6.066  1.6178  0.4931 -0.6954
24068SOL    HW275097   7.035   1.993   6.034  1.3206  1.5730  2.1314
24069SOL     OW75098   3.034   3.614   9.643  0.2119  0.0279 -0.0143
24069SOL    HW175099   3.008   3.699   9.678 -1.6816  0.2569 -1.7152
24069SOL    HW275100   3.052   3.560   9.720  0.9592  1.7920  1.1112
24070SOL     OW75101   8.833   7.136   6.963  0.0615 -0.0357 -0.8545
24070SOL    HW175102   8.779   7.075   7.013  0.5676 -1.3990 -1.9364
24070SOL    HW275103   8.889   7.177   7.029 -0.1879 -0.8426 -0.1239
24071SOL     OW75104   0.832   6.603   3.005  0.5501 -0.0823 -0.0367
24071SOL    HW175105   0.804   6.669   3.068  2.4248  1.9003 -1.1593
24071SOL    HW275106   0.750   6.571   2.967 -0.5032  0.1879  1.8351
24072SOL     OW75107   9.105   5.218   5.010  0.2550 -0.6636 -0.2620
24072SOL    HW175108   9.015   5.232   4.981 -0.6704 -3.1629  1.1205
24072SOL    HW275109   9.127   5.130   4.979  1.9684 -0.3733  0.0383
24073SOL     OW75110   2.186   6.469   2.003 -0.9661  0.1718  0.1794
24073SOL    HW175111   2.147   6.382   2.013 -1.7287  0.3777 -0.9335
24073SOL    HW275112   2.120   6.529   2.037 -2.1663  0.6041 -2.6159
24074SOL     OW75113   9.256   7.174   4.208  0.0282  0.2599  0.1021
24074SOL    HW175114   9.220   7.192   4.121  0.0487  1.5221  0.3341
24074SOL    HW275115   9.195   7.216   4.268 -2.5239 -4.2353  1.1371
24075SOL     OW75116   7.681   7.252   9.387 -0.2273 -0.2248 -0.2487
24075SOL    HW175117   7.707   7.325   9.330 -0.4994  0.3355  0.3321
24075SOL    HW275118   7.743   7.257   9.460  0.2979 -1.1129 -0.6202
24076SOL     OW75119   3.591   7.022   1.282  0.8270 -0.1964 -0.8058
24076SOL    HW175120   3.547   7.091   1.231  0.3827  0.5700  0.5819
24076SOL    HW275121   3.602   7.060   1.369 -0.2178 -2.1948  0.2524
24077SOL     OW75122   1.380   1.474   7.135  0.3872  0.0109 -0.6947
24077SOL    HW175123   1.354   1.560   7.168 -0.3420 -0.7631  0.8387
24077SOL    HW275124   1.469   1.488   7.101  0.2616  1.3787 -0.5320
24078SOL     OW75125   5.592   0.157   3.844 -0.3295  0.8053 -0.2379
24078SOL    HW175126   5.566   0.210   3.919  0.5803  0.8408  0.0633
24078SOL    HW275127   5.656   0.095   3.879 -1.9356 -1.0403 -0.4202
24079SOL     OW75128   4.792   7.684   9.289  0.9283  0.0320 -0.3158
24079SOL    HW175129   4.853   7.688   9.216  0.0844  1.7928 -0.9615
24079SOL    HW275130   4.834   7.735   9.359  0.7118  0.2763 -0.3637
24080SOL     OW75131   1.521   8.295   0.665  0.7073 -0.1544 -0.4291
24080SOL    HW175132   1.574   8.226   0.706 -1.8593 -0.7930  2.1911
24080SOL    HW275133   1.461   8.248   0.608 -0.1365  0.0071  0.3051
24081SOL     OW75134   2.596   2.835   9.298  0.3610 -0.0521  0.2705
24081SOL    HW175135   2.659   2.820   9.228  0.3073  0.2590  0.1575
24081SOL    HW275136   2.583   2.929   9.300  0.6968 -0.0064  0.9899
24082SOL     OW75137   8.540   2.477   5.903  0.2848 -0.4353  0.0733
24082SOL    HW175138   8.584   2.524   5.832  0.4312 -0.7080 -0.0174
24082SOL    HW275139   8.447   2.487   5.884  0.1406  2.6869  1.8656
24083SOL     OW75140   0.200   8.985   9.606 -0.0683 -0.1337 -0.2727
24083SOL    HW175141   0.177   9.028   9.688  1.1393 -0.9467  0.5322
24083SOL    HW275142   0.151   8.903   9.607  1.5935 -1.1689  0.7287
24084SOL     OW75143   7.411   6.166   8.220  0.3590  0.6546  0.2709
24084SOL    HW175144   7.462   6.094   8.257 -0.9101  0.1192  1.0697
24084SOL    HW275145   7.461   6.245   8.241  1.0757  0.1173  0.6190
24085SOL     OW75146   5.214   1.280   1.465 -0.1549  0.3823  0.1461
24085SOL    HW175147   5.175   1.345   1.524 -0.1199  0.5646 -0.0296
24085SOL    HW275148   5.289   1.246   1.514 -0.6444 -0.1040  0.5571
24086SOL     OW75149   1.371   8.756   8.414 -0.4137  0.6762  0.4504
24086SOL    HW175150   1.335   8.791   8.332  1.5589 -0.2802 -0.8848
24086SOL    HW275151   1.295   8.718   8.459 -1.7889  2.4968 -0.1995
24087SOL     OW75152   4.450   6.826   7.706  0.2803  0.5155  0.0872
24087SOL    HW175153   4.415   6.780   7.630  0.4132  0.7249 -0.1016
24087SOL    HW275154   4.533   6.862   7.676  1.3450 -1.1464  0.9229
24088SOL     OW75155   1.058   2.151   6.689  0.3533  0.3570  0.5730
24088SOL    HW175156   1.056   2.237   6.647 -1.8342  0.0053 -0.1573
24088SOL    HW275157   1.047   2.088   6.617  1.2328 -0.5214  1.1761
24089SOL     OW75158   7.292   6.017   8.763 -0.3624  0.4922 -0.0826
24089SOL    HW175159   7.374   5.972   8.786 -1.2313 -1.0475  0.1103
24089SOL    HW275160   7.284   6.006   8.669  0.3788  1.9428 -0.3361
24090SOL     OW75161   4.966   0.512   1.679 -0.1198  0.5417  0.1300
24090SOL    HW175162   4.871   0.519   1.676 -0.1952 -0.6614 -1.0755
24090SOL    HW275163   4.983   0.465   1.761 -0.9107 -2.8714 -1.4591
24091SOL     OW75164   2.456   5.423   3.007  0.7877 -0.2459  0.3194
24091SOL    HW175165   2.446   5.480   3.083 -0.9349 -0.0707  0.0105
24091SOL    HW275166   2.537   5.375   3.023  0.9971  0.5332  1.7583
24092SOL     OW75167   8.640   5.812   4.533 -0.1475 -0.3483  0.4572
24092SOL    HW175168   8.618   5.905   4.531  1.0280  0.0565 -3.7252
24092SOL    HW275169   8.566   5.770   4.489  0.0059 -1.2108  1.0038
24093SOL     OW75170   5.660   9.466   7.520 -0.1585  0.1090  0.0560
24093SOL    HW175171   5.583   9.519   7.498 -2.2020 -2.4002  0.6264
24093SOL    HW275172   5.691   9.433   7.436  1.4766  2.4682 -0.3686
24094SOL     OW75173   8.547   4.247   7.225 -0.6455  0.3723 -0.6785
24094SOL    HW175174   8.452   4.236   7.217 -0.6942 -2.1669  1.6787
24094SOL    HW275175   8.583   4.175   7.173 -0.2727 -1.4034  1.8430
24095SOL     OW75176   9.499   3.427   4.868 -0.2824 -0.2443  0.2702
24095SOL    HW175177   9.446   3.461   4.795 -1.1174 -0.7198  0.6450
24095SOL    HW275178   9.447   3.446   4.946  1.5450  2.1826  1.0108
24096SOL     OW75179   3.088   0.982   0.424 -0.1330  0.3584 -0.6229
24096SOL    HW175180   3.022   0.920   0.395  1.2960 -0.3060 -2.6881
24096SOL    HW275181   3.157   0.928   0.462 -0.8870  1.0729  1.9813
24097SOL     OW75182   0.559   7.016   3.902 -0.3420  0.5898  0.5187
24097SOL    HW175183   0.564   7.039   3.995 -1.9180  1.2643  0.4671
24097SOL    HW275184   0.470   7.041   3.876 -0.0528  0.0536 -1.0802
24098SOL     OW75185   0.378   0.143   8.994  0.8947  0.6337  0.1023
24098SOL    HW175186   0.418   0.063   8.960  0.6463  0.0182  1.1955
24098SOL    HW275187   0.328   0.178   8.920 -0.6252 -1.3155  0.1010
24099SOL     OW75188   5.700   3.612   3.070 -0.0497 -0.7446  0.9162
24099SOL    HW175189   5.699   3.522   3.103  0.7452 -0.4385  1.8007
24099SOL    HW275190   5.630   3.613   3.005  0.8503 -2.3881 -0.1587
24100SOL     OW75191   0.353   5.207   1.688 -0.5354  0.3497  0.3737
24100SOL    HW175192   0.401   5.235   1.610  2.1675  0.2886  1.8925
24100SOL    HW275193   0.334   5.288   1.735 -0.1904  0.2538  0.6892
24101SOL     OW75194   5.888   2.501   8.424 -0.1704  0.0240  0.1311
24101SOL    HW175195   5.832   2.520   8.500  0.3021  0.5092  0.3617
24101SOL    HW275196   5.948   2.434   8.455  0.8513  1.1233  0.5895
24102SOL     OW75197   8.784   7.586   7.223  0.4411  0.2802  0.2357
24102SOL    HW175198   8.735   7.521   7.274  2.1345 -0.6608  0.7482
24102SOL    HW275199   8.814   7.650   7.288 -2.7588  2.7567 -0.4785
24103SOL     OW75200   2.070   1.550   5.234  0.1406 -0.2199 -0.2654
24103SOL    HW175201   2.076   1.462   5.196 -1.3122 -0.8603  0.9057
24103SOL    HW275202   2.028   1.602   5.166  0.6821 -0.5070 -0.8350
24104SOL     OW75203   7.180   2.068   9.083  0.0308  0.4090  0.2816
24104SOL    HW175204   7.105   2.127   9.076 -0.4240 -0.0965  0.7769
24104SOL    HW275205   7.169   2.025   9.168 -0.7906 -1.9163 -0.9311
24105SOL     OW75206   2.857   5.671   1.891 -0.1703  0.2895  0.2377
24105SOL    HW175207   2.881   5.699   1.803 -2.3952 -0.1297 -0.5859
24105SOL    HW275208   2.914   5.596   1.909  1.7786  1.6637  0.0847
24106SOL     OW75209   8.712   4.578   5.340  0.3604 -0.3696  0.1397
24106SOL    HW175210   8.683   4.571   5.431 -0.2556 -0.3958 -0.0575
24106SOL    HW275211   8.743   4.490   5.318  0.1505 -0.4616  0.2072
24107SOL     OW75212   5.814   4.653   6.330  0.1137 -0.0847 -0.2395
24107SOL    HW175213   5.856   4.733   6.297  2.1489 -1.2052 -0.5215
24107SOL    HW275214   5.808   4.666   6.425  1.4474 -0.0296 -0.1496
24108SOL     OW75215   8.861   2.330   3.485  0.1111 -0.1870  0.2825
24108SOL    HW175216   8.942   2.347   3.534 -1.0303  0.9124  1.8894
24108SOL    HW275217   8.829   2.247   3.519 -0.3197  0.2295  0.8988
24109SOL     OW75218   8.011   9.454   2.491  0.3074  0.2965  0.1864
24109SOL    HW175219   8.101   9.479   2.511 -0.2801  3.1047 -0.2653
24109SOL    HW275220   8.010   9.358   2.500  3.1823  0.2235  0.6556
24110SOL     OW75221   6.202   4.446   0.166 -0.4613  0.0706 -0.1816
24110SOL    HW175222   6.210   4.504   0.090 -0.5216 -0.1450 -0.3528
24110SOL    HW275223   6.210   4.358   0.130  1.1186  0.0086  0.2604
24111SOL     OW75224   6.060   5.862   7.966 -0.7041  0.8089 -0.3118
24111SOL    HW175225   6.101   5.781   7.997  0.1335  1.2816 -0.1690
24111SOL    HW275226   6.028   5.905   8.045 -0.0935  1.1882 -0.2695
24112SOL     OW75227   1.323   2.134   5.183  0.0648  0.0134 -0.8598
24112SOL    HW175228   1.364   2.084   5.113 -0.7619  0.0491 -1.3928
24112SOL    HW275229   1.240   2.088   5.200  0.4441 -0.2403  0.4003
24113SOL     OW75230   0.978   6.905   3.381 -0.3201  0.2951 -0.0754
24113SOL    HW175231   0.887   6.906   3.411 -0.0428  0.3823  0.7696
24113SOL    HW275232   0.983   6.829   3.323 -0.7872 -0.0479  0.3305
24114SOL     OW75233   4.036   0.119   1.891  0.3261  0.7410  0.1395
24114SOL    HW175234   4.046   0.092   1.983  2.8481  0.9416 -0.0201
24114SOL    HW275235   4.056   0.040   1.841  0.4609  1.0331 -0.2642
24115SOL     OW75236   0.700   3.557   0.901 -0.2456  0.2215 -0.1809
24115SOL    HW175237   0.765   3.625   0.884 -0.8783  0.9906  0.3940
24115SOL    HW275238   0.713   3.493   0.832  0.1477  1.0895 -0.9239
24116SOL     OW75239   0.648   5.006   2.477  0.4346 -0.6942  0.3974
24116SOL    HW175240   0.566   4.979   2.519  0.3489  1.9850  2.2234
24116SOL    HW275241   0.710   4.936   2.498 -0.9182 -1.8798  0.5648
24117SOL     OW75242   5.133   0.141   5.309 -1.2504  0.3779 -0.0345
24117SOL    HW175243   5.158   0.130   5.217 -0.1956  3.6510 -0.2484
24117SOL    HW275244   5.062   0.204   5.308 -0.6118  1.1687  1.4469
24118SOL     OW75245   0.835   0.291   3.060  0.4257  0.0583  0.8964
24118SOL    HW175246   0.908   0.240   3.025 -0.0442 -0.7298  1.0506
24118SOL    HW275247   0.873   0.377   3.078  1.4441 -0.4865  1.4428
24119SOL     OW75248   2.103   9.284   1.544  0.6119 -0.3322  0.5017
24119SOL    HW175249   2.178   9.333   1.510  0.3265 -0.8269 -0.9202
24119SOL    HW275250   2.109   9.199   1.500 -1.6087  0.1221 -0.8306
24120SOL     OW75251   2.899   0.339   9.291  0.2728  0.0150 -0.2671
24120SOL    HW175252   2.900   0.291   9.208  1.8037 -0.0741 -0.2227
24120SOL    HW275253   2.978   0.393   9.289 -0.0858  0.6135  0.7959
24121SOL     OW75254   0.224   4.534   8.644  0.2620 -0.6294 -0.1354
24121SOL    HW175255   0.128   4.535   8.646  0.1397 -2.0096 -2.3527
24121SOL    HW275256   0.249   4.501   8.731 -1.1209  1.9950  1.3656
24122SOL     OW75257   7.727   2.550   0.708 -0.2130 -0.0637  0.6969
24122SOL    HW175258   7.722   2.554   0.804  1.4154 -1.9837  0.9378
24122SOL    HW275259   7.760   2.462   0.690  0.9273  0.7526 -1.5587
24123SOL     OW75260   3.262   2.028   4.133  0.1639  0.0544 -0.5416
24123SOL    HW175261   3.197   2.090   4.101 -1.0089  0.3822  2.2237
24123SOL    HW275262   3.311   2.077   4.199  1.0190 -1.1960 -0.2079
24124SOL     OW75263   2.959   1.414   6.664 -0.2359 -0.2052  0.2535
24124SOL    HW175264   2.993   1.502   6.647 -2.6632  0.7781  0.0795
24124SOL    HW275265   2.953   1.409   6.760 -1.1136  0.2658  0.2318
24125SOL     OW75266   4.277   3.087   8.371  0.3549  0.3357 -0.0890
24125SOL    HW175267   4.241   3.124   8.452 -0.6657 -0.4453 -0.1646
24125SOL    HW275268   4.267   3.157   8.306  0.3228  0.6432  0.2491
24126SOL     OW75269   7.177   9.275   7.506 -0.2914 -0.3951  0.0875
24126SOL    HW175270   7.206   9.335   7.438 -0.2978 -0.0842  0.3581
24126SOL    HW275271   7.177   9.327   7.587  1.4465 -1.2186  0.6639
24127SOL     OW75272   2.469   8.236   3.798 -0.0659 -0.4159 -0.5574
24127SOL    HW175273   2.546   8.288   3.776 -0.9829  0.3358 -2.1331
24127SOL    HW275274   2.471   8.162   3.737 -1.5765  0.6294 -1.9540
24128SOL     OW75275   6.780   6.569   1.796  0.3987 -0.0963  0.5638
24128SOL    HW175276   6.771   6.485   1.841 -0.5731  0.1348  0.8297
24128SOL    HW275277   6.756   6.550   1.705  0.7109 -0.2224  0.5096
24129SOL     OW75278   8.034   0.670   5.667 -0.3299 -0.2706 -0.2104
24129SOL    HW175279   8.034   0.680   5.572 -1.5938  1.6248 -0.0741
24129SOL    HW275280   8.091   0.740   5.699  0.0673 -0.8757  0.4244
24130SOL     OW75281   1.811   7.020   3.693 -0.5640 -0.5398 -0.0398
24130SOL    HW175282   1.819   7.095   3.752  1.0767  0.5218 -1.5206
24130SOL    HW275283   1.868   6.953   3.730 -2.4065 -1.3462  1.5579
24131SOL     OW75284   6.556   3.123   3.485 -0.7543 -0.1951  0.4591
24131SOL    HW175285   6.640   3.109   3.530 -1.1591 -0.7664  1.0560
24131SOL    HW275286   6.490   3.101   3.550 -1.3638 -2.2044 -0.7219
24132SOL     OW75287   0.169   1.844   8.270 -0.1290 -0.4293  0.1047
24132SOL    HW175288   0.097   1.902   8.291  1.2205  1.1565  0.5642
24132SOL    HW275289   0.243   1.876   8.322  1.4953 -0.6031 -1.9295
24133SOL     OW75290   0.488   8.024   1.046 -0.1188  0.0548  0.1787
24133SOL    HW175291   0.406   8.019   0.995 -0.0409  0.9851 -0.0464
24133SOL    HW275292   0.492   8.115   1.075  0.9961  0.0925 -0.0758
24134SOL     OW75293   4.382   2.126   4.978  0.9627 -0.1010  0.2010
24134SOL    HW175294   4.329   2.095   5.051 -0.5571  0.8179 -0.4434
24134SOL    HW275295   4.333   2.098   4.900  2.3101 -0.6742 -0.4701
24135SOL     OW75296   3.959   8.606   8.445  0.4882  0.1700 -0.1621
24135SOL    HW175297   3.893   8.563   8.499 -0.8057  2.2501  0.0337
24135SOL    HW275298   3.981   8.686   8.492 -0.6320  2.0443 -2.5888
24136SOL     OW75299   6.156   3.424   5.102 -0.0883  0.1976  0.2665
24136SOL    HW175300   6.099   3.468   5.166  0.3409 -0.2736  0.9837
24136SOL    HW275301   6.148   3.331   5.123  1.9767  0.2068  1.2613
24137SOL     OW75302   7.585   0.330   4.054  0.6727  0.0240 -0.3829
24137SOL    HW175303   7.525   0.255   4.049  3.0366 -1.9712 -0.3765
24137SOL    HW275304   7.581   0.369   3.967 -0.4393 -0.1955 -0.4506
24138SOL     OW75305   3.953   6.895   3.131  0.2340 -0.4124  0.0993
24138SOL    HW175306   3.863   6.920   3.111 -0.3551 -0.5826  2.2307
24138SOL    HW275307   3.985   6.853   3.052 -1.3221  0.2560 -0.9364
24139SOL     OW75308   9.008   4.346   2.867  0.6468 -0.2226 -0.7771
24139SOL    HW175309   8.966   4.413   2.813 -0.0807 -0.0128  0.0422
24139SOL    HW275310   9.071   4.304   2.807  0.4827  0.5846 -1.5435
24140SOL     OW75311   7.074   7.561   4.577 -0.3153  0.3308  0.1530
24140SOL    HW175312   7.000   7.535   4.521  1.1939  0.1134 -1.8556
24140SOL    HW275313   7.123   7.480   4.592  0.7766  0.8390 -0.5257
24141SOL     OW75314   7.183   5.581   0.720 -0.1135 -0.0701  0.4566
24141SOL    HW175315   7.127   5.657   0.702 -1.9758 -1.5745 -0.3451
24141SOL    HW275316   7.207   5.548   0.634 -1.1705 -1.6750  0.7442
24142SOL     OW75317   2.443   0.713   2.989 -0.0771  0.2680 -0.3335
24142SOL    HW175318   2.433   0.807   2.978 -0.9647  0.2860  0.5043
24142SOL    HW275319   2.513   0.689   2.929  1.4286  1.7412  0.7389
24143SOL     OW75320   7.933   4.914   2.779  0.7584  0.7487  0.0722
24143SOL    HW175321   7.923   4.994   2.831  0.0849  0.1691  0.8612
24143SOL    HW275322   7.894   4.936   2.694  1.4754  1.5638 -0.0676
24144SOL     OW75323   3.901   3.669   0.955  0.9627 -0.2497  0.3868
24144SOL    HW175324   3.897   3.573   0.948  0.6756 -0.1824 -0.5300
24144SOL    HW275325   3.902   3.699   0.864  1.1151  0.6205  0.6701
24145SOL     OW75326   4.970   6.083   0.711 -0.2048 -0.3449 -0.1870
24145SOL    HW175327   5.020   6.088   0.792  0.4741  0.4552 -0.6460
24145SOL    HW275328   4.881   6.110   0.736 -0.3073 -1.2739  0.5229
24146SOL     OW75329   4.750   8.365   4.714 -0.1610 -0.9323 -0.0432
24146SOL    HW175330   4.712   8.335   4.631  0.0073 -2.1840  0.3176
24146SOL    HW275331   4.676   8.368   4.774 -0.1765 -0.6130 -0.0763
24147SOL     OW75332   1.296   3.931   1.493 -0.1101  0.0954 -0.1012
24147SOL    HW175333   1.221   3.908   1.548 -0.5264 -0.7714 -0.9982
24147SOL    HW275334   1.260   3.988   1.425  0.1270  0.0483 -0.2696
24148SOL     OW75335   5.387   3.331   7.037  0.1021  0.0606 -0.1872
24148SOL    HW175336   5.464   3.323   7.093  0.7372 -0.4375 -1.1023
24148SOL    HW275337   5.403   3.270   6.966 -2.6572 -2.6611  1.2654
24149SOL     OW75338   6.074   0.032   4.685 -0.2959 -0.3784  0.4642
24149SOL    HW175339   5.987  -0.001   4.707 -0.4741 -0.1040  0.1750
24149SOL    HW275340   6.128  -0.047   4.678 -0.8727 -0.6685 -0.8948
24150SOL     OW75341   0.932   5.929   0.640 -0.3025  0.6286  0.0687
24150SOL    HW175342   0.880   5.852   0.616 -3.8747  2.8667 -0.0897
24150SOL    HW275343   0.950   5.918   0.733  1.2119 -1.3728 -0.3979
24151SOL     OW75344   7.692   2.359   4.394  0.0513  0.0932  0.1300
24151SOL    HW175345   7.773   2.407   4.407  0.0663  0.2887 -0.6643
24151SOL    HW275346   7.623   2.424   4.406  0.0228  0.0308  0.3177
24152SOL     OW75347   4.463   2.366   0.431  0.0892  0.2945  0.0424
24152SOL    HW175348   4.427   2.330   0.350  0.0413 -0.8779  0.5615
24152SOL    HW275349   4.444   2.299   0.497  1.2461  0.6537  0.7707
24153SOL     OW75350   7.517   3.927   7.412 -0.1906  0.4470  1.0405
24153SOL    HW175351   7.494   3.915   7.504 -0.7221  0.2044  0.8792
24153SOL    HW275352   7.469   3.859   7.366 -1.8145  1.9930  0.3151
24154SOL     OW75353   9.614   2.765   6.683  0.0026  0.6813 -0.2953
24154SOL    HW175354   9.561   2.700   6.636  1.0106 -0.1531 -0.3058
24154SOL    HW275355   9.565   2.782   6.764 -0.4934  0.2631 -0.5011
24155SOL     OW75356   7.266   0.723   6.977  0.1379  0.2951  0.3181
24155SOL    HW175357   7.285   0.649   7.035  1.1653 -1.0723 -1.6326
24155SOL    HW275358   7.349   0.739   6.930 -1.0855  0.0613 -2.0959
24156SOL     OW75359   8.052   7.812   4.441 -0.2635 -0.3742  0.4706
24156SOL    HW175360   8.074   7.827   4.350  0.9364  2.9009  1.1816
24156SOL    HW275361   8.085   7.723   4.459  2.9610  0.2968 -1.3208
24157SOL     OW75362   8.947   5.828   8.222  0.2432  0.3562 -0.6892
24157SOL    HW175363   8.871   5.822   8.164 -0.0473  3.0415 -0.6939
24157SOL    HW275364   8.991   5.909   8.195  1.0306  0.8104  1.7487
24158SOL     OW75365   5.790   8.824   3.460  0.6767 -0.1050 -0.1903
24158SOL    HW175366   5.870   8.772   3.450 -0.5187 -1.9443 -0.6001
24158SOL    HW275367   5.821   8.915   3.457  2.8360 -0.7371  0.4532
24159SOL     OW75368   8.295   9.041   0.074 -0.0340  0.0331  0.5764
24159SOL    HW175369   8.334   8.990   0.145 -2.4681 -1.8077  0.7190
24159SOL    HW275370   8.342   9.011  -0.004  1.0355  0.3117  1.0846
24160SOL     OW75371   3.660   5.136   6.772  0.3030  0.6938 -0.0126
24160SOL    HW175372   3.712   5.098   6.843 -0.0123  0.8578  0.3095
24160SOL    HW275373   3.666   5.072   6.701  0.6070  0.5218  0.1658
24161SOL     OW75374   8.519   8.582   1.671 -0.4197  0.0178 -0.2499
24161SOL    HW175375   8.453   8.515   1.690  0.2645 -0.8062 -0.7381
24161SOL    HW275376   8.488   8.624   1.591 -0.4647 -0.2087 -0.3497
24162SOL     OW75377   1.807   2.605   3.738 -0.0200 -0.4045 -0.0899
24162SOL    HW175378   1.854   2.663   3.678 -0.2134  0.6394  0.7448
24162SOL    HW275379   1.787   2.659   3.814 -0.2883 -1.5443  0.6869
24163SOL     OW75380   4.374   6.350   8.118 -0.4946  0.2193  0.0068
24163SOL    HW175381   4.469   6.353   8.122 -0.5287  0.2968  1.1764
24163SOL    HW275382   4.354   6.272   8.066  0.2058 -0.7607  1.1464
24164SOL     OW75383   4.155   3.631   6.448 -0.3484  0.1775 -0.2542
24164SOL    HW175384   4.067   3.605   6.420 -0.7354  0.2881  0.8133
24164SOL    HW275385   4.140   3.703   6.509  0.5541  0.9421 -0.9023
24165SOL     OW75386   4.716   3.849   0.210  0.1924 -0.0927 -0.3510
24165SOL    HW175387   4.678   3.772   0.254 -1.1554  1.0153  0.5231
24165SOL    HW275388   4.680   3.845   0.121 -0.1466 -0.2973 -0.2103
24166SOL     OW75389   6.479   1.220   1.086  0.9538  0.0300 -0.1855
24166SOL    HW175390   6.456   1.306   1.123 -0.8939 -0.4961 -0.0206
24166SOL    HW275391   6.521   1.174   1.159 -1.9622 -0.7166  1.1606
24167SOL     OW75392   5.479   6.665   6.961  0.1579  0.3837  0.3064
24167SOL    HW175393   5.534   6.737   6.992  0.4625  0.4814 -0.4488
24167SOL    HW275394   5.451   6.620   7.041  0.3446  1.0561  0.7604
24168SOL     OW75395   9.001   2.944   1.920 -0.4766 -0.1652 -0.7110
24168SOL    HW175396   9.041   2.904   1.842 -2.6506 -0.6212 -1.6468
24168SOL    HW275397   8.942   2.877   1.954 -0.6953  0.5928  0.4496
24169SOL     OW75398   0.186   5.153   2.478  0.4647 -0.1164  0.3779
24169SOL    HW175399   0.266   5.203   2.494  1.3050 -0.8564 -1.3424
24169SOL    HW275400   0.213   5.080   2.423 -0.9767 -1.7593  1.7073
24170SOL     OW75401   7.729   9.102   1.895 -0.0996  0.3141 -0.6073
24170SOL    HW175402   7.679   9.037   1.846 -2.2499  0.0234  1.7757
24170SOL    HW275403   7.715   9.184   1.846 -0.2822 -0.3403 -1.6888
24171SOL     OW75404   8.821   1.984   7.457  0.3997  0.5701 -0.2991
24171SOL    HW175405   8.881   2.000   7.530  0.7673 -1.3958 -0.1046
24171SOL    HW275406   8.743   1.946   7.498 -0.2285  1.3437 -0.7469
24172SOL     OW75407   4.203   4.220   3.388 -0.0594 -0.8084 -0.0535
24172SOL    HW175408   4.263   4.161   3.343  1.7144  1.0607 -0.2455
24172SOL    HW275409   4.183   4.288   3.324  0.5117  0.5335  1.1512
24173SOL     OW75410   1.635   2.349   7.085 -0.5055  0.1129 -0.2098
24173SOL    HW175411   1.673   2.266   7.115 -1.2211 -0.2951 -0.3976
24173SOL    HW275412   1.655   2.352   6.992 -0.3037  0.2505 -0.1620
24174SOL     OW75413   2.817   4.570   0.976 -0.1571 -0.3231 -0.0862
24174SOL    HW175414   2.766   4.490   0.987 -1.3206  0.5046  0.8559
24174SOL    HW275415   2.904   4.548   1.010  0.0992 -1.6896 -1.5192
24175SOL     OW75416   2.139   8.646   7.294  0.0652  0.6744  0.9517
24175SOL    HW175417   2.089   8.588   7.352 -0.9829  0.7664  0.1541
24175SOL    HW275418   2.122   8.613   7.206  0.5094  1.4024  0.5833
24176SOL     OW75419   3.445   0.400   1.495  0.0252 -0.1745 -0.3016
24176SOL    HW175420   3.444   0.422   1.588  0.0708  1.3310 -0.6281
24176SOL    HW275421   3.446   0.305   1.493  2.2301 -0.2598  1.2620
24177SOL     OW75422   3.990   8.872   3.704  0.0438 -0.3415 -0.1105
24177SOL    HW175423   4.053   8.833   3.643  0.2496  0.2427 -0.2762
24177SOL    HW275424   3.927   8.802   3.722 -1.1042 -0.0041 -2.4491
24178SOL     OW75425   2.167   0.620   7.429  0.4557 -0.3314 -0.0167
24178SOL    HW175426   2.248   0.671   7.427  0.0247  0.3487 -0.9621
24178SOL    HW275427   2.168   0.569   7.348 -0.3753  0.2009 -0.3779
24179SOL     OW75428   0.686   3.050   2.894  0.3782 -0.5157  0.4865
24179SOL    HW175429   0.640   2.972   2.865  0.9680 -0.3785 -0.9183
24179SOL    HW275430   0.690   3.043   2.989 -1.0841 -1.3268  0.5045
24180SOL     OW75431   6.328   7.632   6.497  0.7353  0.0770  0.2345
24180SOL    HW175432   6.343   7.714   6.543 -0.6011  0.1673  0.5586
24180SOL    HW275433   6.291   7.659   6.413  1.0126 -0.1708  0.0308
24181SOL     OW75434   1.014   5.514   8.151 -0.2083 -0.1481  0.0489
24181SOL    HW175435   0.946   5.536   8.088 -0.5770 -1.1740  0.0804
24181SOL    HW275436   1.089   5.487   8.098  0.5378  1.8447 -0.0222
24182SOL     OW75437   6.761   4.174   5.641 -0.0843  0.1142 -0.3193
24182SOL    HW175438   6.850   4.146   5.624 -0.4007 -0.5158 -0.9732
24182SOL    HW275439   6.770   4.250   5.699  0.8425 -0.3428  0.1464
24183SOL     OW75440   6.371   4.468   8.834  0.5725 -0.8009  0.6723
24183SOL    HW175441   6.450   4.522   8.825  0.6812 -1.2778 -2.0875
24183SOL    HW275442   6.385   4.396   8.772 -3.0120  0.4424 -1.9163
24184SOL     OW75443   4.419   0.844   1.381  0.0656  0.2553 -0.2055
24184SOL    HW175444   4.433   0.793   1.302 -0.1825  1.0688 -0.7892
24184SOL    HW275445   4.357   0.792   1.433  0.3296 -0.3399 -0.4886
24185SOL     OW75446   7.250   4.601   8.237  0.0128  0.0375 -0.6242
24185SOL    HW175447   7.306   4.663   8.190 -0.3659  1.3145  0.5204
24185SOL    HW275448   7.300   4.520   8.240  2.1098  1.2875  0.8645
24186SOL     OW75449   0.533   1.947   4.849  0.0192  0.0188  0.3024
24186SOL    HW175450   0.612   1.896   4.865  0.7355  0.9160 -0.2692
24186SOL    HW275451   0.474   1.922   4.920  0.4936 -1.2833  0.2630
24187SOL     OW75452   0.958   7.717   8.254 -0.0911 -0.3488  0.5589
24187SOL    HW175453   0.914   7.647   8.302 -1.5400 -0.1477 -0.3996
24187SOL    HW275454   0.999   7.771   8.321 -0.3683 -1.1893  1.4153
24188SOL     OW75455   9.072   2.489   3.931  0.2336 -0.3664  0.3976
24188SOL    HW175456   9.069   2.527   4.018  0.4635  2.4709 -0.6972
24188SOL    HW275457   9.016   2.546   3.878  1.0246 -1.2793 -1.5297
24189SOL     OW75458   8.982   0.457   4.286 -0.1989 -0.0300  0.5319
24189SOL    HW175459   8.981   0.467   4.191  2.3208 -0.4258  0.3943
24189SOL    HW275460   8.910   0.397   4.305  1.1803 -2.5619 -1.5429
24190SOL     OW75461   4.632   0.378   2.017  1.2416 -0.5533 -0.2342
24190SOL    HW175462   4.543   0.355   2.042  0.5376  0.2134 -1.9223
24190SOL    HW275463   4.627   0.399   1.924  2.5901  2.5055  0.2556
24191SOL     OW75464   5.498   4.297   4.040  0.2078 -0.7734  0.1578
24191SOL    HW175465   5.575   4.252   4.006 -0.0199 -1.3678  0.4149
24191SOL    HW275466   5.531   4.351   4.112  0.1625 -2.2812  1.3586
24192SOL     OW75467   9.579   1.074   4.266  0.2277 -0.7875  0.5333
24192SOL    HW175468   9.549   1.002   4.321 -2.7093 -0.4103 -0.3888
24192SOL    HW275469   9.542   1.056   4.179 -0.7430  1.7823  0.2942
24193SOL     OW75470   6.318   7.015   4.950  0.1127  0.4561 -0.4764
24193SOL    HW175471   6.255   6.972   5.007  0.3074 -0.2942 -0.8116
24193SOL    HW275472   6.307   6.971   4.865  0.6075  0.7870 -0.7156
24194SOL     OW75473   3.930   0.736   3.107  0.4710  0.3035  0.7652
24194SOL    HW175474   3.936   0.703   3.018 -0.0659 -0.6831  1.0770
24194SOL    HW275475   4.001   0.800   3.114 -0.0471  1.0623 -0.6307
24195SOL     OW75476   7.776   7.891   5.961  0.2599 -0.1516  0.6196
24195SOL    HW175477   7.829   7.942   6.023 -0.1447 -1.6458  2.3050
24195SOL    HW275478   7.697   7.869   6.011 -0.2240 -1.1452 -0.5558
24196SOL     OW75479   5.725   6.377   9.505 -0.5175  0.0228 -0.3885
24196SOL    HW175480   5.784   6.408   9.575  1.8619 -1.0783 -1.7868
24196SOL    HW275481   5.669   6.313   9.548  0.5168 -0.2220  0.6374
24197SOL     OW75482   1.113   6.771   9.057  0.1587 -0.9266  0.0196
24197SOL    HW175483   1.069   6.797   9.138 -0.4564 -1.8514 -0.0020
24197SOL    HW275484   1.107   6.848   9.001  2.1646  0.3610  1.4552
24198SOL     OW75485   7.995   7.387   4.372 -0.2415  0.3172 -0.9190
24198SOL    HW175486   8.021   7.396   4.281 -0.7182 -0.2284 -1.1118
24198SOL    HW275487   7.957   7.300   4.378 -0.1355  0.3147 -0.1775
24199SOL     OW75488   4.240   2.852   4.585  0.0349  0.4718 -0.0087
24199SOL    HW175489   4.204   2.800   4.657  0.9011 -0.6783 -0.3948
24199SOL    HW275490   4.164   2.900   4.551 -0.6689 -0.1030  0.7122
24200SOL     OW75491   9.011   0.415   6.220  0.3219  0.7123 -0.2414
24200SOL    HW175492   9.030   0.365   6.299 -0.0188 -0.8785 -1.1112
24200SOL    HW275493   9.055   0.499   6.232  1.4632 -0.0418  1.0115
24201SOL     OW75494   4.622   3.691   0.482 -0.0380  0.0501 -0.0940
24201SOL    HW175495   4.640   3.651   0.567 -0.8330 -0.2596 -0.0660
24201SOL    HW275496   4.534   3.728   0.490 -0.4327 -0.6324 -1.0063
24202SOL     OW75497   2.249   2.531   5.556 -0.3884  0.0289  0.4408
24202SOL    HW175498   2.205   2.543   5.472  0.4159 -0.2643 -0.0303
24202SOL    HW275499   2.293   2.615   5.572  1.0860 -0.5406 -0.4113
24203SOL     OW75500   2.841   5.570   2.961 -0.6847  0.3091 -0.0182
24203SOL    HW175501   2.837   5.665   2.948  1.6177  0.9890  2.9812
24203SOL    HW275502   2.784   5.553   3.035  0.3747 -0.2681  0.7012
24204SOL     OW75503   4.008   2.370   3.252  0.7265  0.1442 -0.1264
24204SOL    HW175504   4.082   2.341   3.199  0.0292 -0.3744 -0.8513
24204SOL    HW275505   3.961   2.432   3.196 -2.3850 -3.4404 -2.0041
24205SOL     OW75506   5.560   5.640   8.151 -0.3926 -0.7751  0.5109
24205SOL    HW175507   5.603   5.725   8.165  0.1222 -1.0024  0.3249
24205SOL    HW275508   5.597   5.583   8.219  0.3259 -1.2325 -0.2540
24206SOL     OW75509   6.836   1.061   1.846 -0.1197  0.6192  0.4792
24206SOL    HW175510   6.783   1.006   1.903  0.0673  0.2551  0.3094
24206SOL    HW275511   6.789   1.145   1.842  0.2208  0.8878  1.7078
24207SOL     OW75512   4.791   8.044   7.575 -0.0732  0.1211  0.3464
24207SOL    HW175513   4.700   8.063   7.600 -0.5259 -0.3839 -0.8451
24207SOL    HW275514   4.834   8.129   7.574 -0.7456  0.4634  0.1360
24208SOL     OW75515   7.606   5.368   6.143 -0.0247  0.2605 -0.8444
24208SOL    HW175516   7.685   5.314   6.152 -0.9924 -1.3959 -1.8053
24208SOL    HW275517   7.617   5.437   6.208  1.8831 -0.3225 -0.4677
24209SOL     OW75518   8.230   9.564   4.396  0.0577 -0.3221 -0.4747
24209SOL    HW175519   8.181   9.514   4.331 -0.6082 -1.2821  0.7293
24209SOL    HW275520   8.319   9.567   4.362  0.4613 -3.5302  0.0026
24210SOL     OW75521   9.252   3.035   5.260 -0.1942 -0.2821  0.3575
24210SOL    HW175522   9.187   3.037   5.331  1.2010  0.9312  1.6741
24210SOL    HW275523   9.200   3.049   5.181 -1.5791  0.5025  1.3471
24211SOL     OW75524   7.962   3.349   1.784 -0.4561  0.5702 -0.2751
24211SOL    HW175525   7.986   3.438   1.759 -0.5928  1.0379  1.1531
24211SOL    HW275526   7.886   3.328   1.729 -0.9982  1.6994  0.0153
24212SOL     OW75527   4.714   7.043   1.316 -0.6793 -0.3192  0.3003
24212SOL    HW175528   4.755   7.091   1.245  1.5918 -0.9365  1.1028
24212SOL    HW275529   4.686   7.110   1.378 -1.0810  0.1295 -0.3542
24213SOL     OW75530   2.076   0.159   5.610 -0.5409 -0.9162  0.5952
24213SOL    HW175531   2.048   0.197   5.693 -0.4947  0.5375 -0.0225
24213SOL    HW275532   2.167   0.135   5.624  0.0786  1.1507  0.4042
24214SOL     OW75533   2.092   9.468   1.040 -0.0537 -0.1252 -0.0546
24214SOL    HW175534   2.041   9.389   1.060 -0.0280  0.2315  1.5172
24214SOL    HW275535   2.183   9.438   1.038 -0.2158 -0.7126 -2.6144
24215SOL     OW75536   8.944   9.340   5.994  0.2920 -0.1868 -0.3295
24215SOL    HW175537   8.981   9.307   5.913 -1.1961 -3.2429  0.0930
24215SOL    HW275538   8.949   9.435   5.986  1.9083 -0.4152 -3.1360
24216SOL     OW75539   8.865   8.541   8.923  0.6261 -0.5530  0.2929
24216SOL    HW175540   8.821   8.621   8.952 -0.9108 -0.9575 -0.7735
24216SOL    HW275541   8.869   8.549   8.827  0.1799 -1.8748  0.1457
24217SOL     OW75542   0.991   2.085   7.692 -0.0355 -0.3967  0.8391
24217SOL    HW175543   1.059   2.152   7.695  0.2229 -0.3238 -2.3638
24217SOL    HW275544   1.036   2.004   7.714  0.5116 -0.0088  1.1685
24218SOL     OW75545   7.416   7.313   6.355  0.4543 -0.3608  0.2033
24218SOL    HW175546   7.334   7.345   6.393  0.9923 -0.9001  1.8962
24218SOL    HW275547   7.468   7.284   6.430  1.2344 -2.2877 -0.9954
24219SOL     OW75548   1.424   3.561   5.179 -0.4899  0.4840 -0.0513
24219SOL    HW175549   1.504   3.609   5.157  0.5333 -0.6534  1.0175
24219SOL    HW275550   1.454   3.491   5.237 -2.2311 -0.1701  0.1018
24220SOL     OW75551   0.043   9.491   2.451 -0.5547 -0.1414 -0.5148
24220SOL    HW175552   0.018   9.434   2.524 -0.2722  0.0230 -0.2883
24220SOL    HW275553   0.120   9.538   2.483 -1.6801  1.5064 -0.1114
24221SOL     OW75554   1.365   9.612   1.103  0.8310  0.0103 -0.0500
24221SOL    HW175555   1.295   9.549   1.121  0.9013 -0.2719 -0.7493
24221SOL    HW275556   1.445   9.560   1.098  1.1092  0.3425  0.8118
24222SOL     OW75557   7.899   2.411   4.700 -0.4163 -0.2021 -0.1515
24222SOL    HW175558   7.924   2.472   4.769 -1.4007 -1.4867  1.4125
24222SOL    HW275559   7.813   2.379   4.726  0.5813 -3.2455 -0.1859
24223SOL     OW75560   3.725   9.443   5.585 -0.2203 -0.8834 -0.2798
24223SOL    HW175561   3.763   9.425   5.499  1.9364 -0.8961  0.6175
24223SOL    HW275562   3.725   9.539   5.592 -0.0367 -0.8933 -0.1442
24224SOL     OW75563   6.856   9.465   5.900  0.3611 -0.5433 -0.3543
24224SOL    HW175564   6.901   9.392   5.944  1.6405  0.7769  0.6206
24224SOL    HW275565   6.874   9.452   5.807  0.5032 -1.5059 -0.2090
24225SOL     OW75566   1.411   5.227   3.167  0.0208  0.4726 -0.6336
24225SOL    HW175567   1.352   5.153   3.158  0.9016 -0.3935  0.4519
24225SOL    HW275568   1.430   5.255   3.077 -2.6360  1.3147 -1.0230
24226SOL     OW75569   9.014   6.707   3.685 -0.2575 -0.3125 -0.5733
24226SOL    HW175570   9.094   6.656   3.703 -1.5793 -2.1927  0.3471
24226SOL    HW275571   9.017   6.724   3.591  0.6516 -1.4231 -0.7736
24227SOL     OW75572   9.130   4.146   3.519  0.3987 -0.0369  0.0082
24227SOL    HW175573   9.140   4.158   3.425 -1.5573  1.4293 -0.0810
24227SOL    HW275574   9.162   4.057   3.536  0.6357 -0.3850 -2.0454
24228SOL     OW75575   8.336   0.504   5.894 -0.1708 -0.4255 -0.3268
24228SOL    HW175576   8.294   0.589   5.907 -1.6474 -1.2743  0.7739
24228SOL    HW275577   8.414   0.507   5.950 -0.1040  0.2721 -0.4493
24229SOL     OW75578   6.286   9.112   2.015 -0.1124 -0.3052 -0.5555
24229SOL    HW175579   6.241   9.149   1.939  1.7466 -0.3569 -1.7529
24229SOL    HW275580   6.357   9.059   1.977 -0.9832 -2.8601  1.1564
24230SOL     OW75581   9.343   0.255   6.747  0.4135  0.4113  0.4361
24230SOL    HW175582   9.331   0.163   6.723 -0.4219  0.1862  1.6122
24230SOL    HW275583   9.313   0.304   6.671 -1.3471 -0.2748  0.6412
24231SOL     OW75584   5.836   8.818   7.355 -0.0991  0.0048  0.3529
24231SOL    HW175585   5.789   8.784   7.431 -0.1651 -1.3122 -0.2466
24231SOL    HW275586   5.768   8.835   7.290 -0.0647  1.3288  0.6473
24232SOL     OW75587   6.484   0.366   2.326  0.3699 -0.1953 -0.6742
24232SOL    HW175588   6.527   0.387   2.409  1.1761  1.2509 -1.4191
24232SOL    HW275589   6.509   0.276   2.308  0.6591 -0.3328  0.3752
24233SOL     OW75590   1.778   9.577   6.857 -0.0741 -0.4876  0.2868
24233SOL    HW175591   1.867   9.611   6.872  0.5639 -1.7083 -0.5530
24233SOL    HW275592   1.759   9.600   6.766 -0.6782 -0.1444  0.4934
24234SOL     OW75593   6.647   9.348   7.597  0.3485 -0.3195 -0.0155
24234SOL    HW175594   6.641   9.257   7.627  0.3941 -0.5648 -0.7202
24234SOL    HW275595   6.614   9.400   7.670 -0.5678 -0.9688  0.0408
24235SOL     OW75596   2.876   1.359   6.911 -0.0399  0.5298  0.2545
24235SOL    HW175597   2.826   1.278   6.921  0.0540  0.4802  0.3226
24235SOL    HW275598   2.874   1.399   6.998  0.5065  0.2559  0.4002
24236SOL     OW75599   6.523   7.279   6.986 -0.0570  0.5664  0.4839
24236SOL    HW175600   6.510   7.373   6.978 -1.6221  0.3820  0.5239
24236SOL    HW275601   6.455   7.251   7.048  1.3292 -0.3842  1.6519
24237SOL     OW75602   2.238   0.052   0.166  0.0595 -0.0471 -0.0492
24237SOL    HW175603   2.213   0.128   0.113  0.5297  0.4878  0.4785
24237SOL    HW275604   2.159   0.030   0.215  0.6010  1.7938  1.8038
24238SOL     OW75605   7.103   2.512   8.922 -0.3066  0.0358 -0.1530
24238SOL    HW175606   7.140   2.430   8.889 -1.8484 -0.8399  0.1995
24238SOL    HW275607   7.101   2.501   9.017 -0.6686  0.4193 -0.1124
24239SOL     OW75608   8.490   3.687   6.551  0.0776  0.3855 -0.2143
24239SOL    HW175609   8.541   3.609   6.528  0.4954  0.8512 -0.9011
24239SOL    HW275610   8.554   3.758   6.549 -0.7756  1.1514 -2.0877
24240SOL     OW75611   1.437   4.566   1.431 -0.5681 -0.4180  0.5050
24240SOL    HW175612   1.403   4.482   1.399  0.9357 -0.2228 -1.9079
24240SOL    HW275613   1.531   4.562   1.413 -0.5104  1.9414 -0.0796
24241SOL     OW75614   9.318   8.927   5.179  0.1165  0.3928  0.2092
24241SOL    HW175615   9.288   8.968   5.098 -0.0763  2.4622  1.2669
24241SOL    HW275616   9.407   8.896   5.159 -1.0194 -2.0020 -1.6712
24242SOL     OW75617   2.482   4.257   6.979  0.4000  0.4556  0.0763
24242SOL    HW175618   2.531   4.225   6.903 -0.5999  0.5974 -0.6549
24242SOL    HW275619   2.530   4.334   7.008  2.6855 -1.4523  1.6753
24243SOL     OW75620   4.853   3.157   2.493  0.0234  0.0016  0.3412
24243SOL    HW175621   4.814   3.071   2.501 -0.1737  0.0223 -0.3304
24243SOL    HW275622   4.934   3.152   2.544 -0.5498 -0.2165  1.2643
24244SOL     OW75623   4.328   9.184   2.863 -0.0207  0.2932  0.0107
24244SOL    HW175624   4.351   9.255   2.922  0.8272 -0.1770  0.2634
24244SOL    HW275625   4.393   9.190   2.793 -0.4247  0.2431 -0.3728
24245SOL     OW75626   1.325   5.380   4.233 -0.3733 -0.0352 -0.6397
24245SOL    HW175627   1.336   5.457   4.289 -0.6877  2.0449 -3.2635
24245SOL    HW275628   1.255   5.404   4.172 -0.4916 -2.4317 -1.5748
24246SOL     OW75629   5.658   6.995   8.799  0.0267 -0.3351 -0.1439
24246SOL    HW175630   5.667   6.987   8.894  0.1514  0.3142 -0.0936
24246SOL    HW275631   5.660   7.089   8.782 -1.3573 -0.3757 -0.6704
24247SOL     OW75632   6.922   8.602   9.461  0.0878  0.2102 -0.1800
24247SOL    HW175633   6.937   8.694   9.439 -1.0823  0.4613 -0.0267
24247SOL    HW275634   6.840   8.603   9.511  0.0061 -0.9215 -0.2659
24248SOL     OW75635   1.512   4.475   7.675  0.2826  0.2890  0.7347
24248SOL    HW175636   1.465   4.490   7.757  1.0143 -1.0518  1.4380
24248SOL    HW275637   1.599   4.446   7.702  0.5411 -0.1693 -0.5180
24249SOL     OW75638   6.641   7.546   0.404 -0.3148  0.3610 -0.1924
24249SOL    HW175639   6.701   7.619   0.385 -0.7749  1.5442  2.4093
24249SOL    HW275640   6.618   7.511   0.318  1.7988  1.7449 -1.4259
24250SOL     OW75641   4.551   0.210   1.307  0.3977 -0.4627  0.2593
24250SOL    HW175642   4.522   0.192   1.396  0.3047  0.0471  0.3370
24250SOL    HW275643   4.623   0.272   1.317  1.6008 -1.7858  0.0730
24251SOL     OW75644   4.606   4.235   5.409  0.0702 -0.2253  0.8313
24251SOL    HW175645   4.647   4.237   5.322 -1.8708  0.4316 -0.1330
24251SOL    HW275646   4.543   4.163   5.404 -0.1927 -0.0590  1.6208
24252SOL     OW75647   1.250   1.674   1.738 -0.0378  0.6050 -0.4530
24252SOL    HW175648   1.169   1.714   1.707  1.1871  3.3817 -0.3010
24252SOL    HW275649   1.279   1.618   1.666  0.0865  2.9262 -2.2848
24253SOL     OW75650   7.354   2.737   3.517  0.4124 -0.0231  0.4267
24253SOL    HW175651   7.318   2.667   3.572 -1.9549  1.6518  1.1704
24253SOL    HW275652   7.440   2.754   3.554 -0.8265  0.5808  3.3025
24254SOL     OW75653   0.839   8.006   4.595  0.1920  0.6142  0.2086
24254SOL    HW175654   0.834   8.084   4.650  0.5699  0.5796  0.2946
24254SOL    HW275655   0.893   8.033   4.520  0.1328  0.5039  0.1264
24255SOL     OW75656   2.155   2.092   5.257  0.0616 -0.2051  0.5845
24255SOL    HW175657   2.138   2.043   5.338 -0.0786 -0.2968  0.5005
24255SOL    HW275658   2.068   2.122   5.229 -0.1675 -1.7527 -0.5340
24256SOL     OW75659   6.881   5.036   2.873 -0.1229  0.1237  0.1998
24256SOL    HW175660   6.976   5.042   2.877 -0.2320  1.8725  0.9678
24256SOL    HW275661   6.852   5.046   2.963 -1.0552  0.1025 -0.0852
24257SOL     OW75662   2.390   1.103   2.689 -0.7521  0.0956 -0.4088
24257SOL    HW175663   2.434   1.054   2.620  0.7145 -0.2715  0.7320
24257SOL    HW275664   2.300   1.112   2.659 -0.3582 -0.8104 -1.9459
24258SOL     OW75665   0.100   3.686   3.685 -0.3608 -0.1416 -0.0206
24258SOL    HW175666   0.114   3.592   3.669  1.7615  0.3528 -1.5812
24258SOL    HW275667   0.116   3.727   3.600  1.8742  1.8654  1.2242
24259SOL     OW75668   4.489   3.585   8.779 -0.4254  0.5175 -0.6476
24259SOL    HW175669   4.514   3.671   8.746  0.6762  1.9681  3.3759
24259SOL    HW275670   4.572   3.538   8.789 -0.7524  0.0070 -0.2913
24260SOL     OW75671   2.460   2.773   8.759  0.1415  0.2233 -0.5051
24260SOL    HW175672   2.380   2.825   8.745 -0.8105 -1.1852 -0.5600
24260SOL    HW275673   2.432   2.683   8.743  2.0313 -0.2192 -1.6425
24261SOL     OW75674   7.327   4.595   1.958 -0.4969  0.4344  0.6970
24261SOL    HW175675   7.311   4.593   1.863  1.3258 -1.3292  0.3495
24261SOL    HW275676   7.399   4.658   1.968 -1.4000  1.4372  1.0834
24262SOL     OW75677   3.179   5.376   3.700  0.0408  0.0837 -0.3935
24262SOL    HW175678   3.241   5.435   3.741  1.3200 -1.3702 -0.1690
24262SOL    HW275679   3.230   5.298   3.678 -1.6427 -1.0571 -0.4379
24263SOL     OW75680   7.962   0.869   9.092  0.2346  0.2846  0.1925
24263SOL    HW175681   7.894   0.928   9.125  1.0273  0.9767  0.6092
24263SOL    HW275682   7.921   0.782   9.094 -0.8703  0.7782 -0.2227
24264SOL     OW75683   0.638   1.155   8.924 -0.4642  0.3337 -0.4438
24264SOL    HW175684   0.629   1.091   8.994  0.0817  2.2456  1.4672
24264SOL    HW275685   0.591   1.115   8.850 -1.1021 -1.7435  0.9687
24265SOL     OW75686   7.623   7.099   1.761 -0.1467  0.1518  0.3750
24265SOL    HW175687   7.543   7.103   1.709  0.7410  1.5720 -0.9496
24265SOL    HW275688   7.596   7.128   1.848 -0.9395  1.4576 -0.2660
24266SOL     OW75689   8.105   3.136   5.402 -0.2943  0.3054  0.1542
24266SOL    HW175690   8.057   3.085   5.467 -0.8426 -1.7630 -1.7186
24266SOL    HW275691   8.184   3.085   5.386 -0.3555  0.5610 -1.0483
24267SOL     OW75692   1.170   4.708   7.100  0.1470 -0.0819 -0.4945
24267SOL    HW175693   1.124   4.653   7.163  0.4469 -0.5301 -0.6589
24267SOL    HW275694   1.160   4.663   7.016 -0.7697  0.8246 -0.8916
24268SOL     OW75695   4.552   5.059   6.833 -0.2235  0.1477  0.2038
24268SOL    HW175696   4.623   5.017   6.784 -0.0252 -0.8979  1.3433
24268SOL    HW275697   4.581   5.150   6.844  0.2949  0.0795 -0.5214
24269SOL     OW75698   8.851   1.572   6.921  0.4485  0.0081 -0.4715
24269SOL    HW175699   8.811   1.640   6.866  0.3017 -0.1481 -0.5584
24269SOL    HW275700   8.796   1.495   6.907  1.8675 -0.7747 -2.0721
24270SOL     OW75701   4.863   0.607   2.396  0.1263 -0.0474  0.6130
24270SOL    HW175702   4.850   0.657   2.316  0.7661  0.9992  1.1381
24270SOL    HW275703   4.774   0.584   2.424 -0.2943  1.8135  0.9547
24271SOL     OW75704   0.510   1.898   8.655 -0.6420  0.0068  0.3593
24271SOL    HW175705   0.472   1.932   8.736  2.4821  2.2194  1.1382
24271SOL    HW275706   0.474   1.955   8.587 -1.2426 -0.1106  0.5705
24272SOL     OW75707   5.408   0.143   7.232  0.2338  0.0984  0.5963
24272SOL    HW175708   5.438   0.112   7.146  0.1434  0.5425  0.4053
24272SOL    HW275709   5.405   0.064   7.286 -0.3304 -0.2872  0.0090
24273SOL     OW75710   5.265   8.856   0.477 -0.0236  0.3470  0.2370
24273SOL    HW175711   5.331   8.893   0.417 -0.0200  0.7356  0.4806
24273SOL    HW275712   5.269   8.912   0.554 -0.8759  0.5663  0.1227
24274SOL     OW75713   6.756   2.956   8.123 -0.0771 -0.2488 -0.3319
24274SOL    HW175714   6.779   2.900   8.049 -1.5325 -1.9073  0.4068
24274SOL    HW275715   6.661   2.945   8.133 -0.1090  0.9184  1.0205
24275SOL     OW75716   3.306   9.176   9.632 -0.1523  0.0794  0.4264
24275SOL    HW175717   3.327   9.232   9.707  1.0323  1.7333 -1.0434
24275SOL    HW275718   3.238   9.224   9.584 -0.1632 -0.4456 -0.1056
24276SOL     OW75719   5.333   0.682   3.095  0.0170  0.1538  0.2431
24276SOL    HW175720   5.244   0.714   3.078  1.1060  3.1255 -0.5718
24276SOL    HW275721   5.342   0.685   3.190 -0.8224 -0.4100  0.3474
24277SOL     OW75722   2.391   1.883   2.858  0.3066  0.0460 -0.3548
24277SOL    HW175723   2.421   1.797   2.827 -0.6797 -0.3427 -0.2756
24277SOL    HW275724   2.305   1.865   2.898  1.0662  0.7030  1.6965
24278SOL     OW75725   3.639   4.823   1.210  0.4026  0.0893  0.5730
24278SOL    HW175726   3.731   4.797   1.219  0.8335 -0.1910 -3.1161
24278SOL    HW275727   3.590   4.741   1.219  0.8106 -0.2863 -0.5673
24279SOL     OW75728   3.688   1.381   5.847 -1.0524  0.2132  0.4153
24279SOL    HW175729   3.775   1.415   5.824  0.0036 -1.4001  1.7991
24279SOL    HW275730   3.653   1.348   5.765  0.1353 -0.1455  0.0316
24280SOL     OW75731   7.345   8.715   7.271 -0.0758  0.6028 -0.5863
24280SOL    HW175732   7.272   8.676   7.319  0.7761 -0.3673 -0.0444
24280SOL    HW275733   7.400   8.641   7.246  1.1982  1.3842 -0.1906
24281SOL     OW75734   4.815   7.143   3.146  0.4856 -0.1968  0.1964
24281SOL    HW175735   4.790   7.232   3.123 -1.5976 -1.0683 -1.1073
24281SOL    HW275736   4.868   7.112   3.073  1.2425 -0.0481  0.6654
24282SOL     OW75737   7.065   1.295   0.904 -1.1162 -0.7107 -0.2690
24282SOL    HW175738   6.971   1.287   0.921 -1.4304 -1.4474 -2.1301
24282SOL    HW275739   7.082   1.234   0.832  1.2166 -2.1895  1.3565
24283SOL     OW75740   3.889   8.326   7.111  0.0637  0.0710 -0.5668
24283SOL    HW175741   3.983   8.328   7.124  0.2080  2.0597 -1.4747
24283SOL    HW275742   3.875   8.263   7.040  0.4960 -1.4609  0.6585
24284SOL     OW75743   0.973   1.699   5.885 -0.0772 -0.0040 -0.2151
24284SOL    HW175744   0.958   1.728   5.795 -1.2855  0.2082  0.0291
24284SOL    HW275745   1.004   1.778   5.930  1.8363 -0.4281 -0.7131
24285SOL     OW75746   3.282   7.201   2.587  0.6527  0.2406 -0.3275
24285SOL    HW175747   3.222   7.132   2.615  0.5497  0.7880  0.8801
24285SOL    HW275748   3.293   7.186   2.493 -0.6044 -0.4541 -0.3960
24286SOL     OW75749   2.475   5.191   6.394 -0.1292  0.5767  0.3686
24286SOL    HW175750   2.391   5.148   6.374 -1.3953  0.3609  5.0237
24286SOL    HW275751   2.529   5.121   6.431  0.4370  1.5834  1.4964
24287SOL     OW75752   8.924   0.619   3.501  1.0808 -0.7663  0.1570
24287SOL    HW175753   8.832   0.607   3.524  1.2028 -1.4603  0.2939
24287SOL    HW275754   8.924   0.629   3.406  0.6100  1.8002  0.3511
24288SOL     OW75755   5.695   6.108   1.774 -0.0216  0.6849 -0.2783
24288SOL    HW175756   5.738   6.024   1.788  0.1032  0.6750 -0.6973
24288SOL    HW275757   5.619   6.088   1.719  1.5254  1.1743 -2.8040
24289SOL     OW75758   4.818   1.030   6.604 -0.4789  0.4269 -0.2769
24289SOL    HW175759   4.773   0.947   6.618 -1.6644  1.0756 -0.0468
24289SOL    HW275760   4.851   1.026   6.515 -0.8227 -0.1613 -0.3773
24290SOL     OW75761   3.638   4.073   0.378  0.0846 -0.3961 -0.6865
24290SOL    HW175762   3.601   4.097   0.464  2.1743 -0.5519  0.3174
24290SOL    HW275763   3.722   4.119   0.375  0.2290 -0.7385 -2.4948
24291SOL     OW75764   3.601   4.651   8.199  0.1371  0.1452  0.4693
24291SOL    HW175765   3.647   4.694   8.271  0.2925  0.4941  0.1643
24291SOL    HW275766   3.648   4.679   8.120 -0.9516  0.9848  0.0894
24292SOL     OW75767   0.634   0.572   2.018 -0.6603 -0.6621  0.0458
24292SOL    HW175768   0.581   0.495   2.038 -0.0953 -0.8916  0.6623
24292SOL    HW275769   0.711   0.537   1.974 -0.0250 -0.5356  1.0364
24293SOL     OW75770   9.597   7.809   7.136  0.7602  0.8519  0.4296
24293SOL    HW175771   9.583   7.892   7.090 -0.7470 -0.0363 -0.7998
24293SOL    HW275772   9.624   7.748   7.067  1.4359  0.2049  1.2516
24294SOL     OW75773   3.753   3.782   0.394  0.2670  0.2765  0.7549
24294SOL    HW175774   3.700   3.711   0.431 -0.3363  0.6381  0.5988
24294SOL    HW275775   3.689   3.848   0.365  0.8262  1.1392  1.4133
24295SOL     OW75776   0.920   8.899   1.983 -0.2586 -0.0824  0.2291
24295SOL    HW175777   0.851   8.923   1.921  0.6144  0.5726 -0.5338
24295SOL    HW275778   0.925   8.973   2.044  1.2663  0.9874 -1.0894
24296SOL     OW75779   0.767   9.050   4.916  0.1171 -0.1520  0.6572
24296SOL    HW175780   0.816   8.985   4.967  0.5272 -0.8467 -0.5965
24296SOL    HW275781   0.833   9.092   4.861 -0.7326 -1.6857 -1.6807
24297SOL     OW75782   5.251   5.095   3.862  0.5983  0.1676  0.8159
24297SOL    HW175783   5.228   5.025   3.800 -2.0644 -0.2053  2.0778
24297SOL    HW275784   5.178   5.156   3.858  1.3615  1.2241  2.0830
24298SOL     OW75785   2.496   7.640   3.201  0.0698  0.9112  0.4164
24298SOL    HW175786   2.577   7.688   3.217  0.0447  0.5120  1.8781
24298SOL    HW275787   2.471   7.664   3.112  0.6273  2.7354  0.7158
24299SOL     OW75788   3.491   7.852   0.305 -0.5954  0.2203  0.5315
24299SOL    HW175789   3.452   7.938   0.323 -0.9986 -0.1148  1.2898
24299SOL    HW275790   3.579   7.872   0.273 -1.4528  1.0175 -1.5384
24300SOL     OW75791   9.279   5.012   8.585  0.3110 -0.6950  0.8036
24300SOL    HW175792   9.367   4.997   8.551  0.2780 -0.3584  0.5603
24300SOL    HW275793   9.271   4.953   8.660  1.0744 -0.0670  1.3991
24301SOL     OW75794   5.136   9.162   1.555 -0.1056  0.0731  0.3479
24301SOL    HW175795   5.060   9.110   1.579  0.0338  0.4149  1.6194
24301SOL    HW275796   5.204   9.098   1.536 -0.8217 -0.2449 -1.2743
24302SOL     OW75797   1.274   3.320   5.629  0.1154  0.1522 -0.8655
24302SOL    HW175798   1.222   3.279   5.698 -0.1252  2.9494  0.7661
24302SOL    HW275799   1.227   3.299   5.548  0.0466 -2.6821 -0.1912
24303SOL     OW75800   0.894   0.824   8.639  0.4805 -0.5522  0.0205
24303SOL    HW175801   0.942   0.848   8.560 -0.9646  1.3817 -0.3374
24303SOL    HW275802   0.953   0.848   8.711  0.5731  0.5952 -0.4271
24304SOL     OW75803   4.075   2.842   1.180 -0.5484  0.8973 -0.2547
24304SOL    HW175804   4.126   2.914   1.144  0.2861  0.5530  0.1974
24304SOL    HW275805   4.126   2.764   1.158  0.3404  0.7166  2.1570
24305SOL     OW75806   5.694   2.874   6.461  0.2488 -0.2689 -1.1572
24305SOL    HW175807   5.688   2.958   6.507  0.1160 -0.2090 -1.2812
24305SOL    HW275808   5.774   2.834   6.494 -0.3138 -0.6360 -0.1980
24306SOL     OW75809   6.235   9.455   4.775  0.4065 -0.6784  0.5502
24306SOL    HW175810   6.161   9.415   4.821 -0.0098 -0.3303  0.1805
24306SOL    HW275811   6.276   9.512   4.840  0.7851 -1.4128  0.9727
24307SOL     OW75812   7.504   4.005   4.916 -0.4752 -0.1911  0.2822
24307SOL    HW175813   7.495   4.096   4.886  0.9995 -0.5964 -1.5801
24307SOL    HW275814   7.434   3.994   4.979 -1.0107  2.0982  0.1829
24308SOL     OW75815   0.699   6.133   5.669  0.5815 -0.3038 -0.2078
24308SOL    HW175816   0.747   6.051   5.662  0.6700 -0.2717  0.0093
24308SOL    HW275817   0.695   6.167   5.579 -0.7840 -1.2931 -0.5708
24309SOL     OW75818   6.760   6.855   7.666  0.3361  0.3318  0.1076
24309SOL    HW175819   6.795   6.771   7.637  1.6089  0.8790 -0.0093
24309SOL    HW275820   6.801   6.871   7.751  1.3785  1.5497 -0.5825
24310SOL     OW75821   6.917   6.380   7.186  0.1682 -0.2024  0.1094
24310SOL    HW175822   6.958   6.457   7.226  0.5886 -0.7507  0.7556
24310SOL    HW275823   6.878   6.413   7.105 -1.1580  1.0372  1.2090
24311SOL     OW75824   3.854   9.442   7.685 -0.0228  0.4384 -0.3362
24311SOL    HW175825   3.885   9.531   7.702  3.1888 -0.6218 -0.0310
24311SOL    HW275826   3.879   9.393   7.763 -0.6194 -1.0057 -1.0222
24312SOL     OW75827   7.452   7.948   8.229  0.4847 -0.7659 -0.3731
24312SOL    HW175828   7.422   7.887   8.161 -1.9789  0.7778 -0.8107
24312SOL    HW275829   7.428   8.034   8.195  2.1522  0.3172  1.0622
24313SOL     OW75830   4.631   6.280   6.009  0.3282  0.8074  0.2452
24313SOL    HW175831   4.632   6.245   5.920  1.1480  1.8238 -0.1708
24313SOL    HW275832   4.721   6.310   6.024 -0.1297  1.9377  0.8848
24314SOL     OW75833   8.288   9.516   7.298 -0.6068  0.0400  0.2339
24314SOL    HW175834   8.193   9.520   7.309 -0.5069  1.4334  0.8499
24314SOL    HW275835   8.311   9.603   7.265  0.6049  0.2505  1.5260
24315SOL     OW75836   8.215   1.063   0.855 -0.0466  0.2587 -0.5222
24315SOL    HW175837   8.200   0.999   0.925  0.9392  0.9679  0.3688
24315SOL    HW275838   8.127   1.092   0.831 -0.4082  0.0735  0.5004
24316SOL     OW75839   3.471   4.329   4.965 -0.1086  0.3191 -0.3460
24316SOL    HW175840   3.445   4.414   5.002 -1.0782 -0.2583  0.3483
24316SOL    HW275841   3.389   4.292   4.931  0.3552 -0.2236 -0.9066
24317SOL     OW75842   7.996   0.234   0.322  0.6811 -0.1836 -0.6380
24317SOL    HW175843   8.076   0.221   0.272  0.9223 -0.7936 -0.1058
24317SOL    HW275844   7.967   0.145   0.344  1.9091  0.0601  2.3792
24318SOL     OW75845   9.394   5.420   0.363 -0.3654 -0.2074 -0.4737
24318SOL    HW175846   9.476   5.379   0.336 -1.4157 -1.9906 -1.0837
24318SOL    HW275847   9.374   5.383   0.449 -1.0005 -0.5123 -0.7430
24319SOL     OW75848   3.720   3.930   8.690  0.3344  0.0254  0.4012
24319SOL    HW175849   3.717   4.026   8.686 -0.2951  0.0013  0.2315
24319SOL    HW275850   3.790   3.912   8.753  1.1282  0.5772 -0.3006
24320SOL     OW75851   4.679   2.524   8.167 -0.4915  0.2125  0.2823
24320SOL    HW175852   4.638   2.598   8.123 -0.6693  0.1283  0.3063
24320SOL    HW275853   4.606   2.473   8.202 -0.3611  0.1427  0.4559
24321SOL     OW75854   7.554   5.825   4.802  0.1599  0.2216 -0.3032
24321SOL    HW175855   7.465   5.791   4.806  0.7802 -1.8658 -2.1774
24321SOL    HW275856   7.544   5.919   4.815 -2.2589 -0.0070 -0.0495
24322SOL     OW75857   7.404   1.123   2.289 -0.0518  0.5289 -0.3689
24322SOL    HW175858   7.349   1.160   2.358  0.6487  1.7763 -0.4549
24322SOL    HW275859   7.408   1.030   2.309  0.5609  0.9365  1.5747
24323SOL     OW75860   8.083   8.724   1.802  0.8173 -1.0656 -0.2545
24323SOL    HW175861   8.050   8.701   1.716  0.2233 -0.5533 -0.1756
24323SOL    HW275862   8.151   8.660   1.821  3.0574  0.5092 -2.3577
24324SOL     OW75863   1.883   3.786   4.205 -0.0822 -0.0467  0.0559
24324SOL    HW175864   1.942   3.838   4.259 -0.3624 -1.2211  1.5571
24324SOL    HW275865   1.928   3.778   4.121  1.1914  0.3561  0.6760
24325SOL     OW75866   0.156   1.295   7.193 -0.3205  0.4129 -0.0059
24325SOL    HW175867   0.064   1.322   7.193 -0.6945 -0.7808  0.1623
24325SOL    HW275868   0.199   1.356   7.133 -1.5305 -0.0109 -1.3679
24326SOL     OW75869   1.471   1.846   0.504  0.2746  0.7987 -0.2416
24326SOL    HW175870   1.451   1.822   0.414  0.9177  0.8230 -0.3956
24326SOL    HW275871   1.402   1.805   0.556 -1.1153  2.2256 -0.8805
24327SOL     OW75872   9.478   6.880   1.204 -0.0513  0.5222  0.7078
24327SOL    HW175873   9.415   6.918   1.142 -0.8089 -0.4297  0.8637
24327SOL    HW275874   9.470   6.934   1.283 -2.0432 -0.6441  1.3843
24328SOL     OW75875   3.833   1.171   4.537 -0.4686 -0.0057 -0.3175
24328SOL    HW175876   3.917   1.214   4.555 -0.6875 -0.2339  1.4521
24328SOL    HW275877   3.843   1.084   4.574 -0.3561 -1.2734 -3.0599
24329SOL     OW75878   9.267   3.155   2.018  0.5110  0.2767 -0.2155
24329SOL    HW175879   9.286   3.061   2.012  0.4206  0.2765 -0.4982
24329SOL    HW275880   9.331   3.196   1.959  0.5635  0.3940 -0.0766
24330SOL     OW75881   8.977   3.764   0.681 -0.2282  0.1476 -0.3953
24330SOL    HW175882   9.056   3.742   0.632 -0.0652 -0.6792  0.2342
24330SOL    HW275883   8.983   3.859   0.693  0.4367  0.1594 -0.7526
24331SOL     OW75884   5.722   3.692   6.591 -0.1659 -0.1147 -0.4613
24331SOL    HW175885   5.695   3.775   6.631  2.3671  0.4620  0.1974
24331SOL    HW275886   5.733   3.632   6.665  0.2330 -0.3485 -0.7054
24332SOL     OW75887   1.184   4.591   3.073 -0.3798 -0.2263  0.4131
24332SOL    HW175888   1.101   4.568   3.113  0.0970 -0.4876  1.2674
24332SOL    HW275889   1.249   4.581   3.143  0.2279  1.0186  0.0672
24333SOL     OW75890   2.375   3.427   9.442  0.0154  0.5832 -0.1904
24333SOL    HW175891   2.297   3.476   9.468  0.1303  0.6783 -0.0261
24333SOL    HW275892   2.373   3.430   9.346 -0.6728 -0.1831 -0.2125
24334SOL     OW75893   7.695   1.945   2.027 -0.0451 -0.0662 -0.2534
24334SOL    HW175894   7.619   2.003   2.026 -0.0963 -0.1048 -2.1074
24334SOL    HW275895   7.669   1.870   1.973  1.9133  0.7932 -2.5840
24335SOL     OW75896   0.322   1.415   9.598  0.7736 -0.8976 -0.1607
24335SOL    HW175897   0.311   1.449   9.686  0.6533 -0.6521 -0.2698
24335SOL    HW275898   0.274   1.333   9.597 -1.0442  0.1301 -0.6212
24336SOL     OW75899   9.573   6.180   7.338  0.4201  0.0701  0.2703
24336SOL    HW175900   9.527   6.189   7.255  0.0814 -0.0627  0.4396
24336SOL    HW275901   9.602   6.089   7.340  3.2229  0.8495 -1.1215
24337SOL     OW75902   4.269   5.019   4.289  0.0697 -0.6303 -0.7116
24337SOL    HW175903   4.356   4.981   4.304 -0.0007  0.1304  2.2697
24337SOL    HW275904   4.210   4.968   4.346 -0.5933  1.6402  0.7660
24338SOL     OW75905   5.804   5.358   6.576 -0.3730  0.1939  0.3671
24338SOL    HW175906   5.821   5.414   6.652 -3.6811 -1.7140  2.7964
24338SOL    HW275907   5.773   5.275   6.614 -1.4127 -1.1671 -3.0798
24339SOL     OW75908   8.496   0.576   5.104  0.0164 -0.3477 -0.0880
24339SOL    HW175909   8.526   0.666   5.115  1.5389 -0.9726  1.3140
24339SOL    HW275910   8.463   0.550   5.190  3.2480 -2.3001  0.7574
24340SOL     OW75911   2.291   5.705   1.715 -0.8632 -0.0885  0.3716
24340SOL    HW175912   2.335   5.655   1.645 -2.4280  2.5547 -2.7920
24340SOL    HW275913   2.253   5.638   1.772  1.4504 -2.4161 -0.6063
24341SOL     OW75914   3.789   4.021   5.570 -0.3848 -0.5019 -0.0303
24341SOL    HW175915   3.872   4.013   5.616 -0.1324  0.6658 -0.2513
24341SOL    HW275916   3.739   3.943   5.596  0.3774 -0.6904  0.9105
24342SOL     OW75917   4.344   5.564   1.631  0.3736  0.1215  0.4021
24342SOL    HW175918   4.306   5.514   1.703 -0.5998  0.4112  0.0982
24342SOL    HW275919   4.343   5.504   1.557 -0.4840  0.4694  0.1237
24343SOL     OW75920   2.748   6.544   7.503  0.1711  0.3658  0.5983
24343SOL    HW175921   2.761   6.538   7.598 -0.3531  1.2400  0.7370
24343SOL    HW275922   2.801   6.619   7.476 -0.0268  0.3926  0.2753
24344SOL     OW75923   2.202   3.103   0.623  0.2165  0.0998 -0.0032
24344SOL    HW175924   2.114   3.088   0.658  0.7592  2.4808  2.8786
24344SOL    HW275925   2.258   3.046   0.675  0.4789 -1.1907 -1.6336
24345SOL     OW75926   3.277   8.776   7.854 -0.0838  0.6382  0.0427
24345SOL    HW175927   3.305   8.716   7.923  0.4733  0.1852 -0.5664
24345SOL    HW275928   3.184   8.793   7.873 -0.7491 -1.7468 -0.6888
24346SOL     OW75929   4.520   6.275   6.542 -0.1063  0.5002 -0.4313
24346SOL    HW175930   4.496   6.225   6.464 -2.4870  0.8327  0.0189
24346SOL    HW275931   4.509   6.366   6.517  1.9768  0.7638 -0.5463
24347SOL     OW75932   1.626   5.706   0.198  0.0129 -0.0237 -0.5673
24347SOL    HW175933   1.644   5.747   0.283 -1.2920  0.6050 -0.5687
24347SOL    HW275934   1.706   5.718   0.148  1.0624 -1.0266  0.8011
24348SOL     OW75935   9.232   8.277   2.488  0.2704 -0.2448 -0.5380
24348SOL    HW175936   9.288   8.246   2.416  0.0318  0.7558 -1.1774
24348SOL    HW275937   9.147   8.290   2.447  0.1513  0.4200 -0.0803
24349SOL     OW75938   9.256   0.016   6.143 -0.3270 -0.0460 -0.6044
24349SOL    HW175939   9.314  -0.056   6.169  0.1581  0.1217 -1.1967
24349SOL    HW275940   9.272   0.026   6.049 -1.1317  0.1720 -0.7188
24350SOL     OW75941   0.529   8.165   5.078  0.1699  0.1166 -0.7163
24350SOL    HW175942   0.453   8.223   5.070 -0.4914 -0.5096  0.6495
24350SOL    HW275943   0.543   8.157   5.172  0.3760 -1.7742 -0.8697
24351SOL     OW75944   0.387   8.779   1.822 -0.0907  0.2834  0.0635
24351SOL    HW175945   0.414   8.789   1.913  2.3617  0.1643 -0.5807
24351SOL    HW275946   0.309   8.723   1.826  1.1481 -1.4460  1.9808
24352SOL     OW75947   4.145   3.224   2.161  0.1769 -0.1375  0.0468
24352SOL    HW175948   4.127   3.172   2.239  2.2107  1.1422  1.4721
24352SOL    HW275949   4.193   3.300   2.193  1.4786  0.2337 -2.5064
24353SOL     OW75950   4.421   1.569   5.302 -0.2535  0.3482  0.3133
24353SOL    HW175951   4.485   1.638   5.321  1.5697 -1.6957  2.0506
24353SOL    HW275952   4.460   1.520   5.230 -1.0885  0.5192 -0.2713
24354SOL     OW75953   7.752   6.142   6.557  0.3447  0.3533  0.1161
24354SOL    HW175954   7.737   6.221   6.609 -1.9861 -0.0462  0.1416
24354SOL    HW275955   7.797   6.082   6.617 -0.0118  0.8095  0.8510
24355SOL     OW75956   9.423   0.630   0.127  0.3461 -0.3561 -0.3349
24355SOL    HW175957   9.372   0.705   0.157  1.6308  0.2274  0.5134
24355SOL    HW275958   9.416   0.567   0.199  1.3507  0.0147  0.1142
24356SOL     OW75959   7.371   7.092   1.647  0.1410  0.4091 -0.2973
24356SOL    HW175960   7.403   7.020   1.594 -1.0499 -0.2819 -0.1199
24356SOL    HW275961   7.297   7.056   1.695 -0.6669  1.8206 -0.4098
24357SOL     OW75962   4.047   4.592   1.468  0.4999 -0.1403 -0.1185
24357SOL    HW175963   4.045   4.506   1.426  0.4642  0.2053 -0.8416
24357SOL    HW275964   4.107   4.581   1.542  0.2656 -0.8615 -0.0303
24358SOL     OW75965   7.662   7.550   3.101 -0.4806  0.3723  0.4068
24358SOL    HW175966   7.587   7.492   3.091 -0.3379 -0.3200  2.6660
24358SOL    HW275967   7.663   7.571   3.195  2.5694 -0.2539  0.6062
24359SOL     OW75968   2.819   4.099   3.920  0.0413 -0.4246  0.2235
24359SOL    HW175969   2.786   4.047   3.847 -0.5691 -0.1261  0.2798
24359SOL    HW275970   2.758   4.172   3.927  1.1702  0.6171 -0.2090
24360SOL     OW75971   2.481   5.152   8.834  0.1225  0.0509  0.0603
24360SOL    HW175972   2.569   5.190   8.844  0.6879 -0.1844 -3.0281
24360SOL    HW275973   2.495   5.070   8.787 -1.7897  0.3274 -1.1034
24361SOL     OW75974   5.870   6.695   7.005  0.8687  0.2320  0.2937
24361SOL    HW175975   5.957   6.661   6.982  0.9753  0.2808  0.6248
24361SOL    HW275976   5.819   6.686   6.924  0.9665 -0.4901  0.3071
24362SOL     OW75977   5.101   4.560   6.459  0.4297 -0.4541 -0.4686
24362SOL    HW175978   5.117   4.474   6.422  1.8935 -0.2108 -0.4771
24362SOL    HW275979   5.185   4.585   6.498  0.0797  1.0302 -0.6079
24363SOL     OW75980   5.455   1.399   9.477  0.3512  0.3915  0.2481
24363SOL    HW175981   5.402   1.345   9.536 -0.3137 -0.2932 -0.9387
24363SOL    HW275982   5.395   1.425   9.407  1.0500  1.4122  0.0043
24364SOL     OW75983   2.894   3.895   4.085  0.4411 -0.3150 -0.1820
24364SOL    HW175984   2.985   3.879   4.057 -0.3382 -1.0378 -2.5589
24364SOL    HW275985   2.864   3.966   4.028 -0.5128 -0.1300  0.5299
24365SOL     OW75986   2.875   7.059   4.639  0.3935 -0.2429  0.2135
24365SOL    HW175987   2.881   6.964   4.643 -0.5792 -0.2965  1.1375
24365SOL    HW275988   2.797   7.076   4.586  1.2300  0.0750 -0.9329
24366SOL     OW75989   9.234   5.307   1.068  0.1670  0.2622 -0.8875
24366SOL    HW175990   9.254   5.259   0.988  1.1975 -0.2367 -0.3551
24366SOL    HW275991   9.167   5.253   1.111  1.6790 -1.0591 -0.0448
24367SOL     OW75992   8.215   8.001   5.616 -0.6956 -0.7165 -0.3058
24367SOL    HW175993   8.206   8.094   5.594 -1.8089 -0.2160  1.8995
24367SOL    HW275994   8.304   7.993   5.651 -0.8742 -0.2681  0.2721
24368SOL     OW75995   8.954   9.162   1.803 -0.6108  0.0940  0.7874
24368SOL    HW175996   8.878   9.187   1.752  1.0403  1.4645 -1.1552
24368SOL    HW275997   9.011   9.239   1.801  2.4163 -1.9954 -1.0023
24369SOL     OW75998   6.496   5.192   1.500 -0.1256  0.0586 -0.4592
24369SOL    HW175999   6.488   5.097   1.510  1.0681 -0.1550 -1.3457
24369SOL    HW276000   6.464   5.228   1.583 -1.1977 -1.0772 -0.3555
24370SOL     OW76001   6.681   8.046   1.206 -0.2025  0.0646 -0.0624
24370SOL    HW176002   6.598   8.018   1.167 -0.3606  1.3025 -0.6438
24370SOL    HW276003   6.703   8.127   1.160  0.5943  0.5265  1.0961
24371SOL     OW76004   8.492   2.449   2.103  0.1532 -0.3147 -0.1675
24371SOL    HW176005   8.467   2.530   2.057  1.1675  0.0604 -0.0835
24371SOL    HW276006   8.453   2.379   2.051  1.0663  0.1095 -1.4736
24372SOL     OW76007   5.462   6.971   5.645  0.6942 -0.3464  0.6095
24372SOL    HW176008   5.516   7.001   5.571 -0.9055  1.6678  0.1756
24372SOL    HW276009   5.461   6.875   5.637 -0.6733 -0.1730 -2.9569
24373SOL     OW76010   8.720   8.573   4.992  0.1295  0.1049 -0.6980
24373SOL    HW176011   8.633   8.612   4.998 -0.3324 -0.7565 -1.4827
24373SOL    HW276012   8.745   8.583   4.901  0.2400 -0.9005 -0.7912
24374SOL     OW76013   0.482   4.408   0.870  0.1715  0.5748 -0.4958
24374SOL    HW176014   0.562   4.358   0.886  0.2871  0.6450 -0.8448
24374SOL    HW276015   0.513   4.490   0.832 -0.0827  0.4516 -0.9879
24375SOL     OW76016   0.034   4.126   0.972  0.4413  0.4119  0.5659
24375SOL    HW176017  -0.046   4.172   0.945  0.7333  0.3236 -0.5180
24375SOL    HW276018   0.101   4.194   0.972  0.3979  0.4648  1.3733
24376SOL     OW76019   5.648   6.237   6.737  0.0540 -0.0304  0.1146
24376SOL    HW176020   5.658   6.247   6.643  1.2771  1.4460  0.3519
24376SOL    HW276021   5.555   6.251   6.753  0.3521  3.6244 -0.5481
24377SOL     OW76022   9.188   4.911   6.230 -0.0041 -0.4589 -0.6141
24377SOL    HW176023   9.092   4.909   6.230 -0.0969 -0.7682  2.1017
24377SOL    HW276024   9.213   4.856   6.156 -1.8712  0.5560 -2.1149
24378SOL     OW76025   7.122   8.135   1.001 -0.7992 -0.2534  0.6210
24378SOL    HW176026   7.204   8.184   1.002 -0.2687 -0.9095 -2.0536
24378SOL    HW276027   7.058   8.193   1.043  0.5409  1.2320  0.6780
24379SOL     OW76028   6.830   6.966   5.498  0.2264  0.1219 -0.4465
24379SOL    HW176029   6.902   6.993   5.556 -1.4946  2.1420  0.9202
24379SOL    HW276030   6.839   7.022   5.421  0.3822  0.0308 -0.4959
24380SOL     OW76031   3.151   0.554   7.257  0.0128 -0.4197  0.3579
24380SOL    HW176032   3.172   0.511   7.339 -0.3172 -3.3396 -0.9568
24380SOL    HW276033   3.073   0.509   7.225 -0.3525  1.1778 -1.1784
24381SOL     OW76034   6.338   5.923   5.792 -0.1815  0.2302  0.5415
24381SOL    HW176035   6.326   5.918   5.697 -0.1045  0.0098  0.5414
24381SOL    HW276036   6.362   5.834   5.818 -3.0287 -0.4587  1.1759
24382SOL     OW76037   5.886   7.938   5.460 -0.2667 -0.3341  0.4481
24382SOL    HW176038   5.840   7.875   5.515  2.2128 -1.0173  1.9394
24382SOL    HW276039   5.822   7.964   5.394 -1.6706 -3.9091  0.1319
24383SOL     OW76040   1.975   5.909   9.547 -0.2432 -0.2687  0.1431
24383SOL    HW176041   1.921   5.917   9.469 -0.9507 -0.9528  0.5465
24383SOL    HW276042   2.011   5.997   9.560 -1.9925  0.4544  0.3789
24384SOL     OW76043   5.955   0.616   8.933 -0.7375 -0.0197 -0.4653
24384SOL    HW176044   6.040   0.654   8.955 -0.7807 -0.7475  1.0883
24384SOL    HW276045   5.913   0.682   8.877  0.6269  0.5743 -0.8243
24385SOL     OW76046   5.346   3.933   8.737 -0.3339 -0.2123  0.2315
24385SOL    HW176047   5.299   3.983   8.670 -0.2012 -0.7199 -0.2484
24385SOL    HW276048   5.281   3.917   8.805 -0.5435  0.0666  0.0983
24386SOL     OW76049   5.292   7.344   5.639  0.0729  0.7654  0.2593
24386SOL    HW176050   5.335   7.426   5.618  1.5221  0.2186  0.9380
24386SOL    HW276051   5.357   7.295   5.691 -1.0645 -0.4437  0.6095
24387SOL     OW76052   6.876   1.976   5.482  0.2399 -0.1540 -0.2055
24387SOL    HW176053   6.963   1.992   5.446 -0.0631 -0.9378 -1.3138
24387SOL    HW276054   6.849   2.060   5.518  0.2604  0.8823 -2.4563
24388SOL     OW76055   8.432   6.137   6.941 -0.2295 -0.2624 -0.0260
24388SOL    HW176056   8.407   6.083   7.015  0.2978 -0.4905 -0.0090
24388SOL    HW276057   8.528   6.132   6.939 -0.1666  0.6702 -0.0182
24389SOL     OW76058   8.448   6.238   5.826 -0.3274  0.0705  0.4426
24389SOL    HW176059   8.363   6.267   5.859 -0.6866  0.0415 -0.4191
24389SOL    HW276060   8.512   6.277   5.886 -0.9179  0.6168  0.7314
24390SOL     OW76061   2.070   1.191   8.737  0.6173  0.0213  0.1226
24390SOL    HW176062   2.126   1.249   8.687 -1.7192  1.5089 -0.9783
24390SOL    HW276063   2.026   1.138   8.671 -1.1304  0.6957  0.6823
24391SOL     OW76064   5.704   8.226   1.439 -0.1803 -0.2893 -0.1706
24391SOL    HW176065   5.622   8.212   1.487  0.0262 -1.2366 -0.0643
24391SOL    HW276066   5.682   8.290   1.371 -0.5686  0.8001  0.9475
24392SOL     OW76067   1.532   9.339   5.819  0.2251  0.1088 -0.1978
24392SOL    HW176068   1.582   9.267   5.780 -1.2699 -0.9983 -0.1506
24392SOL    HW276069   1.476   9.297   5.884  1.0196  1.6347  1.5757
24393SOL     OW76070   1.187   9.100   4.861  0.1573 -0.1406  0.1033
24393SOL    HW176071   1.192   9.005   4.875 -1.0015 -0.2622 -0.2452
24393SOL    HW276072   1.234   9.137   4.936  1.6465 -1.0020 -0.3586
24394SOL     OW76073   4.228   2.651   6.704  0.0371  0.7342  0.0447
24394SOL    HW176074   4.200   2.664   6.795 -1.0199  1.9608 -0.4277
24394SOL    HW276075   4.316   2.615   6.712 -0.5345 -0.4566  1.5677
24395SOL     OW76076   7.294   3.775   1.403  0.1743 -0.0994  0.1805
24395SOL    HW176077   7.250   3.796   1.321 -0.9514 -2.2796  0.1423
24395SOL    HW276078   7.241   3.816   1.471 -0.3108 -0.3382 -0.0493
24396SOL     OW76079   2.674   6.291   1.245  0.9254  0.0321  0.7423
24396SOL    HW176080   2.765   6.291   1.276  0.3170  0.0623  2.6671
24396SOL    HW276081   2.629   6.351   1.304 -0.9794 -2.4205  1.9707
24397SOL     OW76082   3.420   9.406   2.360  0.4190  0.1676  0.5811
24397SOL    HW176083   3.456   9.466   2.425 -0.7427  2.2427 -0.5525
24397SOL    HW276084   3.327   9.400   2.382  0.0196  0.8548 -0.7654
24398SOL     OW76085   6.326   5.559   5.274  0.3229  0.5952 -0.5234
24398SOL    HW176086   6.334   5.648   5.240 -0.4369  1.1701  0.7164
24398SOL    HW276087   6.400   5.548   5.333  1.2078 -0.1261 -1.7131
24399SOL     OW76088   3.133   0.074   6.242 -0.6829 -0.0139  0.1442
24399SOL    HW176089   3.054   0.119   6.212 -1.1553 -0.8979  0.0030
24399SOL    HW276090   3.108   0.035   6.326 -0.2389  0.1209  0.3395
24400SOL     OW76091   8.810   2.660   2.736  0.1968  0.0791  0.1621
24400SOL    HW176092   8.851   2.579   2.768  0.5025  0.7824  1.6129
24400SOL    HW276093   8.850   2.729   2.788 -1.8991  0.9307  0.7146
24401SOL     OW76094   2.652   0.429   0.647 -0.1141 -0.2135 -0.0170
24401SOL    HW176095   2.616   0.488   0.713 -1.1688 -0.3069 -0.4952
24401SOL    HW276096   2.576   0.387   0.607  0.5275 -0.5439 -0.9448
24402SOL     OW76097   7.748   1.771   0.423 -0.8323 -0.3295  0.1846
24402SOL    HW176098   7.793   1.769   0.508 -1.3781 -0.2017  0.4784
24402SOL    HW276099   7.811   1.812   0.364 -0.3374 -0.6693  0.4606
24403SOL     OW76100   8.452   2.433   6.316  0.2712  0.7182 -0.1721
24403SOL    HW176101   8.441   2.396   6.404 -1.3334 -3.4490 -1.8866
24403SOL    HW276102   8.387   2.504   6.312 -0.4161  0.2528  1.6647
24404SOL     OW76103   5.352   2.242   5.288 -0.0715 -0.1145  0.3232
24404SOL    HW176104   5.381   2.247   5.379  0.9261 -1.0813  0.0793
24404SOL    HW276105   5.322   2.152   5.276 -0.9319  0.2160 -0.0979
24405SOL     OW76106   5.883   6.587   2.364  0.4723  0.0747  0.5304
24405SOL    HW176107   5.923   6.602   2.278  1.6614 -1.1585  0.8373
24405SOL    HW276108   5.916   6.502   2.392 -1.8133 -0.6759  1.1661
24406SOL     OW76109   1.429   2.537   3.935 -0.2044  0.2215 -0.3668
24406SOL    HW176110   1.413   2.631   3.926  0.3908  0.3037 -0.6411
24406SOL    HW276111   1.436   2.522   4.029  1.2446  0.7401 -0.3590
24407SOL     OW76112   7.378   4.573   5.937 -0.1005  0.8314 -0.2032
24407SOL    HW176113   7.331   4.573   5.853 -1.8869  0.5640  0.7684
24407SOL    HW276114   7.468   4.598   5.913 -0.6114  0.9836 -2.1617
24408SOL     OW76115   7.579   8.641   3.134 -0.3314 -0.7548  0.2668
24408SOL    HW176116   7.665   8.599   3.143 -0.2631 -0.6827 -0.0348
24408SOL    HW276117   7.563   8.642   3.039 -0.6345 -0.7075  0.3187
24409SOL     OW76118   7.762   5.188   1.756 -0.1544  0.0614  0.1151
24409SOL    HW176119   7.834   5.192   1.818  0.4604 -1.3370 -0.4815
24409SOL    HW276120   7.804   5.180   1.670 -0.9916 -1.9674 -0.1508
24410SOL     OW76121   5.188   7.750   0.278 -0.3375  0.1960 -0.1039
24410SOL    HW176122   5.169   7.836   0.243  0.9773  0.1514 -0.9912
24410SOL    HW276123   5.267   7.763   0.332 -1.5970  0.0251  1.8912
24411SOL     OW76124   7.389   4.550   6.567 -0.1705  0.1021 -0.2917
24411SOL    HW176125   7.310   4.531   6.617  1.3070 -1.7676  1.5111
24411SOL    HW276126   7.438   4.612   6.622  0.5673 -0.3931 -0.3812
24412SOL     OW76127   9.517   6.012   9.029  0.3518  0.0836 -0.4922
24412SOL    HW176128   9.481   5.953   8.963 -1.0278  2.5913 -2.1344
24412SOL    HW276129   9.595   5.966   9.061 -0.3516 -2.3755 -1.9940
24413SOL     OW76130   1.108   2.638   8.573  0.2531  0.2939  0.3054
24413SOL    HW176131   1.138   2.728   8.569 -2.2520  1.1712 -2.2219
24413SOL    HW276132   1.145   2.597   8.494  0.7142 -0.6776  1.0106
24414SOL     OW76133   4.644   7.176   3.367  0.1784 -0.1788 -0.1478
24414SOL    HW176134   4.717   7.156   3.309  0.3316  1.7604 -0.6903
24414SOL    HW276135   4.567   7.140   3.322  0.3518  0.9271 -1.3770
24415SOL     OW76136   1.894   0.011   5.468  0.6104  0.1492 -0.3682
24415SOL    HW176137   1.965   0.070   5.491  0.6161  1.5857 -3.5723
24415SOL    HW276138   1.936  -0.072   5.448  1.4252  0.8956 -1.9101
24416SOL     OW76139   9.610   0.809   7.478  0.0946 -0.5371 -0.3458
24416SOL    HW176140   9.526   0.773   7.448 -0.3355 -0.5304  0.8194
24416SOL    HW276141   9.659   0.733   7.510  0.1258 -0.4065 -0.0804
24417SOL     OW76142   9.295   7.749   0.924  0.2920  0.0619  0.5562
24417SOL    HW176143   9.326   7.782   1.009  2.2632 -0.6386  0.1711
24417SOL    HW276144   9.215   7.702   0.944 -0.5559  1.8690  1.6589
24418SOL     OW76145   9.371   0.018   2.291 -0.0333 -0.0003  0.1688
24418SOL    HW176146   9.413   0.101   2.312 -0.2152 -0.1690  1.2652
24418SOL    HW276147   9.279   0.040   2.280  0.2456  0.3087 -1.8711
24419SOL     OW76148   5.064   1.220   0.593  0.1161  0.0624  0.1957
24419SOL    HW176149   5.097   1.250   0.509 -0.0487 -0.5413 -0.0873
24419SOL    HW276150   4.988   1.166   0.571  1.1592 -1.6504  0.5899
24420SOL     OW76151   7.504   6.953   4.315 -0.2270 -0.4960 -0.5051
24420SOL    HW176152   7.581   6.963   4.260 -0.6404  1.7429 -0.7836
24420SOL    HW276153   7.475   7.043   4.332 -2.0480 -1.2350  0.6079
24421SOL     OW76154   1.354   5.137   3.761  0.4750 -0.0458 -0.2443
24421SOL    HW176155   1.413   5.109   3.691  0.0322  0.6789 -0.9354
24421SOL    HW276156   1.408   5.192   3.817  1.1699 -1.6840  0.7399
24422SOL     OW76157   0.667   1.427   1.488  0.0192  0.0309  0.1388
24422SOL    HW176158   0.653   1.352   1.546 -3.3281 -0.8105 -1.4868
24422SOL    HW276159   0.682   1.388   1.402 -0.1835  1.2139 -0.4547
24423SOL     OW76160   3.485   1.527   4.131 -0.0015  0.0255 -0.1476
24423SOL    HW176161   3.562   1.566   4.088  0.4659 -0.6923  0.0158
24423SOL    HW276162   3.431   1.602   4.156  1.6030  0.6839  1.5406
24424SOL     OW76163   0.871   6.432   2.211 -0.2502 -0.2370 -0.3962
24424SOL    HW176164   0.881   6.428   2.116 -0.7315 -0.3032 -0.4495
24424SOL    HW276165   0.776   6.424   2.226 -0.0018 -2.9261  0.2062
24425SOL     OW76166   6.921   2.455   6.101 -0.1276  0.2419  0.0740
24425SOL    HW176167   6.943   2.378   6.154 -0.1271  0.5330  0.5054
24425SOL    HW276168   6.911   2.421   6.012 -2.2949 -0.6585  0.5902
24426SOL     OW76169   9.224   9.120   0.464 -0.1769  0.1840 -0.8957
24426SOL    HW176170   9.300   9.140   0.518 -0.1673 -0.7191 -0.5549
24426SOL    HW276171   9.169   9.198   0.468  0.0412  0.2892  0.0459
24427SOL     OW76172   7.243   2.629   7.564  0.3671  0.2853 -0.5742
24427SOL    HW176173   7.180   2.640   7.635 -0.4138 -0.5240 -1.1263
24427SOL    HW276174   7.326   2.661   7.600 -0.3134  1.2408  0.2106
24428SOL     OW76175   7.818   9.076   8.570  0.2339  0.4442 -0.6147
24428SOL    HW176176   7.804   9.008   8.636 -1.4619  0.7131 -0.6435
24428SOL    HW276177   7.733   9.084   8.526  0.7803  1.6531 -1.5006
24429SOL     OW76178   3.118   8.194   0.897  0.2330 -0.0060  0.3022
24429SOL    HW176179   3.133   8.109   0.938  2.1257  0.7429  1.2993
24429SOL    HW276180   3.185   8.251   0.935 -0.0915  1.5902 -1.3681
24430SOL     OW76181   0.183   8.225   6.964 -0.9761 -0.4107 -0.2612
24430SOL    HW176182   0.144   8.312   6.959  0.7626  0.4059 -0.3745
24430SOL    HW276183   0.248   8.223   6.894  0.8806 -0.7868  1.3616
24431SOL     OW76184   0.582   9.351   5.683 -0.3757  0.0228 -0.0395
24431SOL    HW176185   0.608   9.268   5.645  0.7803  1.0329 -1.5763
24431SOL    HW276186   0.514   9.384   5.624 -1.3271 -0.1304  0.9488
24432SOL     OW76187   1.495   2.886   0.167 -0.3629  0.1975  0.2288
24432SOL    HW176188   1.455   2.940   0.235  0.4590 -1.1019  1.8275
24432SOL    HW276189   1.589   2.899   0.178 -0.2107 -0.3003 -0.4294
24433SOL     OW76190   3.687   4.714   6.437  0.2067  0.2735  0.2038
24433SOL    HW176191   3.597   4.735   6.461  0.2813  0.6801  0.1352
24433SOL    HW276192   3.688   4.619   6.428 -0.3421  0.3122 -0.2995
24434SOL     OW76193   9.129   8.416   4.782  0.2332  0.6209 -0.0960
24434SOL    HW176194   9.105   8.353   4.850 -0.3926  0.1802 -0.7186
24434SOL    HW276195   9.157   8.494   4.831  0.7126 -0.0181  0.6797
24435SOL     OW76196   7.633   2.210   2.402 -0.7909  0.1203  0.0042
24435SOL    HW176197   7.688   2.223   2.324 -1.9148 -0.7360 -0.9786
24435SOL    HW276198   7.569   2.281   2.398  0.9011  1.8877  1.8432
24436SOL     OW76199   4.699   0.922   8.891  0.1870  0.6391 -0.0917
24436SOL    HW176200   4.754   0.981   8.840 -0.4828  0.9135 -0.5170
24436SOL    HW276201   4.735   0.925   8.979  0.9258  0.7070 -0.3899
24437SOL     OW76202   1.727   4.700   3.724  0.1605 -0.4419 -0.3595
24437SOL    HW176203   1.798   4.752   3.686  1.6730 -1.3361  1.1068
24437SOL    HW276204   1.758   4.677   3.811 -2.3139 -0.1942  0.6678
24438SOL     OW76205   6.028   5.996   0.896 -0.1130 -0.3248  0.3416
24438SOL    HW176206   6.069   6.051   0.963  0.9098 -2.1116  1.2518
24438SOL    HW276207   6.094   5.987   0.828 -0.5435  0.1321 -0.1483
24439SOL     OW76208   5.621   7.624   8.590 -0.1870 -0.1354 -0.5479
24439SOL    HW176209   5.571   7.582   8.520  1.1288 -1.9999 -0.4573
24439SOL    HW276210   5.596   7.716   8.587 -2.7005 -0.7802 -1.2352
24440SOL     OW76211   5.306   8.913   6.566  0.2383 -0.1119  0.7995
24440SOL    HW176212   5.325   8.907   6.659 -0.7179  0.2573  1.0320
24440SOL    HW276213   5.323   9.004   6.543  0.1292 -0.1164  0.6947
24441SOL     OW76214   3.872   7.356   8.723 -0.4054  0.4686 -0.1397
24441SOL    HW176215   3.836   7.358   8.811  1.0053 -1.0568  0.5117
24441SOL    HW276216   3.835   7.277   8.683 -2.2520  1.9316 -1.5287
24442SOL     OW76217   7.457   3.840   3.346 -0.3487  0.2485 -0.0079
24442SOL    HW176218   7.399   3.776   3.306  0.0518  0.8443 -1.6092
24442SOL    HW276219   7.402   3.916   3.363 -0.2310  0.5099 -0.7601
24443SOL     OW76220   3.002   2.056   5.947 -0.4540 -0.1106  0.1603
24443SOL    HW176221   3.035   2.043   5.857 -0.0431 -2.4326  0.5769
24443SOL    HW276222   2.932   1.991   5.956  0.6831 -1.1629  2.0391
24444SOL     OW76223   7.153   8.245   2.320  0.8523 -0.5248 -0.0135
24444SOL    HW176224   7.176   8.170   2.266 -2.2354 -1.1679 -0.6313
24444SOL    HW276225   7.060   8.232   2.343  0.4589  2.5616  0.7159
24445SOL     OW76226   6.797   9.006   8.374  0.0057 -0.2391 -0.0082
24445SOL    HW176227   6.817   9.099   8.368  1.2367 -0.4931 -0.0129
24445SOL    HW276228   6.826   8.969   8.291  0.2317 -0.7449  0.2878
24446SOL     OW76229   0.592   1.521   3.293 -0.2324 -0.3015 -0.1411
24446SOL    HW176230   0.667   1.531   3.235  0.0254  0.9455  0.3847
24446SOL    HW276231   0.525   1.480   3.239 -0.2662  1.5394 -1.5724
24447SOL     OW76232   8.582   5.813   2.711  0.1034 -0.1371 -0.1015
24447SOL    HW176233   8.660   5.819   2.767 -0.1235 -1.3021  0.3663
24447SOL    HW276234   8.510   5.836   2.769 -0.0472 -0.5102 -0.1392
24448SOL     OW76235   3.874   4.940   1.640 -0.1510  0.0625  0.1259
24448SOL    HW176236   3.932   4.864   1.646  0.2953  0.4068  0.3272
24448SOL    HW276237   3.825   4.939   1.723  0.2271  0.2808  0.3564
24449SOL     OW76238   7.975   2.301   6.925  0.1929  0.1560 -0.1807
24449SOL    HW176239   8.022   2.220   6.904 -2.2703 -0.6517 -3.4734
24449SOL    HW276240   7.898   2.272   6.974  0.4495  0.8132  0.6288
24450SOL     OW76241   5.055   4.543   3.438 -0.5170  0.1027  0.1983
24450SOL    HW176242   5.123   4.493   3.393  1.3290  1.6908  1.0663
24450SOL    HW276243   5.071   4.527   3.531 -3.3222 -1.9188  0.4835
24451SOL     OW76244   8.482   1.366   0.270 -0.5560 -0.0534  0.0627
24451SOL    HW176245   8.431   1.334   0.345 -1.5314  0.3454 -0.4132
24451SOL    HW276246   8.549   1.300   0.257 -1.9014 -1.4221 -0.2599
24452SOL     OW76247   0.173   0.079   7.861 -0.7824  0.3243 -0.0065
24452SOL    HW176248   0.248   0.052   7.807 -0.6860  1.1554 -0.2984
24452SOL    HW276249   0.140   0.158   7.818  0.4659  2.1455  2.1492
24453SOL     OW76250   8.294   7.243   3.330  0.0792 -0.4138  0.4585
24453SOL    HW176251   8.310   7.273   3.419  1.6322  0.2997 -0.0071
24453SOL    HW276252   8.326   7.153   3.328 -0.6500 -0.6803  0.8075
24454SOL     OW76253   7.919   9.419   4.809  0.4700 -0.1646  0.5130
24454SOL    HW176254   7.928   9.442   4.717 -0.2718  0.0963  0.4934
24454SOL    HW276255   7.828   9.391   4.817  0.7677 -1.0072  0.9919
24455SOL     OW76256   8.712   2.232   5.933 -0.5411 -0.3427 -0.0292
24455SOL    HW176257   8.659   2.311   5.930 -2.0215 -1.3155 -0.2914
24455SOL    HW276258   8.649   2.160   5.927  0.7187 -1.5592  0.6636
24456SOL     OW76259   6.337   0.866   0.188 -0.1005 -0.4880 -0.2487
24456SOL    HW176260   6.290   0.801   0.241  1.4659 -1.0685  0.5183
24456SOL    HW276261   6.269   0.926   0.157 -1.0138  0.8352  3.7194
24457SOL     OW76262   3.053   6.441   4.858 -0.1985 -0.1376  0.0568
24457SOL    HW176263   3.090   6.362   4.896  0.4283  0.1923  0.1479
24457SOL    HW276264   3.072   6.510   4.922 -0.7056  0.1001 -0.0356
24458SOL     OW76265   5.371   3.259   3.108 -0.4222  0.0226 -0.3052
24458SOL    HW176266   5.328   3.344   3.104  1.3787  1.1130  1.4604
24458SOL    HW276267   5.300   3.195   3.104 -1.8297  1.5941 -1.4468
24459SOL     OW76268   0.409   1.192   2.428 -0.5144  0.3381 -0.3687
24459SOL    HW176269   0.344   1.157   2.488  0.4617 -0.7463  0.0851
24459SOL    HW276270   0.461   1.116   2.402  0.5908  1.1855 -0.6913
24460SOL     OW76271   4.080   8.002   6.182  0.3946 -0.3748 -0.1945
24460SOL    HW176272   4.116   8.089   6.198 -0.1118  0.1574 -1.7916
24460SOL    HW276273   4.155   7.949   6.153  0.1964  0.4011 -2.3072
24461SOL     OW76274   2.393   1.076   0.862  0.0506 -0.4455  0.0476
24461SOL    HW176275   2.305   1.110   0.876 -0.3256 -1.8823  1.3827
24461SOL    HW276276   2.403   1.007   0.927  1.8097 -0.9775 -0.7297
24462SOL     OW76277   7.337   3.552   6.598 -0.2494  0.1720 -0.2981
24462SOL    HW176278   7.284   3.526   6.523 -0.6431  3.4343 -1.3081
24462SOL    HW276279   7.369   3.640   6.576  1.5780  0.3151  2.3699
24463SOL     OW76280   5.434   7.669   2.495  0.3624 -0.1204  0.6477
24463SOL    HW176281   5.452   7.577   2.477 -1.1192 -0.0795 -1.2535
24463SOL    HW276282   5.377   7.697   2.424  1.0914  2.3883  0.9561
24464SOL     OW76283   6.951   3.175   6.610 -0.1133 -0.4822 -0.2650
24464SOL    HW176284   7.009   3.213   6.545 -0.8530  0.3389 -0.4626
24464SOL    HW276285   6.958   3.234   6.686 -2.3828  0.9904 -1.0881
24465SOL     OW76286   8.129   2.216   0.596  0.4698 -0.5647 -0.2568
24465SOL    HW176287   8.105   2.252   0.511 -1.1577  0.6003  0.6334
24465SOL    HW276288   8.129   2.121   0.583 -4.5513 -0.7673 -0.5330
24466SOL     OW76289   9.397   3.476   7.545  1.0244  0.2691  0.1511
24466SOL    HW176290   9.311   3.465   7.585  1.3411 -0.0452  0.7629
24466SOL    HW276291   9.395   3.419   7.468 -0.0445  1.8516 -1.0495
24467SOL     OW76292   0.670   7.251   6.295  0.3413  0.3322 -0.0149
24467SOL    HW176293   0.711   7.201   6.366  0.1756  0.5957  0.2686
24467SOL    HW276294   0.671   7.341   6.326 -0.3893  0.3513 -0.0288
24468SOL     OW76295   8.013   2.345   4.252  0.7070 -0.0338  0.1550
24468SOL    HW176296   7.948   2.302   4.197 -0.5035 -0.4977  1.8697
24468SOL    HW276297   8.091   2.289   4.246  0.9933  0.4865 -1.8536
24469SOL     OW76298   0.231   1.596   9.384  0.0264  0.0272 -0.3830
24469SOL    HW176299   0.265   1.567   9.468 -1.8977 -1.6817 -0.1029
24469SOL    HW276300   0.203   1.515   9.341 -0.2750  0.9927 -2.0962
24470SOL     OW76301   0.030   2.006   8.459 -0.5676 -0.1676  0.0081
24470SOL    HW176302   0.039   2.102   8.455 -2.0894 -0.0439 -2.0729
24470SOL    HW276303   0.010   1.989   8.551 -1.7865  1.7132  0.1640
24471SOL     OW76304   7.368   1.261   3.914 -0.6700 -0.7840  0.0655
24471SOL    HW176305   7.371   1.260   4.010  0.3337 -1.5713  0.0409
24471SOL    HW276306   7.287   1.307   3.893  0.4861  2.0565  1.2716
24472SOL     OW76307   0.515   9.513   8.048  0.1397 -0.4043  0.2633
24472SOL    HW176308   0.572   9.566   7.993  0.5054 -0.3757  0.6708
24472SOL    HW276309   0.574   9.458   8.099 -0.2167 -2.9705 -1.8287
24473SOL     OW76310   2.108   1.917   0.411 -0.0185 -0.6376 -0.1214
24473SOL    HW176311   2.062   1.927   0.328  0.1928 -0.8712 -0.2662
24473SOL    HW276312   2.132   1.824   0.414  1.4154 -0.2929 -0.5535
24474SOL     OW76313   2.165   6.685   9.019  0.1261  0.1952 -0.4946
24474SOL    HW176314   2.127   6.734   8.946  0.3442  2.2145  0.6851
24474SOL    HW276315   2.112   6.606   9.025  0.0296  0.0169 -2.7413
24475SOL     OW76316   3.227   3.579   4.810  0.1520 -0.2765  0.4044
24475SOL    HW176317   3.232   3.561   4.904 -0.0720 -1.8566  0.1429
24475SOL    HW276318   3.314   3.555   4.776  0.5820  1.2778  0.3413
24476SOL     OW76319   6.179   5.123   6.325 -0.0798 -0.1751  0.2104
24476SOL    HW176320   6.156   5.122   6.232  1.3575  2.8094 -0.3171
24476SOL    HW276321   6.216   5.036   6.341 -1.9373 -1.3689 -1.5167
24477SOL     OW76322   4.729   2.005   6.728 -0.1746  0.4443 -0.1117
24477SOL    HW176323   4.646   1.959   6.746  0.2420 -0.4361 -0.3597
24477SOL    HW276324   4.702   2.088   6.690 -0.9504  0.1075 -0.3356
24478SOL     OW76325   2.005   2.168   4.885 -0.5242  0.1797  0.0986
24478SOL    HW176326   1.952   2.215   4.949  0.4714 -0.1321  1.1936
24478SOL    HW276327   2.063   2.113   4.937  1.3464  0.9851 -0.9940
24479SOL     OW76328   7.064   7.803   0.708 -0.3329  0.0726  0.6515
24479SOL    HW176329   7.159   7.792   0.700 -0.2423  1.3621 -0.4114
24479SOL    HW276330   7.051   7.834   0.798  0.4842  1.7397  0.2391
24480SOL     OW76331   6.503   9.091   9.011 -0.3785 -0.0812 -0.0193
24480SOL    HW176332   6.596   9.114   9.006 -0.1211 -1.1029 -0.0084
24480SOL    HW276333   6.485   9.084   9.105 -0.6677  0.8500  0.0117
24481SOL     OW76334   8.099   9.497   3.028 -0.2038  0.0979 -0.9598
24481SOL    HW176335   8.043   9.439   2.977 -1.9009  1.4447 -0.7029
24481SOL    HW276336   8.084   9.472   3.119 -0.8256  0.8049 -0.8572
24482SOL     OW76337   8.648   4.059   7.058 -0.5118 -0.2994  0.2373
24482SOL    HW176338   8.626   4.065   6.965  0.8454  1.2917 -0.0291
24482SOL    HW276339   8.691   3.974   7.067 -3.4410 -1.9433  0.1196
24483SOL     OW76340   1.016   9.493   3.172 -0.2435  0.6778  0.3523
24483SOL    HW176341   1.094   9.478   3.119 -1.1735 -0.1946 -0.8098
24483SOL    HW276342   1.039   9.458   3.258 -0.4103 -2.5994 -0.8158
24484SOL     OW76343   3.292   7.694   4.932  0.5871  0.4545 -0.3884
24484SOL    HW176344   3.341   7.746   4.997  2.5500  2.9987 -3.5796
24484SOL    HW276345   3.211   7.743   4.919 -1.3576 -1.7667  2.1919
24485SOL     OW76346   6.202   1.335   2.239  0.0255 -0.0546 -0.1081
24485SOL    HW176347   6.209   1.306   2.330 -0.7109  1.3062  0.4013
24485SOL    HW276348   6.147   1.269   2.197 -2.6399  1.1180  1.3119
24486SOL     OW76349   6.156   1.962   9.473  0.3383  0.2478 -0.7326
24486SOL    HW176350   6.185   1.900   9.406  1.7568 -0.9671  0.8895
24486SOL    HW276351   6.070   1.930   9.501  1.2000 -1.2882  0.3256
24487SOL     OW76352   1.668   3.423   0.327  0.6674  0.2335 -0.1746
24487SOL    HW176353   1.702   3.478   0.256  0.7493 -1.8887 -1.8748
24487SOL    HW276354   1.579   3.401   0.299  0.9907 -1.3108 -0.0691
24488SOL     OW76355   6.829   5.263   3.631  0.2452 -0.1122 -0.4691
24488SOL    HW176356   6.814   5.293   3.542 -0.5822  0.7568 -0.0529
24488SOL    HW276357   6.856   5.341   3.679 -0.0390 -0.4149  0.2045
24489SOL     OW76358   0.764   3.715   5.289 -0.2479 -0.7786  0.4795
24489SOL    HW176359   0.804   3.800   5.269 -0.0809 -0.8866  0.3551
24489SOL    HW276360   0.839   3.655   5.298 -0.3980 -1.0558 -0.0995
24490SOL     OW76361   2.346   4.985   7.481 -0.6400 -0.5605 -0.0016
24490SOL    HW176362   2.431   4.943   7.492 -1.4834 -2.4523 -0.2093
24490SOL    HW276363   2.286   4.912   7.463 -2.0565  0.8361 -1.2357
24491SOL     OW76364   5.131   7.921   0.610 -0.3217 -0.3086  0.3354
24491SOL    HW176365   5.150   8.003   0.654  0.1918 -0.3571  0.2122
24491SOL    HW276366   5.215   7.893   0.574 -0.7632 -0.1587 -0.8568
24492SOL     OW76367   0.825   6.848   5.101 -0.6021  0.4973 -0.4071
24492SOL    HW176368   0.742   6.818   5.063 -1.1786 -0.9649  1.8059
24492SOL    HW276369   0.803   6.870   5.192  1.4128  0.0656  0.2422
24493SOL     OW76370   8.326   4.401   2.207 -0.4091 -0.1440 -0.3065
24493SOL    HW176371   8.348   4.386   2.115  2.4692 -0.9968  0.4273
24493SOL    HW276372   8.258   4.337   2.226 -0.7472 -0.2402 -1.6942
24494SOL     OW76373   0.204   5.553   4.099 -0.1748 -0.1116  0.0517
24494SOL    HW176374   0.242   5.514   4.020 -1.2810 -1.3284  0.0850
24494SOL    HW276375   0.134   5.610   4.067  0.5213  0.7774  0.0805
24495SOL     OW76376   0.811   8.530   6.582  0.2909 -0.0561 -0.1056
24495SOL    HW176377   0.874   8.518   6.510 -0.4055  0.3621 -0.8002
24495SOL    HW276378   0.853   8.488   6.657  1.6201  0.6199 -0.4293
24496SOL     OW76379   7.630   3.469   7.327  0.4058  0.1093  0.0618
24496SOL    HW176380   7.588   3.549   7.296 -1.4799  0.3031  2.7360
24496SOL    HW276381   7.606   3.403   7.262  0.8864  1.4089 -1.4933
24497SOL     OW76382   3.220   4.306   7.508  0.1352 -0.3653  0.1260
24497SOL    HW176383   3.192   4.364   7.436  1.5468 -1.4592 -1.3820
24497SOL    HW276384   3.295   4.350   7.546 -0.1762 -0.1339  0.4838
24498SOL     OW76385   7.600   9.387   3.503  0.0594 -0.3644 -0.0500
24498SOL    HW176386   7.546   9.421   3.574  0.1749 -1.1724  0.4377
24498SOL    HW276387   7.555   9.414   3.423  0.2788  1.1344  0.3056
24499SOL     OW76388   2.951   9.332   9.558  0.1244  0.2877 -0.2948
24499SOL    HW176389   2.999   9.279   9.494  0.1881  1.9782 -1.7158
24499SOL    HW276390   2.859   9.325   9.531  0.1425  0.9490 -0.5358
24500SOL     OW76391   6.757   0.859   0.567 -0.3548  0.3677  0.5983
24500SOL    HW176392   6.817   0.830   0.499 -0.3234 -0.0446  0.7962
24500SOL    HW276393   6.673   0.819   0.544 -0.3764  0.3398  0.7237
24501SOL     OW76394   0.579   3.738   7.047 -0.0941  0.8664 -0.3803
24501SOL    HW176395   0.520   3.748   7.122  0.1926  1.0978 -0.1856
24501SOL    HW276396   0.529   3.773   6.973  0.2173  2.1161 -0.0194
24502SOL     OW76397   4.266   1.292   7.206  0.4365  0.2060  0.3663
24502SOL    HW176398   4.270   1.210   7.157  0.4593  0.5583 -0.2343
24502SOL    HW276399   4.335   1.284   7.272 -1.0418 -1.1969  1.8373
24503SOL     OW76400   4.523   0.669   2.097  0.0072 -0.0605  0.1141
24503SOL    HW176401   4.604   0.640   2.139 -0.5849 -0.6136  0.9035
24503SOL    HW276402   4.541   0.663   2.004  0.4381 -1.5396  0.2557
24504SOL     OW76403   7.777   8.993   3.995 -0.1371  0.0574  0.3110
24504SOL    HW176404   7.759   9.002   4.088 -0.5382  1.4434  0.1157
24504SOL    HW276405   7.854   8.935   3.991  0.7363  1.0724  1.5804
24505SOL     OW76406   8.528   1.474   5.275  0.1427  0.1464 -0.2794
24505SOL    HW176407   8.604   1.487   5.331  1.2564 -1.1604 -1.3904
24505SOL    HW276408   8.510   1.561   5.238  0.3360  0.7019  0.9020
24506SOL     OW76409   2.787   1.158   3.343 -0.3467 -0.1364  0.9298
24506SOL    HW176410   2.872   1.189   3.375  0.7532 -0.7868 -1.1425
24506SOL    HW276411   2.790   1.063   3.356 -1.6461  0.0158  2.6969
24507SOL     OW76412   1.664   0.625   5.692 -0.3519 -0.0353 -0.7665
24507SOL    HW176413   1.612   0.706   5.695  0.2999  0.3576  0.5126
24507SOL    HW276414   1.617   0.569   5.630 -1.6667  0.7298 -0.4970
24508SOL     OW76415   3.487   6.032   6.299  0.0848 -0.1108  0.3063
24508SOL    HW176416   3.545   6.053   6.372 -2.1970 -0.9966  2.5004
24508SOL    HW276417   3.545   5.993   6.233  2.4727  2.1003  0.9035
24509SOL     OW76418   6.306   8.558   7.743  0.2171 -0.3861  0.2540
24509SOL    HW176419   6.215   8.532   7.727 -0.7173  1.8818  1.4523
24509SOL    HW276420   6.321   8.631   7.684  1.3258 -0.7708  0.0300
24510SOL     OW76421   8.552   5.486   1.058 -0.4395  0.6785 -0.1053
24510SOL    HW176422   8.509   5.418   1.007  1.9236 -1.3534  0.4355
24510SOL    HW276423   8.505   5.486   1.142 -1.1193  0.4479 -0.4807
24511SOL     OW76424   9.416   3.253   0.933 -0.0244  0.0470  0.4087
24511SOL    HW176425   9.399   3.165   0.898  0.2146 -0.1797  0.8563
24511SOL    HW276426   9.367   3.312   0.875 -0.3572 -0.3968  0.2333
24512SOL     OW76427   2.691   3.186   4.501  0.0290 -0.8555  0.0426
24512SOL    HW176428   2.775   3.232   4.503 -0.0361 -0.7528  0.4662
24512SOL    HW276429   2.629   3.253   4.472 -0.2875 -0.3053  1.9088
24513SOL     OW76430   1.003   3.537   5.342  0.0658 -0.2246  0.3693
24513SOL    HW176431   0.994   3.441   5.345 -3.2938 -0.1719 -2.3744
24513SOL    HW276432   1.056   3.553   5.264  1.7124  0.2131  1.5252
24514SOL     OW76433   0.715   2.757   9.114 -0.4071  0.3727  0.9740
24514SOL    HW176434   0.667   2.814   9.174  2.0216  1.3259  2.1508
24514SOL    HW276435   0.796   2.804   9.097  0.3337 -1.3654 -0.5367
24515SOL     OW76436   1.997   3.361   1.694 -0.0961  0.0477 -0.4165
24515SOL    HW176437   2.024   3.348   1.603  0.8660 -1.1677  0.0084
24515SOL    HW276438   2.076   3.392   1.739 -1.2545  3.5258 -0.4975
24516SOL     OW76439   3.358   0.571   7.784 -0.7588 -0.4432 -0.3456
24516SOL    HW176440   3.400   0.558   7.870 -0.9555  0.9921 -0.0006
24516SOL    HW276441   3.271   0.605   7.805 -0.6032  0.4701 -1.0939
24517SOL     OW76442   6.133   0.665   4.912  0.0578 -0.1247 -0.1651
24517SOL    HW176443   6.129   0.719   4.991 -2.9842  0.9977 -0.9359
24517SOL    HW276444   6.106   0.578   4.941  1.4894 -0.3793  0.4538
24518SOL     OW76445   5.181   4.655   4.811 -0.3011  0.3673  0.0461
24518SOL    HW176446   5.188   4.747   4.785 -1.1407 -0.1275 -2.1227
24518SOL    HW276447   5.250   4.611   4.761  0.0327 -0.2258  0.9979
24519SOL     OW76448   6.445   6.606   3.973 -0.3789 -0.4632  0.0590
24519SOL    HW176449   6.503   6.608   4.049  0.4555 -0.0621 -0.5736
24519SOL    HW276450   6.380   6.674   3.991 -0.2351 -0.4196  0.4417
24520SOL     OW76451   1.397   1.738   2.294 -0.1784 -0.2291  0.1350
24520SOL    HW176452   1.308   1.773   2.295 -0.5367 -1.1259  1.0109
24520SOL    HW276453   1.408   1.700   2.207 -0.1268  1.1555 -0.4870
24521SOL     OW76454   9.371   4.700   7.245 -0.2654 -0.1174  0.8100
24521SOL    HW176455   9.342   4.746   7.324 -0.1405 -1.6757  1.8198
24521SOL    HW276456   9.291   4.658   7.212  0.0210 -1.0137  1.2191
24522SOL     OW76457   4.328   7.379   1.299 -0.0884  0.1508  0.3684
24522SOL    HW176458   4.322   7.381   1.204  1.1703 -1.3516  0.2274
24522SOL    HW276459   4.341   7.471   1.324  0.3908  0.4670 -0.9647
24523SOL     OW76460   8.800   6.077   1.003 -0.4457  0.4637  0.3407
24523SOL    HW176461   8.771   6.168   1.007  1.1958  1.1195 -1.4198
24523SOL    HW276462   8.841   6.061   1.088 -2.6549  0.6324  1.4897
24524SOL     OW76463   4.320   0.254   0.827 -0.2685 -0.2807 -0.4143
24524SOL    HW176464   4.381   0.277   0.757  0.0748 -0.3450 -0.1409
24524SOL    HW276465   4.340   0.163   0.847  1.3749  0.3915  1.4563
24525SOL     OW76466   9.593   1.042   4.886 -0.3635 -0.0481  0.1441
24525SOL    HW176467   9.621   1.068   4.974  1.7336 -1.6859  0.0129
24525SOL    HW276468   9.524   0.977   4.901 -0.5593  0.2443  0.5386
24526SOL     OW76469   1.106   9.543   6.458 -0.1681  0.0951 -0.2447
24526SOL    HW176470   1.075   9.481   6.524  0.1291 -0.0413 -0.2340
24526SOL    HW276471   1.056   9.521   6.380  0.4188 -0.6007 -0.4292
24527SOL     OW76472   9.281   7.587   4.070  0.4943  0.1962 -0.1667
24527SOL    HW176473   9.191   7.585   4.101  0.2514  1.3475 -0.7456
24527SOL    HW276474   9.278   7.641   3.991  1.5266 -0.5738 -0.7512
24528SOL     OW76475   4.503   7.381   4.001  0.1266 -0.0695  0.1996
24528SOL    HW176476   4.571   7.314   4.011 -1.3070 -1.5569  0.5252
24528SOL    HW276477   4.500   7.399   3.907 -0.0557 -1.1475 -0.0153
24529SOL     OW76478   1.212   5.893   3.532 -0.2709  0.1726 -0.1498
24529SOL    HW176479   1.154   5.960   3.496 -0.6972  0.6444  1.3497
24529SOL    HW276480   1.187   5.813   3.486 -0.5403  0.8149 -1.1444
24530SOL     OW76481   8.714   9.291   2.082 -0.9021  0.2420 -0.2405
24530SOL    HW176482   8.779   9.228   2.113 -0.4612  1.0162  0.4453
24530SOL    HW276483   8.631   9.243   2.084 -0.7901  0.0451  1.5136
24531SOL     OW76484   3.239   7.216   7.710  0.4008  0.4575 -0.2781
24531SOL    HW176485   3.210   7.218   7.802  0.6967  1.6938 -0.1922
24531SOL    HW276486   3.311   7.153   7.710 -1.2339 -1.4925 -0.1949
24532SOL     OW76487   2.958   2.254   6.112  0.2385  0.3474  0.2067
24532SOL    HW176488   2.959   2.323   6.045 -0.3904  0.6542  0.4967
24532SOL    HW276489   2.975   2.173   6.064  4.9662  1.0029  0.3149
24533SOL     OW76490   8.202   6.357   5.848 -0.6419  0.3092 -0.2156
24533SOL    HW176491   8.165   6.436   5.888 -1.4121 -0.4933  0.7170
24533SOL    HW276492   8.152   6.346   5.767  1.5066  2.4352 -1.9954
24534SOL     OW76493   2.780   5.303   3.374 -0.1010  0.3775 -0.0419
24534SOL    HW176494   2.761   5.352   3.455  1.3457 -0.2732  0.7462
24534SOL    HW276495   2.703   5.249   3.360  0.1040 -0.4229  1.6357
24535SOL     OW76496   4.885   7.434   9.366 -0.0340 -0.1288  0.2559
24535SOL    HW176497   4.805   7.383   9.378  0.4566 -0.8295  0.5538
24535SOL    HW276498   4.853   7.521   9.340 -0.8718 -0.5662 -0.2303
24536SOL     OW76499   7.137   2.530   1.801  0.5568  0.6952 -0.4667
24536SOL    HW176500   7.201   2.566   1.740  1.7205 -0.6829 -0.1075
24536SOL    HW276501   7.070   2.598   1.808  1.5797  1.8548 -1.4514
24537SOL     OW76502   8.989   6.837   5.787  0.4551 -0.2101  0.2022
24537SOL    HW176503   9.016   6.856   5.877  0.5450 -0.1540  0.1643
24537SOL    HW276504   9.068   6.805   5.744 -0.4832 -4.5749  1.2898
24538SOL     OW76505   6.725   5.110   7.319 -0.3861 -0.3658 -0.0937
24538SOL    HW176506   6.682   5.195   7.319 -0.8923 -0.5762  1.7383
24538SOL    HW276507   6.686   5.063   7.245 -0.4152  0.8212 -0.8517
24539SOL     OW76508   6.822   4.741   2.906 -0.5205  0.0257  0.1301
24539SOL    HW176509   6.825   4.824   2.859 -0.7675  1.1878  2.0650
24539SOL    HW276510   6.729   4.721   2.913 -0.4813 -0.1622  0.1309
24540SOL     OW76511   7.991   0.590   6.908  0.3324 -0.0807  0.5067
24540SOL    HW176512   7.929   0.601   6.980  0.5729  0.9629  0.5804
24540SOL    HW276513   8.015   0.680   6.884 -0.8253 -0.3410 -1.8275
24541SOL     OW76514   8.244   7.612   9.048  0.0800  0.5352  0.2117
24541SOL    HW176515   8.248   7.518   9.065 -0.1776  0.7187  1.3642
24541SOL    HW276516   8.171   7.622   8.987  0.5449 -0.0661 -0.4753
24542SOL     OW76517   4.632   6.139   1.898 -0.2376 -0.2929 -0.3155
24542SOL    HW176518   4.674   6.056   1.878 -0.7856 -1.1316  1.7493
24542SOL    HW276519   4.584   6.123   1.979  0.0678  2.1672  0.4399
24543SOL     OW76520   0.716   9.241   7.209  0.0114 -0.1130  0.2427
24543SOL    HW176521   0.725   9.217   7.117  0.7615 -0.3972  0.3900
24543SOL    HW276522   0.626   9.274   7.216 -0.4030 -1.0864 -0.3603
24544SOL     OW76523   3.749   5.433   3.959  0.5671  0.2392 -0.2746
24544SOL    HW176524   3.680   5.427   3.893  1.2400  1.9786 -1.2064
24544SOL    HW276525   3.805   5.358   3.943  0.0564 -0.0133 -0.8996
24545SOL     OW76526   1.459   4.409   5.965 -0.3060  0.5349  0.1974
24545SOL    HW176527   1.390   4.361   6.011  0.4024 -1.8011 -0.9918
24545SOL    HW276528   1.421   4.429   5.879  0.0653  0.2958 -0.0294
24546SOL     OW76529   1.323   0.345   1.421  0.2686 -0.4709  0.2186
24546SOL    HW176530   1.411   0.379   1.436 -0.1462  0.6808  0.1219
24546SOL    HW276531   1.300   0.377   1.334  0.2388 -1.8519 -0.3000
24547SOL     OW76532   6.096   7.783   3.938  0.8384 -0.2662 -0.3895
24547SOL    HW176533   6.052   7.752   3.858 -0.0955 -1.1650  0.4552
24547SOL    HW276534   6.111   7.704   3.990  0.2623  0.4376  0.8967
24548SOL     OW76535   6.433   3.678   4.931 -1.0462 -0.2199 -0.2285
24548SOL    HW176536   6.524   3.702   4.950 -1.5509  0.6669  1.2105
24548SOL    HW276537   6.386   3.761   4.931 -1.6889 -0.5219 -2.2077
24549SOL     OW76538   3.414   7.105   5.530  0.1129 -0.0738 -0.4443
24549SOL    HW176539   3.367   7.078   5.451  0.6676  0.6948 -1.0644
24549SOL    HW276540   3.475   7.033   5.547 -0.2925 -0.4290 -0.4730
24550SOL     OW76541   1.186   7.788   2.141  0.0390  0.6184 -0.3605
24550SOL    HW176542   1.248   7.716   2.152  0.7223  1.0742 -1.0996
24550SOL    HW276543   1.179   7.827   2.229  0.4359  0.2713 -0.1713
24551SOL     OW76544   2.731   5.864   3.245 -0.2425 -0.3003  0.1554
24551SOL    HW176545   2.814   5.831   3.282  0.5120 -0.5609 -1.6398
24551SOL    HW276546   2.709   5.800   3.177 -0.8484  0.8394 -0.7444
24552SOL     OW76547   4.019   3.782   4.131 -0.4369  0.3049 -0.5695
24552SOL    HW176548   4.093   3.722   4.127 -0.4582  0.2974 -0.8921
24552SOL    HW276549   4.004   3.807   4.040 -1.0915 -0.0140 -0.5507
24553SOL     OW76550   2.520   2.706   6.095  0.8594  0.5865 -0.1312
24553SOL    HW176551   2.475   2.785   6.128 -0.1310  0.7185 -1.6937
24553SOL    HW276552   2.478   2.634   6.142  1.4378  0.9346  0.9562
24554SOL     OW76553   5.093   8.058   8.662  0.2509  0.1729  0.3185
24554SOL    HW176554   5.124   8.032   8.748  1.0006 -1.1553 -0.3197
24554SOL    HW276555   5.032   7.988   8.637  2.3259 -1.1282 -1.4545
24555SOL     OW76556   9.325   0.987   8.099  0.5487  0.2883 -0.1993
24555SOL    HW176557   9.329   0.994   8.195  1.4100 -0.4003 -0.1730
24555SOL    HW276558   9.239   0.948   8.082  1.5246 -2.4585  0.5357
24556SOL     OW76559   2.066   4.066   3.050  0.2427  0.2288  0.0367
24556SOL    HW176560   2.049   4.015   2.971  1.2407  0.4255 -0.3153
24556SOL    HW276561   1.999   4.134   3.049  0.2897  0.2742 -0.6791
24557SOL     OW76562   6.721   8.073   3.169 -0.4663 -0.0017  0.1322
24557SOL    HW176563   6.706   8.006   3.236 -1.7756 -0.3804 -0.5180
24557SOL    HW276564   6.712   8.156   3.216  0.2828 -0.2563  0.7580
24558SOL     OW76565   1.594   3.036   7.484 -0.5511 -0.0510 -0.6134
24558SOL    HW176566   1.673   3.038   7.538 -0.4135 -0.4920 -0.7889
24558SOL    HW276567   1.552   2.953   7.506 -0.3748 -0.3460 -1.3407
24559SOL     OW76568   8.001   9.306   0.125 -1.1283  0.2506 -0.1441
24559SOL    HW176569   7.949   9.236   0.085 -1.0003 -0.2209  0.5079
24559SOL    HW276570   7.962   9.317   0.212 -0.4236  0.2029  0.1779
24560SOL     OW76571   0.235   0.699   3.095  0.1436  0.6123  0.6574
24560SOL    HW176572   0.296   0.703   3.021 -0.7721  0.1493 -0.1547
24560SOL    HW276573   0.288   0.668   3.168  1.0717  1.0749  0.2082
24561SOL     OW76574   6.803   3.133   5.844  0.4360  0.2646  0.3038
24561SOL    HW176575   6.777   3.218   5.880  2.1864  0.1107  2.0744
24561SOL    HW276576   6.822   3.079   5.921  0.9395 -1.2266 -0.8166
24562SOL     OW76577   9.150   9.155   2.928  0.0281  0.0040 -0.0342
24562SOL    HW176578   9.134   9.118   2.841 -1.2937 -1.9487  0.9746
24562SOL    HW276579   9.091   9.107   2.986  0.7326  1.3922  1.9356
24563SOL     OW76580   3.882   4.705   0.404  0.1845  0.2893 -0.0904
24563SOL    HW176581   3.867   4.647   0.329  1.7240 -0.8338  0.4182
24563SOL    HW276582   3.872   4.793   0.368 -1.2203 -0.2399 -1.1086
24564SOL     OW76583   4.535   1.746   9.580  0.2800 -0.0641 -0.1556
24564SOL    HW176584   4.514   1.831   9.541  1.4811 -0.1163 -0.9533
24564SOL    HW276585   4.594   1.767   9.652 -0.8102 -0.0925  0.7698
24565SOL     OW76586   1.371   7.264   6.354 -0.0714 -0.5075  0.5393
24565SOL    HW176587   1.307   7.302   6.294  0.3638  0.8389  0.8939
24565SOL    HW276588   1.324   7.192   6.396 -1.3728  0.4468  0.7965
24566SOL     OW76589   0.082   7.501   5.228  0.3947 -0.1578  0.4309
24566SOL    HW176590   0.061   7.428   5.286  0.4116 -1.1794 -0.8066
24566SOL    HW276591   0.113   7.570   5.286  0.5371 -1.1929  1.6139
24567SOL     OW76592   1.851   8.913   2.967 -0.4421  0.1103 -0.2443
24567SOL    HW176593   1.763   8.875   2.963 -0.1288 -0.6398 -0.1101
24567SOL    HW276594   1.836   9.007   2.981 -1.2144 -0.1622  0.8891
24568SOL     OW76595   3.756   4.944   1.899  0.2731  0.5621  0.1466
24568SOL    HW176596   3.663   4.950   1.877  0.3590 -2.1667 -1.3925
24568SOL    HW276597   3.760   4.968   1.992 -2.1036 -0.1005  0.4890
24569SOL     OW76598   8.261   4.989   6.473 -0.0978  0.2241 -0.3227
24569SOL    HW176599   8.261   5.032   6.387 -2.5231  1.4121  0.1841
24569SOL    HW276600   8.265   5.061   6.536 -0.9634 -0.4701  0.5543
24570SOL     OW76601   1.614   3.537   9.029 -0.2968 -0.2143 -0.0530
24570SOL    HW176602   1.610   3.476   9.103  0.7185 -0.6183 -0.3181
24570SOL    HW276603   1.623   3.623   9.070 -3.2766  0.0215  0.3795
24571SOL     OW76604   9.442   7.561   2.673  0.6153  0.7210  0.0313
24571SOL    HW176605   9.402   7.559   2.586  1.7419 -1.6184 -0.5147
24571SOL    HW276606   9.444   7.653   2.697 -2.0017  1.2084 -1.3203
24572SOL     OW76607   6.107   8.977   2.943 -0.3420 -0.1931  0.3260
24572SOL    HW176608   6.104   9.069   2.968  1.5891 -0.3192  1.1989
24572SOL    HW276609   6.122   8.930   3.025  0.1768 -1.1568 -0.3003
24573SOL     OW76610   3.865   7.338   6.911  0.1085 -0.0700  0.0304
24573SOL    HW176611   3.876   7.249   6.945 -3.9700 -0.4879  0.7021
24573SOL    HW276612   3.884   7.395   6.986  2.8047 -0.2327 -0.4210
24574SOL     OW76613   3.576   8.178   6.334  0.0243 -0.2712  0.0493
24574SOL    HW176614   3.571   8.120   6.259 -3.1447  0.9398 -0.8241
24574SOL    HW276615   3.588   8.265   6.297  1.6899  0.0344  1.1799
24575SOL     OW76616   4.805   8.142   4.870  0.3229  0.0224 -0.3059
24575SOL    HW176617   4.791   8.233   4.847 -0.4428 -0.0902 -0.3065
24575SOL    HW276618   4.791   8.093   4.789 -1.2627 -0.2680  0.1062
24576SOL     OW76619   6.620   5.752   8.854 -0.0119 -0.2520  0.0822
24576SOL    HW176620   6.710   5.738   8.882  0.2180 -0.2497 -0.6426
24576SOL    HW276621   6.617   5.721   8.764 -0.2871  1.3230 -0.4901
24577SOL     OW76622   4.978   3.762   8.646  0.7549  0.2848  0.5320
24577SOL    HW176623   4.921   3.825   8.689  0.8696 -0.5028  1.8937
24577SOL    HW276624   5.029   3.722   8.717  0.8097 -1.2220 -0.2963
24578SOL     OW76625   3.726   4.785   8.702  0.1802  0.3806  0.5484
24578SOL    HW176626   3.792   4.757   8.765 -0.8179  0.0774  1.4925
24578SOL    HW276627   3.711   4.877   8.723  1.0452  0.7382 -0.3553
24579SOL     OW76628   2.300   8.644   6.503  0.0975  0.4098  0.2360
24579SOL    HW176629   2.382   8.681   6.536  0.4235  0.6840 -0.8506
24579SOL    HW276630   2.290   8.682   6.416 -0.9378 -0.0100  0.1599
24580SOL     OW76631   5.738   7.351   4.283 -0.2790 -0.0508  0.2432
24580SOL    HW176632   5.809   7.289   4.294  0.6807  0.9220 -0.2084
24580SOL    HW276633   5.658   7.300   4.296  0.5131 -0.8515  2.3405
24581SOL     OW76634   6.582   3.128   5.316  0.2351 -0.0349 -0.5987
24581SOL    HW176635   6.511   3.191   5.330  0.5948 -0.0128  1.3872
24581SOL    HW276636   6.557   3.082   5.236 -1.2321  1.0321 -0.8001
24582SOL     OW76637   3.452   8.056   7.765  0.1860 -0.0074  0.1620
24582SOL    HW176638   3.527   8.011   7.727 -0.7798 -0.0185 -1.8754
24582SOL    HW276639   3.405   7.989   7.813  0.7312 -0.3076  0.2846
24583SOL     OW76640   3.775   2.811   3.124 -0.2732  0.0909  0.8558
24583SOL    HW176641   3.778   2.880   3.057 -1.7958  0.7263  1.3990
24583SOL    HW276642   3.770   2.859   3.206 -1.6299 -0.6556  1.2292
24584SOL     OW76643   9.354   6.715   2.149 -0.4102  0.7749  0.4119
24584SOL    HW176644   9.285   6.727   2.083 -0.0392  0.6725 -0.0026
24584SOL    HW276645   9.436   6.726   2.100 -0.1292  0.9813  0.9143
24585SOL     OW76646   3.615   5.799   2.274  0.1279 -0.2756 -0.8500
24585SOL    HW176647   3.654   5.780   2.189  1.1230  0.4593 -0.5726
24585SOL    HW276648   3.689   5.823   2.330 -0.4241 -1.3573  0.4084
24586SOL     OW76649   3.734   5.664   2.046 -0.2331  0.3995 -0.4770
24586SOL    HW176650   3.782   5.604   1.988 -0.0351 -0.1399  0.2331
24586SOL    HW276651   3.740   5.749   2.003  2.1707  0.5517  0.0286
24587SOL     OW76652   1.352   0.470   3.177  0.0575 -0.1262  0.3123
24587SOL    HW176653   1.315   0.439   3.094 -1.6989 -2.8033  1.9261
24587SOL    HW276654   1.276   0.489   3.232  1.1474  0.0287  1.8504
24588SOL     OW76655   1.361   8.681   4.210 -0.0090 -0.5319 -0.2997
24588SOL    HW176656   1.436   8.653   4.263  0.2406 -0.4431 -0.6018
24588SOL    HW276657   1.398   8.701   4.124 -0.4375 -0.8451 -0.5642
24589SOL     OW76658   9.328   3.209   3.202  0.5878  0.5517  0.3271
24589SOL    HW176659   9.300   3.300   3.198 -0.9156  0.0819 -0.5158
24589SOL    HW276660   9.375   3.195   3.119  0.1056  0.3454  0.0864
24590SOL     OW76661   2.566   9.559   3.358  0.3229 -0.3556  0.3479
24590SOL    HW176662   2.649   9.585   3.320 -0.5207  0.9925 -0.6576
24590SOL    HW276663   2.579   9.567   3.453  1.3646 -0.3372  0.2146
24591SOL     OW76664   7.493   1.357   9.148 -0.0974 -0.0255 -0.7814
24591SOL    HW176665   7.443   1.298   9.204  2.3940 -0.8307  0.7884
24591SOL    HW276666   7.478   1.444   9.185  0.0194 -0.3157 -0.0297
24592SOL     OW76667   0.912   8.953   7.276 -0.5207 -0.0361 -0.0561
24592SOL    HW176668   0.827   8.987   7.303 -0.1842  1.0569 -0.2948
24592SOL    HW276669   0.905   8.858   7.285 -2.0153 -0.0201 -0.8452
24593SOL     OW76670   9.476   0.515   4.340  0.3163 -0.2508  0.1567
24593SOL    HW176671   9.391   0.558   4.340  0.0705 -0.7365  0.4234
24593SOL    HW276672   9.499   0.508   4.247  0.9264  1.5407  0.1299
24594SOL     OW76673   1.128   9.109   9.578  0.0298  0.0843  0.5726
24594SOL    HW176674   1.049   9.087   9.529  0.0830  0.2803  0.3965
24594SOL    HW276675   1.115   9.199   9.606 -0.2504 -0.2130  1.4228
24595SOL     OW76676   8.471   3.640   6.238  0.2123  0.3378 -0.0388
24595SOL    HW176677   8.398   3.583   6.215 -0.1367  0.8131 -0.1419
24595SOL    HW276678   8.536   3.582   6.277 -0.2954 -0.0634  0.2181
24596SOL     OW76679   2.778   5.413   1.671 -0.8702 -0.2190  0.0277
24596SOL    HW176680   2.832   5.468   1.614  0.6423  0.3210  1.8841
24596SOL    HW276681   2.817   5.326   1.664 -0.6716 -0.1484  0.2307
24597SOL     OW76682   6.333   7.502   5.013 -0.0157 -0.1521 -0.1029
24597SOL    HW176683   6.367   7.413   5.011 -0.6030 -0.3723 -0.6977
24597SOL    HW276684   6.321   7.525   4.921  0.6764  0.7577  0.0245
24598SOL     OW76685   1.243   1.381   6.907 -0.1345 -0.4713 -0.1694
24598SOL    HW176686   1.270   1.404   6.996 -0.6445 -1.7323  0.3323
24598SOL    HW276687   1.190   1.456   6.878 -1.0153 -0.5814  1.0741
24599SOL     OW76688   8.613   8.368   7.743  0.7380 -0.2813 -0.3967
24599SOL    HW176689   8.548   8.298   7.742  0.0643  0.3247 -1.2504
24599SOL    HW276690   8.667   8.350   7.819  0.1089 -1.2991 -0.1722
24600SOL     OW76691   8.550   3.108   1.990 -0.1999  0.5973 -0.5424
24600SOL    HW176692   8.616   3.176   1.998 -0.9345  1.4166 -1.1997
24600SOL    HW276693   8.489   3.126   2.062 -0.4745  0.7325 -0.8059
24601SOL     OW76694   6.435   4.334   4.586  0.2235  0.6043 -0.0769
24601SOL    HW176695   6.513   4.384   4.560  0.1493 -0.0741 -1.7576
24601SOL    HW276696   6.459   4.294   4.669  1.8166  0.1473 -0.7130
24602SOL     OW76697   7.144   4.019   3.132  0.5401 -0.2456 -0.4281
24602SOL    HW176698   7.119   3.949   3.192  0.2436  0.8813  0.8150
24602SOL    HW276699   7.157   3.975   3.048 -1.6953 -1.4902 -0.2005
24603SOL     OW76700   0.241   4.571   7.272  0.2430 -0.2123 -0.1946
24603SOL    HW176701   0.149   4.554   7.255 -0.0788  0.9928  0.2574
24603SOL    HW276702   0.271   4.620   7.195 -0.0573  1.2796  0.6194
24604SOL     OW76703   6.004   3.750   1.426 -0.2950  0.6396  0.0068
24604SOL    HW176704   5.975   3.757   1.335 -0.1006 -0.5335 -0.1600
24604SOL    HW276705   6.080   3.808   1.431  0.5500 -0.3492 -0.9569
24605SOL     OW76706   4.359   7.242   1.826 -0.4624  0.3315  0.2220
24605SOL    HW176707   4.405   7.163   1.797  1.2835  1.8188 -1.3132
24605SOL    HW276708   4.385   7.254   1.917  2.6431  1.3024 -0.6810
24606SOL     OW76709   7.727   9.587   1.261 -0.2333  0.3733 -0.0367
24606SOL    HW176710   7.655   9.553   1.314 -0.3685  0.8329  0.0724
24606SOL    HW276711   7.712   9.681   1.256 -0.4641  0.2884 -1.2375
24607SOL     OW76712   1.651   3.389   8.173  0.2995  0.7353 -0.5528
24607SOL    HW176713   1.647   3.293   8.170 -2.8679  0.7954 -2.4992
24607SOL    HW276714   1.639   3.410   8.266 -3.2726 -0.7925 -0.5292
24608SOL     OW76715   2.834   1.475   7.543  0.0240  0.1157 -0.3186
24608SOL    HW176716   2.889   1.431   7.608  0.7835  0.7911 -0.4891
24608SOL    HW276717   2.895   1.500   7.473 -0.1249  2.5401  0.3239
24609SOL     OW76718   4.875   4.340   1.852 -0.5417  0.7479  0.0553
24609SOL    HW176719   4.934   4.375   1.918 -1.6141 -1.3512  2.2580
24609SOL    HW276720   4.824   4.273   1.897 -2.2059  0.0395 -2.6110
24610SOL     OW76721   4.087   2.616   5.277 -0.1654 -0.5463 -0.2040
24610SOL    HW176722   4.084   2.709   5.252  1.4400 -0.3216  0.3070
24610SOL    HW276723   3.996   2.591   5.287 -0.6358  0.9579 -0.4868
24611SOL     OW76724   0.003   1.624   9.093  0.3978  0.2145 -0.3515
24611SOL    HW176725   0.039   1.549   9.140  0.7707  0.9283  0.5235
24611SOL    HW276726  -0.034   1.681   9.161 -0.1474  0.6866 -1.0241
24612SOL     OW76727   4.700   2.664   2.477  0.7098  0.4767 -0.1004
24612SOL    HW176728   4.613   2.645   2.441  1.3268 -1.6087 -0.6319
24612SOL    HW276729   4.723   2.587   2.528  3.6991 -0.7782 -2.9365
24613SOL     OW76730   6.767   5.164   2.543 -0.5458  0.3757  0.1286
24613SOL    HW176731   6.718   5.100   2.595 -1.3794  0.1136 -0.9552
24613SOL    HW276732   6.701   5.207   2.488 -0.0207  2.2101  0.8322
24614SOL     OW76733   0.566   0.988   2.325  0.1089 -0.2532 -0.0659
24614SOL    HW176734   0.555   0.894   2.312 -0.3630  0.0497 -2.0433
24614SOL    HW276735   0.658   1.004   2.302  0.5944 -0.4039  1.6165
24615SOL     OW76736   6.460   4.841   2.253  0.0745  0.1667  0.0191
24615SOL    HW176737   6.472   4.864   2.345  0.4196 -2.2038  0.6379
24615SOL    HW276738   6.545   4.807   2.226  0.1603  1.4242 -1.4070
24616SOL     OW76739   6.241   1.097   7.443  0.1333  0.1061 -0.3458
24616SOL    HW176740   6.186   1.088   7.365  0.5179  1.9873 -0.8810
24616SOL    HW276741   6.259   1.007   7.469 -3.2534 -0.6321 -0.0625
24617SOL     OW76742   9.335   9.325   3.926  0.1565  0.2649  0.0639
24617SOL    HW176743   9.382   9.242   3.932  0.3035  0.4186  1.1010
24617SOL    HW276744   9.255   9.311   3.976  0.2818  0.8207  0.4201
24618SOL     OW76745   8.801   4.505   0.798 -0.3831 -0.1043 -0.1870
24618SOL    HW176746   8.875   4.531   0.744  1.1113  0.9985  2.1982
24618SOL    HW276747   8.734   4.571   0.782  0.8203  1.3954  0.7730
24619SOL     OW76748   9.631   8.734   9.114 -0.2566  0.0386  0.2046
24619SOL    HW176749   9.715   8.745   9.158 -0.1175  1.2935 -0.3294
24619SOL    HW276750   9.649   8.673   9.042  0.1982  0.2547  0.1297
24620SOL     OW76751   1.045   2.158   3.040 -0.5507 -0.4017 -0.0575
24620SOL    HW176752   1.007   2.246   3.040 -0.5697 -0.4100 -0.0858
24620SOL    HW276753   1.086   2.150   3.126 -1.1636 -0.6306  0.2171
24621SOL     OW76754   7.160   0.712   1.423 -0.0483  0.5698  0.2527
24621SOL    HW176755   7.081   0.767   1.420 -0.4152  0.0171 -0.5950
24621SOL    HW276756   7.198   0.721   1.335 -0.5686 -1.1799 -0.1763
24622SOL     OW76757   6.817   6.136   4.236  0.1584  0.0554 -0.0937
24622SOL    HW176758   6.775   6.192   4.170  0.4181 -0.6110 -0.8330
24622SOL    HW276759   6.893   6.099   4.191  1.5137  1.1655  1.1969
24623SOL     OW76760   3.242   4.988   0.373 -0.5228 -0.0125 -0.0738
24623SOL    HW176761   3.194   4.923   0.423  0.7452  1.7595  3.8235
24623SOL    HW276762   3.333   4.959   0.377 -0.2664  0.7095 -0.4737
24624SOL     OW76763   1.714   5.048   0.640  0.4415 -0.0656  0.3263
24624SOL    HW176764   1.619   5.042   0.646  0.4062  0.4575  0.3117
24624SOL    HW276765   1.745   4.958   0.654 -0.0781 -0.3307 -0.1999
24625SOL     OW76766   5.678   3.973   7.140 -0.1937 -0.4504 -0.5430
24625SOL    HW176767   5.659   3.881   7.118 -0.0089 -0.2579 -1.5550
24625SOL    HW276768   5.624   3.991   7.217 -0.4263 -1.3360 -0.4870
24626SOL     OW76769   1.448   6.845   5.651  0.1981  0.0042 -0.0890
24626SOL    HW176770   1.473   6.933   5.679 -0.1998  0.3292 -0.7322
24626SOL    HW276771   1.356   6.854   5.624 -0.0743 -0.7732  0.5351
24627SOL     OW76772   2.402   8.522   2.864  0.3348 -0.0088  0.0187
24627SOL    HW176773   2.360   8.464   2.800 -0.7465 -2.4617  2.7103
24627SOL    HW276774   2.495   8.520   2.842  0.2331 -2.2669 -0.4180
24628SOL     OW76775   0.267   0.559   6.245 -0.0852 -0.3349  0.2187
24628SOL    HW176776   0.233   0.477   6.208  0.2864 -0.5805  0.4142
24628SOL    HW276777   0.322   0.595   6.176 -0.0705 -0.3647  0.2146
24629SOL     OW76778   8.919   8.515   0.893 -0.0668 -0.8331  0.7492
24629SOL    HW176779   8.842   8.468   0.863  0.0567 -0.4032 -0.2610
24629SOL    HW276780   8.959   8.550   0.814  1.6176 -1.7059  1.1456
24630SOL     OW76781   4.283   7.779   9.594 -0.1756  0.2441 -0.1043
24630SOL    HW176782   4.216   7.718   9.563 -0.0539 -0.1443  0.3840
24630SOL    HW276783   4.308   7.830   9.517  0.2032 -0.7756 -0.6606
24631SOL     OW76784   6.752   0.037   3.569  0.0190 -0.9118 -0.5522
24631SOL    HW176785   6.797  -0.029   3.517  0.9659 -1.4476  0.8738
24631SOL    HW276786   6.782   0.121   3.534  1.9223 -1.2630  0.1590
24632SOL     OW76787   1.271   1.174   6.113  0.5011 -0.5021  0.5897
24632SOL    HW176788   1.215   1.250   6.125  0.0019 -0.9444  1.1377
24632SOL    HW276789   1.348   1.207   6.066  0.6735  0.4961  1.5503
24633SOL     OW76790   2.295   1.480   7.639  0.8196 -0.9093 -0.2765
24633SOL    HW176791   2.315   1.414   7.573 -0.5910 -1.2229 -0.4118
24633SOL    HW276792   2.286   1.561   7.590  0.5079 -1.0006 -0.3667
24634SOL     OW76793   2.790   8.900   9.419  0.4241 -0.3710  0.2283
24634SOL    HW176794   2.856   8.871   9.482  1.2193  1.6434  0.3835
24634SOL    HW276795   2.726   8.828   9.416  2.0598 -1.9226  0.8467
24635SOL     OW76796   6.096   7.715   2.453 -0.1037  0.1087 -0.3537
24635SOL    HW176797   6.014   7.719   2.501  1.1529  1.5044  1.8634
24635SOL    HW276798   6.110   7.621   2.436  0.7948 -1.0359  4.8958
24636SOL     OW76799   0.094   6.637   7.547  0.0354 -0.1794  0.3955
24636SOL    HW176800   0.020   6.582   7.519 -0.8251  0.4243  1.4038
24636SOL    HW276801   0.171   6.592   7.512 -0.8789  0.0507 -2.1052
24637SOL     OW76802   4.864   3.746   6.080 -0.0010  0.4259 -0.1230
24637SOL    HW176803   4.875   3.777   6.170  0.0716  0.7956 -0.2582
24637SOL    HW276804   4.949   3.708   6.057  0.4029  1.5197 -0.4888
24638SOL     OW76805   7.205   8.258   3.492 -0.2593  0.5886 -0.0299
24638SOL    HW176806   7.239   8.332   3.542  0.8305 -0.6887  1.1924
24638SOL    HW276807   7.119   8.240   3.530  0.2208  0.1397  0.8698
24639SOL     OW76808   6.622   8.413   3.595  0.0403  0.6088  0.0779
24639SOL    HW176809   6.592   8.322   3.605  0.2635  0.5090 -0.1525
24639SOL    HW276810   6.689   8.409   3.526 -0.9946  1.1815 -0.9890
24640SOL     OW76811   6.655   7.606   5.815  0.3527  0.6960 -0.3142
24640SOL    HW176812   6.668   7.599   5.720  1.4211  1.2961 -0.2306
24640SOL    HW276813   6.591   7.676   5.825  0.5968  0.9645 -0.5852
24641SOL     OW76814   6.595   1.845   7.009  0.3199 -0.2139  0.1799
24641SOL    HW176815   6.574   1.876   6.921 -0.1673 -1.0699 -0.0181
24641SOL    HW276816   6.517   1.865   7.061  0.2340 -0.5616  0.1880
24642SOL     OW76817   9.286   2.264   3.610 -0.1721 -0.7681 -0.3755
24642SOL    HW176818   9.196   2.298   3.615 -0.2538 -0.5413 -2.6290
24642SOL    HW276819   9.339   2.342   3.592  0.3314 -1.0686 -0.1952
24643SOL     OW76820   7.851   1.879   9.506 -0.2040 -0.4709 -0.3239
24643SOL    HW176821   7.939   1.860   9.473  0.9165  0.3420  2.0195
24643SOL    HW276822   7.824   1.958   9.458 -0.6233 -1.9208 -2.6178
24644SOL     OW76823   5.091   6.342   8.356  0.3390 -0.8854  0.4318
24644SOL    HW176824   5.075   6.251   8.334 -0.1287 -0.3408 -1.7148
24644SOL    HW276825   5.025   6.364   8.422 -0.0413 -1.8628  0.3802
24645SOL     OW76826   7.660   8.882   1.770  0.1754  0.1853 -0.0992
24645SOL    HW176827   7.728   8.860   1.707  2.0100  2.4044  0.9624
24645SOL    HW276828   7.675   8.820   1.843 -0.1295 -0.5132 -0.6196
24646SOL     OW76829   9.166   8.211   4.555  0.0167  0.1144 -0.0832
24646SOL    HW176830   9.134   8.297   4.583  0.3291  0.4457 -0.7087
24646SOL    HW276831   9.210   8.228   4.472 -2.6070 -1.1355 -1.8550
24647SOL     OW76832   5.466   5.235   7.229  0.4164  0.6530  0.4632
24647SOL    HW176833   5.538   5.239   7.292  0.5780 -2.1354  0.6167
24647SOL    HW276834   5.406   5.170   7.266 -0.8446  0.9552 -0.9537
24648SOL     OW76835   8.859   1.666   9.090  0.2512  0.4673  0.6103
24648SOL    HW176836   8.933   1.646   9.147  0.1640  0.8678  0.8681
24648SOL    HW276837   8.828   1.581   9.060 -0.2539  0.2011  1.8580
24649SOL     OW76838   1.624   3.159   6.357 -1.0033 -0.7355 -0.0552
24649SOL    HW176839   1.583   3.246   6.352 -0.9049 -0.7551 -1.8967
24649SOL    HW276840   1.714   3.177   6.382 -1.5815 -0.5311  2.0279
24650SOL     OW76841   8.305   2.965   5.509 -0.0357  0.1240  0.1985
24650SOL    HW176842   8.330   2.874   5.489 -3.1035 -0.5107 -1.3630
24650SOL    HW276843   8.251   2.959   5.587  2.0041  1.0716  1.7726
24651SOL     OW76844   8.295   2.298   9.202 -0.3139  0.7348  0.6828
24651SOL    HW176845   8.247   2.301   9.119 -0.8704 -1.6496  0.8476
24651SOL    HW276846   8.386   2.317   9.177 -0.3566 -0.5355 -0.6160
24652SOL     OW76847   1.707   5.599   1.199 -0.1784  0.0492 -0.5541
24652SOL    HW176848   1.652   5.664   1.243 -1.8584 -2.4957  1.3772
24652SOL    HW276849   1.795   5.637   1.200 -1.0905  2.2945  0.3573
24653SOL     OW76850   7.008   6.742   0.457  0.1560  0.2486 -0.2902
24653SOL    HW176851   6.926   6.779   0.426 -0.0641 -1.2455 -1.6530
24653SOL    HW276852   7.070   6.759   0.386  0.7131  0.3215  0.2080
24654SOL     OW76853   9.266   4.825   5.763  0.0279  0.1324 -0.1585
24654SOL    HW176854   9.312   4.891   5.710  0.2631  0.5500  0.5508
24654SOL    HW276855   9.175   4.855   5.764  0.2236  0.7531  0.5868
24655SOL     OW76856   7.502   7.643   8.927 -0.6298  0.1805 -0.3293
24655SOL    HW176857   7.535   7.591   8.854  0.9476 -1.8669  1.6788
24655SOL    HW276858   7.520   7.734   8.902  1.3950 -0.5474 -1.7919
24656SOL     OW76859   6.955   1.408   7.501  0.3238  0.0041  0.4934
24656SOL    HW176860   7.033   1.356   7.487 -0.0630 -0.3987 -0.2405
24656SOL    HW276861   6.967   1.447   7.587  1.0305 -0.5764  0.6668
24657SOL     OW76862   0.137   3.107   0.060 -0.2027  0.5749  0.6800
24657SOL    HW176863   0.070   3.050   0.022 -2.1048  1.4266  2.5304
24657SOL    HW276864   0.220   3.072   0.028 -1.4834 -0.6577 -1.5696
24658SOL     OW76865   3.479   1.147   0.408  0.3653 -0.4199  0.2017
24658SOL    HW176866   3.459   1.082   0.340 -2.0648  0.8740 -0.4379
24658SOL    HW276867   3.552   1.197   0.372 -1.2805  0.6796 -1.9001
24659SOL     OW76868   2.744   6.166   3.129  0.0240 -0.6174  0.0945
24659SOL    HW176869   2.822   6.216   3.106 -1.0281  1.0955  0.0528
24659SOL    HW276870   2.769   6.118   3.208  1.1297 -0.1195  0.0683
24660SOL     OW76871   1.282   4.589   1.690  0.0920 -0.4405 -0.0926
24660SOL    HW176872   1.324   4.504   1.700 -0.3060 -0.9754 -2.4576
24660SOL    HW276873   1.273   4.601   1.596  1.0016  2.6731  0.1060
24661SOL     OW76874   7.789   9.247   5.212  0.0741  0.2015 -0.1286
24661SOL    HW176875   7.754   9.202   5.289 -1.5945 -0.2577 -1.1170
24661SOL    HW276876   7.748   9.204   5.137  1.7361  0.5579 -1.3217
24662SOL     OW76877   5.763   3.067   0.596 -0.9507 -0.4077  0.9146
24662SOL    HW176878   5.711   3.083   0.517 -0.9992  0.4369  1.1068
24662SOL    HW276879   5.794   2.977   0.587 -0.9726 -0.3260 -0.0589
24663SOL     OW76880   6.083   7.367   1.823 -0.0131  0.5830 -0.4418
24663SOL    HW176881   6.157   7.315   1.853 -0.2923  1.1191  1.2999
24663SOL    HW276882   6.008   7.308   1.833 -0.0753  0.6859 -0.2950
24664SOL     OW76883   3.335   6.705   7.336 -0.2495  0.0200  0.2922
24664SOL    HW176884   3.285   6.674   7.412 -1.4995 -1.3881 -1.0425
24664SOL    HW276885   3.291   6.666   7.260  2.3601 -0.5869 -1.0334
24665SOL     OW76886   7.848   9.552   3.389 -0.3148  0.0884  0.8736
24665SOL    HW176887   7.754   9.564   3.396 -0.4934 -1.6103  1.8245
24665SOL    HW276888   7.879   9.632   3.347 -2.5423 -0.5736 -2.4566
24666SOL     OW76889   5.975   1.238   4.380  0.0982 -0.1587  0.2870
24666SOL    HW176890   5.895   1.283   4.353  1.7830  1.3985 -2.7547
24666SOL    HW276891   5.974   1.155   4.331  0.9012  0.4722 -0.8470
24667SOL     OW76892   5.626   5.871   2.865 -0.5721 -0.0821  0.0089
24667SOL    HW176893   5.546   5.921   2.878 -1.0062 -0.9632  0.8805
24667SOL    HW276894   5.597   5.780   2.863  0.3899 -0.4009  0.1681
24668SOL     OW76895   6.844   4.822   3.308 -0.3166 -0.2379 -0.1858
24668SOL    HW176896   6.812   4.740   3.271  1.2749 -0.8197 -0.3328
24668SOL    HW276897   6.824   4.816   3.402  0.3145 -1.0591 -0.0976
24669SOL     OW76898   9.036   9.581   7.768 -0.1231 -0.5417 -0.3637
24669SOL    HW176899   9.032   9.550   7.678 -0.8948 -0.9177 -0.2123
24669SOL    HW276900   9.026   9.676   7.761  0.1810 -0.5333 -0.6947
24670SOL     OW76901   2.640   1.549   1.433 -0.3242 -0.2866 -0.4074
24670SOL    HW176902   2.553   1.554   1.473  0.1193 -2.1965  0.9559
24670SOL    HW276903   2.700   1.565   1.505  0.4843  0.3343 -1.1985
24671SOL     OW76904   4.071   1.478   3.122 -0.6449  0.1812  0.2235
24671SOL    HW176905   3.999   1.417   3.140 -0.0199 -0.9410 -0.9313
24671SOL    HW276906   4.110   1.495   3.207 -1.6833  0.0623  0.7427
24672SOL     OW76907   4.391   6.441   1.767 -0.2157 -0.1873  0.1658
24672SOL    HW176908   4.330   6.376   1.800 -1.1356  0.0077 -1.0757
24672SOL    HW276909   4.339   6.520   1.754  0.2869 -0.0091 -0.8989
24673SOL     OW76910   7.728   7.261   3.384 -0.1742 -0.5639  0.0419
24673SOL    HW176911   7.741   7.353   3.360  1.2808 -0.4256  1.1825
24673SOL    HW276912   7.780   7.212   3.320  0.6682 -0.4300  0.5935
24674SOL     OW76913   1.183   2.220   8.011 -0.3241  0.3306 -0.0330
24674SOL    HW176914   1.206   2.227   7.918 -0.3761 -0.0466 -0.0738
24674SOL    HW276915   1.087   2.228   8.012 -0.2777  0.9833  0.0527
24675SOL     OW76916   0.483   0.711   8.248 -0.6755  0.4506  0.5782
24675SOL    HW176917   0.540   0.673   8.181 -2.4481 -0.7976 -0.2917
24675SOL    HW276918   0.543   0.751   8.310  1.0873  0.3767 -0.9942
24676SOL     OW76919   9.462   5.897   4.173 -0.2041  0.3639 -0.1518
24676SOL    HW176920   9.417   5.858   4.247  1.0414 -0.2156  0.3232
24676SOL    HW276921   9.400   5.961   4.138 -0.7664  0.7202  1.4392
24677SOL     OW76922   6.335   9.188   5.441 -0.8627 -0.6522  0.1760
24677SOL    HW176923   6.330   9.208   5.348  1.1417 -0.0594  0.1354
24677SOL    HW276924   6.299   9.099   5.449 -0.4429 -0.9749 -1.2778
24678SOL     OW76925   8.471   7.293   8.134 -0.1033  0.0472 -0.0184
24678SOL    HW176926   8.421   7.245   8.200  0.6037 -0.2766  0.2828
24678SOL    HW276927   8.562   7.280   8.158  0.1615  0.0439 -0.9819
24679SOL     OW76928   8.901   7.699   0.095 -0.0632 -0.1578 -0.3048
24679SOL    HW176929   8.848   7.756   0.151  0.4920  0.9996 -0.9147
24679SOL    HW276930   8.860   7.613   0.103 -0.3530  0.1031  1.3925
24680SOL     OW76931   0.048   4.802   7.483  0.0000 -0.2445  0.0614
24680SOL    HW176932   0.080   4.889   7.458  1.3771 -0.8805 -0.4732
24680SOL    HW276933   0.049   4.752   7.402 -1.2506 -0.6433  0.2742
24681SOL     OW76934   6.494   3.699   1.255  0.4054  0.8509 -0.2177
24681SOL    HW176935   6.542   3.621   1.286  0.2642  0.5400 -0.7753
24681SOL    HW276936   6.548   3.773   1.283  1.4924  0.4896 -1.2788
24682SOL     OW76937   0.542   0.096   6.296  0.7244 -0.7035  0.0286
24682SOL    HW176938   0.485   0.126   6.226  0.2532  0.4535  0.8719
24682SOL    HW276939   0.546   0.170   6.357  2.0832 -1.2422  0.6305
24683SOL     OW76940   9.533   8.539   1.045  0.1034  0.0827 -0.4437
24683SOL    HW176941   9.557   8.446   1.052 -1.1136 -0.1227  1.7758
24683SOL    HW276942   9.509   8.550   0.953  2.2475 -1.2625 -1.2400
24684SOL     OW76943   6.735   9.097   7.300 -1.0437  0.2806  0.4643
24684SOL    HW176944   6.667   9.057   7.246 -1.6228  1.1701  0.5081
24684SOL    HW276945   6.693   9.174   7.338 -0.4422  0.0500  1.6504
24685SOL     OW76946   7.142   2.012   5.065 -0.1979  0.4505 -0.0220
24685SOL    HW176947   7.142   1.937   5.006  1.7185  0.3785 -0.0091
24685SOL    HW276948   7.178   2.083   5.013 -2.8601  1.6843 -0.3316
24686SOL     OW76949   7.380   1.871   5.206 -0.0506 -0.2164  0.2776
24686SOL    HW176950   7.418   1.954   5.235  1.8217 -0.6660 -0.7168
24686SOL    HW276951   7.298   1.897   5.162 -1.7106  0.6575  3.5955
24687SOL     OW76952   4.490   5.327   2.771  0.6907 -0.0392 -0.6181
24687SOL    HW176953   4.440   5.339   2.690 -0.5371 -1.5085 -0.1191
24687SOL    HW276954   4.539   5.246   2.757  0.7060 -0.1380 -0.0087
24688SOL     OW76955   1.896   4.280   5.160  0.1101  0.2491 -0.0707
24688SOL    HW176956   1.978   4.264   5.114  0.7119  0.7226  0.8219
24688SOL    HW276957   1.920   4.280   5.253 -0.9778 -0.0721  0.2290
24689SOL     OW76958   4.146   1.596   4.911 -0.3583  0.1525  0.0093
24689SOL    HW176959   4.156   1.621   5.003 -0.5371 -1.1845  0.4078
24689SOL    HW276960   4.145   1.680   4.864  0.5381  0.8279  1.1331
24690SOL     OW76961   7.459   5.510   9.088  0.7977 -0.4079 -0.1088
24690SOL    HW176962   7.547   5.543   9.068  1.1864 -1.9838 -1.2940
24690SOL    HW276963   7.463   5.418   9.062 -0.7637 -0.9066  1.2738
24691SOL     OW76964   8.041   1.628   6.653 -0.4225 -0.4268  0.1367
24691SOL    HW176965   8.024   1.572   6.577  0.2860 -0.3955 -0.0576
24691SOL    HW276966   8.062   1.568   6.724 -0.5409 -0.4365  0.1639
24692SOL     OW76967   3.412   2.381   7.094  0.0828  0.0391 -0.0964
24692SOL    HW176968   3.376   2.349   7.176  2.4024 -1.4906  0.4079
24692SOL    HW276969   3.399   2.309   7.032  1.9637 -0.4684  0.0425
24693SOL     OW76970   9.344   2.978   1.417  0.1867  0.0611 -0.3864
24693SOL    HW176971   9.348   3.023   1.501  1.0685 -2.1626  0.8489
24693SOL    HW276972   9.264   3.012   1.375 -0.4961  0.9356  1.5112
24694SOL     OW76973   7.497   3.572   4.558  0.6725 -0.3808  0.3169
24694SOL    HW176974   7.418   3.520   4.569  0.5201 -0.1799  0.1965
24694SOL    HW276975   7.480   3.625   4.479  1.2441 -0.9106 -0.1724
24695SOL     OW76976   9.380   6.968   6.192  0.3304  0.0261  0.1834
24695SOL    HW176977   9.422   6.893   6.234  0.3823  0.6150  1.2167
24695SOL    HW276978   9.299   6.933   6.156 -0.4143 -0.2450  2.0086
24696SOL     OW76979   6.984   5.049   1.659  0.4368 -0.5284  0.2558
24696SOL    HW176980   6.988   5.008   1.573  0.3581 -0.1673  0.0766
24696SOL    HW276981   7.036   5.129   1.649  1.0536 -0.8587  0.7564
24697SOL     OW76982   0.793   7.880   3.979  0.2214 -0.4253  0.0447
24697SOL    HW176983   0.706   7.916   3.964 -0.5435 -2.0284  0.3835
24697SOL    HW276984   0.849   7.956   3.993 -1.0239  0.6592 -0.6444
24698SOL     OW76985   4.704   0.976   4.285 -0.2154 -0.5974 -0.0216
24698SOL    HW176986   4.757   0.944   4.212  0.6276  1.9447 -0.6454
24698SOL    HW276987   4.631   0.914   4.291  1.1981 -2.4708 -1.1364
24699SOL     OW76988   5.142   4.944   5.805  0.4669  0.5511 -0.2914
24699SOL    HW176989   5.077   4.925   5.738  0.1531  2.8175 -0.7239
24699SOL    HW276990   5.096   4.997   5.870  1.1510 -0.3535  0.9918
24700SOL     OW76991   2.201   7.141   5.261 -0.4297 -0.2064 -0.2869
24700SOL    HW176992   2.215   7.079   5.333 -1.6006  0.8217  0.8940
24700SOL    HW276993   2.106   7.149   5.255 -0.3183  0.5585 -1.2199
24701SOL     OW76994   4.568   2.383   2.271 -0.1240  0.3487  0.4099
24701SOL    HW176995   4.535   2.317   2.333 -1.9981 -0.5075 -1.3915
24701SOL    HW276996   4.514   2.460   2.288 -0.3893  0.2327  0.0973
24702SOL     OW76997   6.953   2.240   3.385 -0.1205 -0.5354  0.1940
24702SOL    HW176998   6.928   2.188   3.309  1.6128 -2.7665  1.0411
24702SOL    HW276999   6.918   2.191   3.460 -1.1572  1.2311  0.9337
24703SOL     OW77000   3.209   6.079   4.534 -0.4340 -0.1470  0.7920
24703SOL    HW177001   3.180   6.026   4.460 -1.0760  0.9534  0.2192
24703SOL    HW277002   3.190   6.026   4.611 -2.4382 -0.1755  0.3401
24704SOL     OW77003   1.000   3.301   2.070 -0.0043  0.3453  0.2832
24704SOL    HW177004   0.911   3.336   2.064  0.6786  2.0620 -0.9053
24704SOL    HW277005   1.038   3.346   2.146  0.2719  0.7290 -0.0742
24705SOL     OW77006   4.306   7.785   7.434 -0.3049  0.3222  0.3415
24705SOL    HW177007   4.271   7.826   7.513 -0.7039  1.3257 -0.3378
24705SOL    HW277008   4.398   7.813   7.432 -0.9300  2.4914 -0.8948
24706SOL     OW77009   2.384   5.648   4.593 -0.4585 -0.2609  0.0483
24706SOL    HW177010   2.397   5.599   4.512 -0.3069 -2.4541  1.2972
24706SOL    HW277011   2.445   5.721   4.587 -0.8769 -0.0221 -2.0382
24707SOL     OW77012   8.009   5.083   0.157 -0.6624  0.1436 -0.2542
24707SOL    HW177013   8.012   5.133   0.239 -0.0312  0.0755 -0.2359
24707SOL    HW277014   7.920   5.098   0.124 -0.6256  0.9130 -0.0202
24708SOL     OW77015   8.400   0.368   7.352  0.4722  0.1590 -0.3337
24708SOL    HW177016   8.446   0.441   7.311  0.7508  0.3787  0.3637
24708SOL    HW277017   8.411   0.381   7.446  1.3714 -1.3021 -0.1925
24709SOL     OW77018   2.005   5.868   4.782 -0.1995  0.8365  0.2701
24709SOL    HW177019   1.977   5.955   4.810 -0.1082  1.9669 -2.8232
24709SOL    HW277020   1.927   5.813   4.794 -0.1106  1.1373  2.7172
24710SOL     OW77021   3.779   1.749   4.338 -0.1843  0.6744  0.0456
24710SOL    HW177022   3.857   1.768   4.287  0.0805 -0.0585  0.1621
24710SOL    HW277023   3.708   1.748   4.274 -0.0759  1.1714 -0.0867
24711SOL     OW77024   2.152   4.564   9.394 -0.0780 -0.0057 -0.0743
24711SOL    HW177025   2.112   4.551   9.480  0.1812 -0.6962 -0.0495
24711SOL    HW277026   2.084   4.608   9.342 -0.2307  0.4137  0.4805
24712SOL     OW77027   5.354   5.538   1.053 -0.2736 -0.6022 -0.0861
24712SOL    HW177028   5.342   5.557   0.960 -0.3218 -0.3907 -0.0363
24712SOL    HW277029   5.267   5.545   1.090 -0.0814  0.4728  0.1906
24713SOL     OW77030   4.451   3.825   9.110  0.0304  0.2939 -0.0108
24713SOL    HW177031   4.384   3.757   9.116 -1.5270  1.8691  1.6662
24713SOL    HW277032   4.475   3.828   9.018 -1.3062 -1.1452 -0.4443
24714SOL     OW77033   2.795   1.623   3.848  0.1739 -0.5856  0.1168
24714SOL    HW177034   2.803   1.710   3.886  1.8696 -0.2743 -0.8392
24714SOL    HW277035   2.862   1.570   3.891 -0.3681 -1.2412  0.1892
24715SOL     OW77036   6.731   9.613   3.828  0.5602  0.4660 -0.3960
24715SOL    HW177037   6.669   9.685   3.841  0.8653  0.8048 -0.8261
24715SOL    HW277038   6.731   9.598   3.734 -1.7596 -2.0811 -0.1571
24716SOL     OW77039   3.364   9.111   8.969 -0.2003 -0.3488  0.3234
24716SOL    HW177040   3.428   9.097   9.039  1.3681  3.4425 -0.1181
24716SOL    HW277041   3.317   9.190   8.994 -1.6790 -0.5660 -1.5261
24717SOL     OW77042   0.695   4.662   2.214 -0.0735 -0.2557 -0.2014
24717SOL    HW177043   0.692   4.727   2.143  1.9023  1.3273  1.0427
24717SOL    HW277044   0.753   4.593   2.180  0.0523  0.0023 -0.5176
24718SOL     OW77045   6.313   2.310   0.971  0.2740  0.3691  0.6729
24718SOL    HW177046   6.400   2.336   1.002  0.9856  0.2206 -1.0816
24718SOL    HW277047   6.321   2.216   0.954 -0.0827  0.4408  0.0757
24719SOL     OW77048   2.130   0.200   4.036 -0.1121 -0.1561  0.1272
24719SOL    HW177049   2.131   0.130   4.101  0.6584 -1.2867 -1.0530
24719SOL    HW277050   2.100   0.277   4.084 -2.0968 -1.5178  1.2012
24720SOL     OW77051   6.705   5.053   5.244 -0.2901  0.6638 -0.2716
24720SOL    HW177052   6.770   5.117   5.276  1.0091 -1.2690  1.1969
24720SOL    HW277053   6.757   4.976   5.224 -2.0650 -0.7115  0.2243
24721SOL     OW77054   1.851   0.060   4.989  0.1939  0.5872  0.1578
24721SOL    HW177055   1.940   0.036   4.963 -0.1579 -0.6542  0.0384
24721SOL    HW277056   1.820   0.115   4.917  0.3937 -0.1048 -0.4716
24722SOL     OW77057   4.708   8.937   3.347 -0.1431 -0.6388  0.0443
24722SOL    HW177058   4.649   8.916   3.419 -1.4808 -0.3310 -0.9171
24722SOL    HW277059   4.748   8.853   3.324 -0.3773 -0.8954  0.5642
24723SOL     OW77060   4.225   4.778   2.857  0.0375 -0.2182  0.2067
24723SOL    HW177061   4.260   4.867   2.855  0.8940 -0.5476 -1.8980
24723SOL    HW277062   4.130   4.789   2.859  0.1014  0.7795 -0.9669
24724SOL     OW77063   1.034   3.229   6.207  0.0263 -0.5245  0.0751
24724SOL    HW177064   1.011   3.294   6.273  0.0539  1.3573 -1.6735
24724SOL    HW277065   1.111   3.185   6.244 -0.3150  0.0303  1.5404
24725SOL     OW77066   5.474   8.951   4.075 -0.4742  0.4134 -0.3493
24725SOL    HW177067   5.475   8.904   3.992 -2.2644 -1.6992  0.7420
24725SOL    HW277068   5.401   8.914   4.123  0.3726  1.7306  2.1145
24726SOL     OW77069   8.036   1.657   4.877  0.1172  0.8881 -0.6658
24726SOL    HW177070   8.035   1.708   4.796  0.9255  2.2767  0.1489
24726SOL    HW277071   7.987   1.711   4.940  1.1207  0.7668  0.2560
24727SOL     OW77072   8.224   3.086   5.908 -0.1682  0.3905 -0.1805
24727SOL    HW177073   8.141   3.080   5.955 -0.0654 -1.4632 -0.1525
24727SOL    HW277074   8.222   3.011   5.847  1.7005 -0.0364  0.2256
24728SOL     OW77075   3.968   0.865   7.753  1.0688 -0.1837 -0.6194
24728SOL    HW177076   3.993   0.805   7.823 -0.1085 -0.7815 -0.6953
24728SOL    HW277077   4.032   0.848   7.683  0.2869 -1.9538 -0.9660
24729SOL     OW77078   1.509   8.015   5.294 -0.3093  0.1628 -0.0305
24729SOL    HW177079   1.533   8.061   5.213  0.6318 -2.0015 -1.0742
24729SOL    HW277080   1.588   8.019   5.348 -0.7444  1.0876  0.5685
24730SOL     OW77081   7.778   5.744   0.410  0.5157 -0.1483 -0.1269
24730SOL    HW177082   7.710   5.717   0.348  0.6725 -3.0420  0.8270
24730SOL    HW277083   7.738   5.734   0.496  1.2305  1.0368  0.3655
24731SOL     OW77084   3.622   9.398   8.935  0.0411  0.6744  0.1360
24731SOL    HW177085   3.570   9.477   8.950 -0.2049  0.5354  0.0311
24731SOL    HW277086   3.678   9.419   8.861 -0.5383  0.5123 -0.3598
24732SOL     OW77087   9.252   6.618   2.716 -0.0627  0.1242  0.5807
24732SOL    HW177088   9.346   6.627   2.698  0.4948 -2.9168  1.3765
24732SOL    HW277089   9.228   6.699   2.761  2.4233  0.6030  1.1979
24733SOL     OW77090   7.613   4.556   3.487 -0.1317  0.6001 -0.6031
24733SOL    HW177091   7.519   4.543   3.473 -0.1031 -0.3320  0.0247
24733SOL    HW277092   7.641   4.480   3.537  0.6526  1.6583  0.6421
24734SOL     OW77093   2.256   1.969   4.701 -0.5292 -0.1471  0.4166
24734SOL    HW177094   2.298   1.884   4.694  0.8088  0.4067  1.2772
24734SOL    HW277095   2.288   2.006   4.783 -1.2750  1.0827  0.1949
24735SOL     OW77096   0.495   0.337   8.117  0.4355  0.4371 -0.6500
24735SOL    HW177097   0.416   0.307   8.162 -1.2197 -0.7446 -4.0184
24735SOL    HW277098   0.466   0.412   8.066  1.6191  0.2773 -1.5830
24736SOL     OW77099   7.414   7.101   3.069 -0.3949 -0.0798  0.0775
24736SOL    HW177100   7.502   7.064   3.074 -0.5824 -0.4657  0.5946
24736SOL    HW277101   7.391   7.094   2.976 -0.9247 -2.4765  0.3222
24737SOL     OW77102   6.897   7.266   6.742 -0.1619  0.0406 -0.6738
24737SOL    HW177103   6.826   7.280   6.679  1.3038  2.6686 -1.8916
24737SOL    HW277104   6.968   7.227   6.691  0.1061 -0.3699 -0.0088
24738SOL     OW77105   6.510   8.193   1.565  0.3838  0.3436 -0.2584
24738SOL    HW177106   6.556   8.134   1.506  0.0091 -0.9238  0.6627
24738SOL    HW277107   6.420   8.158   1.568  0.9305 -1.1866  2.8863
24739SOL     OW77108   6.630   1.329   0.003 -0.1238  0.1393 -0.1781
24739SOL    HW177109   6.701   1.378  -0.039 -0.9177  2.0792  0.6216
24739SOL    HW277110   6.583   1.395   0.054 -2.7011 -1.0325 -0.9205
24740SOL     OW77111   0.446   6.829   1.797 -0.4459 -0.2359 -0.0938
24740SOL    HW177112   0.370   6.885   1.778  0.3268  1.2096  0.8380
24740SOL    HW277113   0.513   6.860   1.737 -0.2923 -0.8183 -0.2221
24741SOL     OW77114   0.170   5.379   4.737  0.2340  0.0615  0.7886
24741SOL    HW177115   0.263   5.372   4.761  0.1366 -1.3971  0.8505
24741SOL    HW277116   0.151   5.296   4.694 -1.3810 -0.2188  1.9783
24742SOL     OW77117   4.891   0.398   8.553  0.3549 -0.3613 -0.0795
24742SOL    HW177118   4.821   0.378   8.615  0.3201 -0.2039 -0.0681
24742SOL    HW277119   4.845   0.435   8.477  0.6190  2.5972  1.0734
24743SOL     OW77120   2.637   8.105   9.615  0.8184 -0.6021  0.5401
24743SOL    HW177121   2.615   8.131   9.704  0.6799  2.0258 -0.1658
24743SOL    HW277122   2.731   8.119   9.607  0.7184 -0.1449  0.0859
24744SOL     OW77123   6.786   5.290   6.122  0.3201 -0.2671  0.7076
24744SOL    HW177124   6.726   5.235   6.071  0.9528 -0.5933  0.3069
24744SOL    HW277125   6.859   5.232   6.144  1.4014  0.6160 -0.4322
24745SOL     OW77126   4.684   2.959   4.752 -0.1216  0.0402  0.0151
24745SOL    HW177127   4.713   2.893   4.689  1.6421  1.8753 -1.2069
24745SOL    HW277128   4.762   2.981   4.803 -1.2075 -0.4403  2.0233
24746SOL     OW77129   5.611   7.582   4.440  0.2640  0.2478 -0.0180
24746SOL    HW177130   5.521   7.607   4.419 -0.3500 -0.9538  1.0327
24746SOL    HW277131   5.644   7.540   4.361 -0.5025 -0.3236 -0.0449
24747SOL     OW77132   0.088   8.133   8.218 -0.5345  0.3291  0.0861
24747SOL    HW177133   0.092   8.100   8.128 -0.5057 -0.5202  0.3893
24747SOL    HW277134  -0.005   8.151   8.233 -0.2677  3.0505 -0.9925
24748SOL     OW77135   3.474   3.203   5.067  0.8720 -0.0233  0.2949
24748SOL    HW177136   3.472   3.143   4.992 -0.9821  0.2803  0.0699
24748SOL    HW277137   3.383   3.228   5.080  1.5814  2.7060  0.4389
24749SOL     OW77138   0.980   9.056   3.541  0.5908  0.0861  0.3752
24749SOL    HW177139   0.912   9.039   3.476  1.5353 -1.6436 -0.2284
24749SOL    HW277140   0.936   9.043   3.626  0.4458 -2.5036 -0.0134
24750SOL     OW77141   8.389   9.391   5.390 -0.5116  0.2597 -0.0757
24750SOL    HW177142   8.451   9.333   5.434  0.3040 -0.1840 -1.7320
24750SOL    HW277143   8.308   9.382   5.440 -0.2248 -1.8278  0.1002
24751SOL     OW77144   8.214   7.171   6.080  0.0544 -0.0878 -0.5640
24751SOL    HW177145   8.285   7.174   6.143 -1.7167 -0.2747  1.5668
24751SOL    HW277146   8.178   7.082   6.088 -0.8033  0.1896 -1.1513
24752SOL     OW77147   8.418   3.677   0.662  0.0671 -0.2565 -0.5443
24752SOL    HW177148   8.426   3.586   0.690  0.2965  0.0863  0.5373
24752SOL    HW277149   8.439   3.675   0.568 -0.3951 -1.3799 -0.6359
24753SOL     OW77150   7.034   5.351   2.938  0.0312  0.0769 -0.0217
24753SOL    HW177151   6.947   5.342   2.901  0.5114  0.0637 -1.1755
24753SOL    HW277152   7.059   5.261   2.961  1.7105 -0.8367 -4.3860
24754SOL     OW77153   7.194   3.829   9.274 -0.5627 -0.4814 -0.2065
24754SOL    HW177154   7.268   3.771   9.290 -1.5389 -1.8434 -0.4982
24754SOL    HW277155   7.117   3.778   9.298 -1.5369  0.2856 -1.5533
24755SOL     OW77156   1.697   7.348   4.741 -0.2854 -0.0054 -0.4526
24755SOL    HW177157   1.657   7.435   4.747 -0.5655 -0.0774 -1.2304
24755SOL    HW277158   1.634   7.289   4.782 -0.2933  0.0917 -0.3237
24756SOL     OW77159   3.959   4.152   7.892  0.2070 -0.3718  0.0384
24756SOL    HW177160   4.021   4.084   7.916 -0.6776 -0.5902  1.9098
24756SOL    HW277161   3.906   4.165   7.971 -1.3534  0.6313 -1.1121
24757SOL     OW77162   0.116   4.967   4.152 -0.1129  0.6777 -0.6581
24757SOL    HW177163   0.084   5.049   4.115 -0.5879  0.1259 -1.5206
24757SOL    HW277164   0.037   4.921   4.180  0.0663  0.1248 -1.0380
24758SOL     OW77165   8.049   4.815   9.011 -0.0108  0.0689 -0.4500
24758SOL    HW177166   8.101   4.795   8.934  0.0641 -0.8363 -0.1739
24758SOL    HW277167   8.075   4.750   9.076 -0.6398  0.3249  0.0766
24759SOL     OW77168   1.730   2.761   3.358 -0.8855  0.3616  0.2004
24759SOL    HW177169   1.712   2.854   3.372 -1.3386  0.1087  1.3835
24759SOL    HW277170   1.682   2.716   3.427  0.9219 -0.6317  0.8796
24760SOL     OW77171   4.470   0.783   7.139 -0.1803  0.2198 -0.0493
24760SOL    HW177172   4.535   0.844   7.103 -0.7523  1.5170  1.0230
24760SOL    HW277173   4.522   0.715   7.182  0.4969  1.2090  0.7426
24761SOL     OW77174   7.669   7.106   8.933  0.9738  0.0810  0.9872
24761SOL    HW177175   7.646   7.194   8.960 -0.3160 -0.3502  1.3473
24761SOL    HW277176   7.654   7.052   9.011  1.0464 -0.5683  0.5599
24762SOL     OW77177   9.018   7.227   0.837  0.7743 -0.2772  0.0089
24762SOL    HW177178   8.995   7.137   0.859  0.2165 -0.2795 -0.5634
24762SOL    HW277179   9.058   7.221   0.751  1.4155 -0.0611  0.2836
24763SOL     OW77180   4.869   5.133   1.139 -0.1162 -0.1153  0.2158
24763SOL    HW177181   4.775   5.131   1.118  0.2705 -1.0323 -1.7156
24763SOL    HW277182   4.901   5.212   1.095  0.1619 -0.2769  0.1261
24764SOL     OW77183   2.428   8.972   3.322 -0.2945  0.5308 -0.6950
24764SOL    HW177184   2.373   9.006   3.252 -1.4242  1.9851  0.8123
24764SOL    HW277185   2.366   8.926   3.380  0.6683 -0.9755 -0.7963
24765SOL     OW77186   3.538   0.339   6.312  0.6896 -0.0600 -0.0172
24765SOL    HW177187   3.446   0.320   6.330  0.7853 -0.7321 -0.2117
24765SOL    HW277188   3.538   0.430   6.282  0.4706  1.0237  2.9373
24766SOL     OW77189   5.610   7.410   7.929  0.1794  0.5551  0.2443
24766SOL    HW177190   5.658   7.451   8.001 -0.5471  2.6778 -0.3919
24766SOL    HW277191   5.548   7.351   7.972  2.0690 -0.9091  1.1438
24767SOL     OW77192   6.915   5.102   9.547 -0.1176  0.5346 -0.6247
24767SOL    HW177193   6.999   5.146   9.562  0.3012 -0.3012 -0.4091
24767SOL    HW277194   6.924   5.018   9.593 -0.9583  0.3040 -0.8625
24768SOL     OW77195   8.298   7.857   0.920 -0.1290 -0.0961 -0.1146
24768SOL    HW177196   8.345   7.921   0.867 -0.8809  0.1125 -0.5405
24768SOL    HW277197   8.363   7.825   0.983  0.0994  1.4917  0.4873
24769SOL     OW77198   1.207   1.977   3.333 -0.9209  0.1488 -0.4781
24769SOL    HW177199   1.245   1.965   3.246  0.5443  1.6525 -0.0918
24769SOL    HW277200   1.118   1.943   3.325  0.1329 -2.5809 -1.7075
24770SOL     OW77201   0.038   4.825   9.494 -0.8747  0.2271  0.1107
24770SOL    HW177202   0.084   4.822   9.410 -2.0292  1.0775 -0.5868
24770SOL    HW277203   0.030   4.734   9.521 -0.1478 -0.0270 -0.5071
24771SOL     OW77204   9.344   2.354   7.383 -0.3385  0.2068 -0.3222
24771SOL    HW177205   9.430   2.342   7.343 -0.7723 -2.1687 -0.7174
24771SOL    HW277206   9.363   2.375   7.475  0.6790 -0.1820 -0.4274
24772SOL     OW77207   7.244   4.001   2.889  0.1001  0.2492 -0.6050
24772SOL    HW177208   7.235   3.956   2.805 -1.3354  2.2343 -1.5868
24772SOL    HW277209   7.247   4.094   2.866  1.5929  0.7659  1.4405
24773SOL     OW77210   2.833   5.884   8.496  0.7899 -0.6213  0.6283
24773SOL    HW177211   2.926   5.907   8.502  0.4324  1.3305 -0.6847
24773SOL    HW277212   2.795   5.916   8.578  1.0078 -0.0125  0.4963
24774SOL     OW77213   2.633   2.914   9.570 -0.2285  0.0633 -0.5470
24774SOL    HW177214   2.644   2.879   9.482  0.0379  1.0294 -0.9078
24774SOL    HW277215   2.722   2.919   9.605 -0.5130 -3.3554  1.0304
24775SOL     OW77216   3.217   9.638   3.917  0.4020  0.1611  0.0311
24775SOL    HW177217   3.242   9.628   3.825  0.3040  0.8146 -0.0780
24775SOL    HW277218   3.194   9.731   3.925  2.0602  0.5408  1.1074
24776SOL     OW77219   6.646   5.564   8.191  0.0592  0.4366 -0.1212
24776SOL    HW177220   6.601   5.492   8.234 -1.5769  0.7614 -1.1840
24776SOL    HW277221   6.611   5.643   8.231 -0.3536  0.7010 -0.9710
24777SOL     OW77222   1.841   5.312   5.741 -0.2170 -0.1545 -0.0494
24777SOL    HW177223   1.793   5.302   5.823 -0.9228 -2.7793 -0.6626
24777SOL    HW277224   1.784   5.366   5.686 -0.7727 -0.2210  0.4474
24778SOL     OW77225   5.281   6.667   9.321  0.0703 -0.2011 -0.4912
24778SOL    HW177226   5.319   6.660   9.233  0.0796  2.7775 -0.8278
24778SOL    HW277227   5.355   6.660   9.380  0.2734 -0.6968 -0.8013
24779SOL     OW77228   2.057   6.206   1.983  0.3882 -0.2966  0.0636
24779SOL    HW177229   2.068   6.179   1.892  0.4566 -0.5977  0.1566
24779SOL    HW277230   1.973   6.251   1.986  1.7048  2.4374 -0.7611
24780SOL     OW77231   6.669   9.016   6.390 -0.3752  0.3261  0.1486
24780SOL    HW177232   6.648   8.982   6.304 -0.0546  1.9119 -0.5846
24780SOL    HW277233   6.586   9.051   6.423 -0.1121  1.4412 -0.3400
24781SOL     OW77234   8.306   0.740   5.445 -0.1157 -0.2255 -0.0977
24781SOL    HW177235   8.314   0.661   5.391 -1.4540 -0.1045 -0.4888
24781SOL    HW277236   8.324   0.812   5.384  0.9962 -0.2004  0.2353
24782SOL     OW77237   2.403   9.496   2.699  0.3817 -0.4686 -0.7001
24782SOL    HW177238   2.337   9.530   2.640 -0.1935 -1.5069 -0.6799
24782SOL    HW277239   2.444   9.573   2.737 -0.4600  0.1908 -1.1081
24783SOL     OW77240   8.829   0.503   8.301 -0.0389  0.6756  0.4102
24783SOL    HW177241   8.752   0.506   8.357  0.4985  0.1067  1.2041
24783SOL    HW277242   8.833   0.413   8.269  0.0698  0.8079  0.0332
24784SOL     OW77243   9.113   8.961   5.866 -0.2820 -0.4792  0.6393
24784SOL    HW177244   9.113   9.032   5.801 -3.1797 -0.9583 -0.0212
24784SOL    HW277245   9.154   8.888   5.821 -0.6241 -0.2781 -0.0143
24785SOL     OW77246   9.292   7.792   5.637  0.3953 -0.3727 -0.4717
24785SOL    HW177247   9.249   7.838   5.565  1.4742  0.1659 -0.7978
24785SOL    HW277248   9.266   7.701   5.628 -0.7452 -0.0511 -0.5877
24786SOL     OW77249   8.858   5.709   0.012  0.4756  0.0025  0.1947
24786SOL    HW177250   8.860   5.767   0.088 -0.2295 -0.9130  0.9383
24786SOL    HW277251   8.828   5.765  -0.060  1.9524  1.0870  0.3671
24787SOL     OW77252   7.566   4.737   2.733  0.1338  0.0102  0.4032
24787SOL    HW177253   7.557   4.765   2.642 -1.5085 -0.3252  0.4255
24787SOL    HW277254   7.497   4.784   2.780  0.5536 -0.3017  1.3649
24788SOL     OW77255   7.644   3.550   6.324  0.3693 -0.6364 -0.7531
24788SOL    HW177256   7.654   3.457   6.304 -0.6846 -0.6591 -1.2182
24788SOL    HW277257   7.710   3.567   6.392 -0.1625 -1.9675  0.1332
24789SOL     OW77258   4.253   6.577   6.390  0.0158  0.6631  0.4190
24789SOL    HW177259   4.326   6.538   6.341 -0.2947  1.0286 -0.3622
24789SOL    HW277260   4.252   6.668   6.361 -0.8472  0.6210  0.3051
24790SOL     OW77261   3.577   1.329   5.588  0.1513 -0.0955 -0.4771
24790SOL    HW177262   3.607   1.318   5.498 -1.2572 -0.1022 -0.9735
24790SOL    HW277263   3.524   1.409   5.586 -0.5834 -0.5545  0.1404
24791SOL     OW77264   0.212   3.914   8.626 -0.0976  0.1272 -0.5151
24791SOL    HW177265   0.235   3.934   8.535 -1.2085  0.4767 -0.7386
24791SOL    HW277266   0.193   3.820   8.626  0.1294  0.0804 -0.5879
24792SOL     OW77267   9.302   6.032   3.336  0.1201 -0.4840 -0.3103
24792SOL    HW177268   9.386   6.065   3.304 -0.2015 -0.5545 -1.2404
24792SOL    HW277269   9.290   5.949   3.290 -0.7597 -0.1624 -0.6653
24793SOL     OW77270   8.883   9.474   0.972 -1.4031  0.2210 -0.4765
24793SOL    HW177271   8.870   9.381   0.952 -0.3313 -0.3309  1.1598
24793SOL    HW277272   8.888   9.477   1.068 -0.5700  1.8555 -0.5427
24794SOL     OW77273   3.166   3.062   1.757  0.0359 -0.5110 -0.6984
24794SOL    HW177274   3.096   3.127   1.749 -0.4556 -0.8113  0.8718
24794SOL    HW277275   3.163   3.034   1.848  1.5306 -1.3117 -0.8632
24795SOL     OW77276   1.131   6.156   8.851  0.4044 -0.2646 -0.1270
24795SOL    HW177277   1.085   6.081   8.890 -0.0233 -0.7914 -1.6003
24795SOL    HW277278   1.118   6.147   8.757  2.7410  0.0982 -0.5541
24796SOL     OW77279   0.935   9.160   7.478  0.1395 -0.4698  0.1943
24796SOL    HW177280   0.971   9.247   7.462  0.8851 -1.0408 -1.3965
24796SOL    HW277281   0.852   9.160   7.430 -0.9637  0.0668  1.9940
24797SOL     OW77282   0.698   3.659   4.809  0.0619  0.5723  0.0621
24797SOL    HW177283   0.699   3.733   4.871 -0.2792  2.1592 -1.7461
24797SOL    HW277284   0.723   3.697   4.725  1.1594 -1.6593 -0.6914
24798SOL     OW77285   0.787   1.895   4.689 -0.5120 -0.0416 -0.0359
24798SOL    HW177286   0.752   1.945   4.616 -2.2422 -2.8367 -1.2822
24798SOL    HW277287   0.881   1.888   4.671 -0.4048  1.7851 -0.3398
24799SOL     OW77288   4.177   7.276   8.680 -0.1724  0.3079  0.2213
24799SOL    HW177289   4.257   7.273   8.733  0.0228 -0.7304 -0.1100
24799SOL    HW277290   4.124   7.344   8.721  0.4905  0.3734  1.0064
24800SOL     OW77291   1.628   1.106   8.284 -0.6204  0.0246 -0.2285
24800SOL    HW177292   1.579   1.115   8.202 -1.6190  1.3327  0.4737
24800SOL    HW277293   1.576   1.154   8.349  0.9520  0.3762  0.8345
24801SOL     OW77294   3.597   6.491   2.062 -0.1790 -0.3123 -1.1791
24801SOL    HW177295   3.515   6.445   2.046 -0.2252 -0.1418 -1.4275
24801SOL    HW277296   3.604   6.555   1.991 -0.9898  1.3195  0.1458
24802SOL     OW77297   1.143   8.953   7.129 -0.1053  0.1947  0.3436
24802SOL    HW177298   1.060   8.925   7.168  0.5093  0.2931  1.8235
24802SOL    HW277299   1.167   8.881   7.071 -0.2333 -0.8192  1.4822
24803SOL     OW77300   6.161   2.873   2.589 -0.4831  0.0872 -0.0444
24803SOL    HW177301   6.088   2.812   2.596  0.3030 -0.7773  0.9595
24803SOL    HW277302   6.205   2.848   2.508  1.0905 -2.2113  1.3793
24804SOL     OW77303   2.886   2.118   3.671  0.6455 -0.0455  0.0910
24804SOL    HW177304   2.798   2.120   3.709  1.4933  2.6889  2.2106
24804SOL    HW277305   2.873   2.136   3.578 -1.0491 -0.0153  0.3068
24805SOL     OW77306   1.878   4.921   2.322  0.4396 -0.4748 -0.0547
24805SOL    HW177307   1.787   4.927   2.294  0.4604 -1.7386 -0.4452
24805SOL    HW277308   1.922   4.993   2.277 -0.5893  0.9867  1.1719
24806SOL     OW77309   8.327   5.959   5.450 -0.1145  0.0808  0.1470
24806SOL    HW177310   8.352   5.942   5.359  1.9985 -0.3104  0.7675
24806SOL    HW277311   8.306   6.053   5.451 -1.4885 -0.1675 -0.9891
24807SOL     OW77312   3.873   4.932   2.644  0.0561 -0.0456  0.2364
24807SOL    HW177313   3.874   4.978   2.728 -0.3876 -0.4532  0.4751
24807SOL    HW277314   3.877   4.839   2.668  1.4511 -0.1360 -0.2464
24808SOL     OW77315   0.831   9.167   6.907  0.2230 -0.4869 -0.6740
24808SOL    HW177316   0.879   9.182   6.825 -0.4269 -0.8461 -1.1230
24808SOL    HW277317   0.900   9.157   6.972  0.7582 -0.4988 -1.2279
24809SOL     OW77318   5.723   2.454   1.799  0.1453 -0.1892 -0.1532
24809SOL    HW177319   5.783   2.470   1.726  0.3278  0.9187  0.2343
24809SOL    HW277320   5.720   2.358   1.806  2.8592 -0.2883  0.6517
24810SOL     OW77321   5.277   7.409   0.016 -0.2477 -0.2529 -0.0173
24810SOL    HW177322   5.212   7.461   0.065 -0.1894  0.6438 -0.8572
24810SOL    HW277323   5.360   7.450   0.038 -0.1972  0.0015 -0.6633
24811SOL     OW77324   6.221   9.338   7.282 -0.4602 -0.5920  0.0776
24811SOL    HW177325   6.237   9.341   7.187  0.2313  0.0686  0.1979
24811SOL    HW277326   6.141   9.287   7.292  0.7288 -2.7412 -0.7019
24812SOL     OW77327   7.930   2.092   1.964 -0.5200  0.5743 -0.0824
24812SOL    HW177328   7.977   2.081   2.048 -0.5932 -0.8730 -0.1959
24812SOL    HW277329   7.844   2.053   1.980 -0.3343 -0.2482 -0.9799
24813SOL     OW77330   0.950   5.346   9.394  0.3714 -0.2528 -0.7651
24813SOL    HW177331   0.938   5.369   9.302  0.2908  0.4544 -0.5839
24813SOL    HW277332   0.896   5.268   9.406  0.1390 -0.1708 -1.2494
24814SOL     OW77333   8.433   2.167   3.245 -0.7190 -0.2638  0.1248
24814SOL    HW177334   8.437   2.077   3.214  0.9261 -0.2849  0.2974
24814SOL    HW277335   8.480   2.167   3.328 -1.4532  0.6010  0.5687
24815SOL     OW77336   0.154   2.145   9.071 -0.5549  0.5087  0.1563
24815SOL    HW177337   0.132   2.175   9.159 -0.2530  0.6509  0.1874
24815SOL    HW277338   0.209   2.215   9.035  2.4545 -1.0872  1.2114
24816SOL     OW77339   4.392   1.775   7.508  0.0270 -0.1512 -0.2524
24816SOL    HW177340   4.311   1.734   7.538  0.8061  0.0495  2.2856
24816SOL    HW277341   4.455   1.703   7.505 -0.1965 -0.3291 -2.3438
24817SOL     OW77342   2.992   4.232   3.726 -0.5646 -0.2770  0.1363
24817SOL    HW177343   2.936   4.205   3.798 -0.9556 -0.8886 -0.3838
24817SOL    HW277344   3.057   4.162   3.719  0.3983  0.5163  0.8559
24818SOL     OW77345   0.619   6.751   1.557 -0.3777  0.7831 -0.3676
24818SOL    HW177346   0.669   6.671   1.543 -0.1609  0.8648 -0.0877
24818SOL    HW277347   0.674   6.803   1.617 -2.3473 -0.6420  2.9464
24819SOL     OW77348   3.979   1.442   2.405 -0.1220  0.9105 -0.1898
24819SOL    HW177349   3.987   1.535   2.382  0.4766  0.9671  0.2179
24819SOL    HW277350   4.026   1.397   2.335 -1.6064  0.8071 -1.1471
24820SOL     OW77351   7.265   7.416   8.121  0.8863  0.3149  0.0311
24820SOL    HW177352   7.211   7.345   8.154  1.5820  0.2419  1.0333
24820SOL    HW277353   7.270   7.401   8.026  0.3317 -0.4793  0.1273
24821SOL     OW77354   4.453   9.532   7.424  0.9146  0.4002  0.1075
24821SOL    HW177355   4.463   9.441   7.396 -0.4037  0.6938 -1.4660
24821SOL    HW277356   4.408   9.526   7.509  2.0801 -0.4256  0.6940
24822SOL     OW77357   7.569   3.552   0.194 -0.2673 -0.1083  0.1890
24822SOL    HW177358   7.598   3.505   0.272 -0.2584  0.8397  0.7743
24822SOL    HW277359   7.474   3.538   0.191 -0.2264 -0.3896  0.1977
24823SOL     OW77360   8.059   6.956   2.864  0.0612  0.8164  0.3243
24823SOL    HW177361   8.030   6.964   2.773  2.6339 -1.5678 -0.8485
24823SOL    HW277362   8.038   6.865   2.888 -0.2222  1.2893  2.0025
24824SOL     OW77363   4.709   5.571   2.055 -0.2762 -0.2583 -0.1028
24824SOL    HW177364   4.738   5.567   1.964  0.6246  1.2932  0.0792
24824SOL    HW277365   4.772   5.630   2.097 -1.4384  0.0728  1.2226
24825SOL     OW77366   3.069   8.918   6.556  0.3789 -0.5562  0.1182
24825SOL    HW177367   3.064   8.904   6.461  1.5053  0.6613 -0.1681
24825SOL    HW277368   3.010   8.992   6.572 -0.2076 -1.0895  0.4679
24826SOL     OW77369   2.586   7.755   5.710 -0.2848  0.6151  0.5439
24826SOL    HW177370   2.527   7.699   5.760  1.9560 -1.5577  0.9637
24826SOL    HW277371   2.628   7.695   5.647  0.1372  2.4309 -0.9916
24827SOL     OW77372   7.054   0.029   1.993 -0.2461 -0.3860  0.6955
24827SOL    HW177373   6.971   0.019   1.947  0.2840 -4.1197  0.2021
24827SOL    HW277374   7.030   0.049   2.083 -1.6941 -1.2468  0.5232
24828SOL     OW77375   3.996   2.099   0.719 -0.7048 -0.3627 -0.2490
24828SOL    HW177376   4.006   2.162   0.790  1.6572 -1.5960  0.6371
24828SOL    HW277377   3.971   2.152   0.643 -1.4949  1.2335  1.0646
24829SOL     OW77378   8.406   8.409   0.068  0.1252  0.0972 -0.3465
24829SOL    HW177379   8.391   8.479   0.131  1.7353  0.9360 -0.8536
24829SOL    HW277380   8.428   8.333   0.122 -2.3128 -0.2812  0.2389
24830SOL     OW77381   2.857   6.565   8.811 -0.0105 -0.1341 -0.1871
24830SOL    HW177382   2.766   6.594   8.811  0.3584  1.1416 -1.4232
24830SOL    HW277383   2.879   6.556   8.904 -1.4299 -0.6666  0.1373
24831SOL     OW77384   2.930   7.410   6.345  0.2998 -0.4655 -0.0677
24831SOL    HW177385   2.882   7.491   6.363 -1.4866 -1.3060 -0.7843
24831SOL    HW277386   2.956   7.418   6.253  0.0674 -0.7190 -0.1569
24832SOL     OW77387   8.510   0.820   9.188  0.1910  0.2752 -0.0938
24832SOL    HW177388   8.514   0.742   9.243  0.4848  0.5714  0.3128
24832SOL    HW277389   8.600   0.852   9.185  0.4691 -0.5318 -1.9363
24833SOL     OW77390   7.025   0.402   3.109  0.1779  0.3573  0.5221
24833SOL    HW177391   7.065   0.459   3.174  1.0114 -1.8479  2.0534
24833SOL    HW277392   7.093   0.337   3.089 -0.8444 -0.3306 -0.8804
24834SOL     OW77393   5.274   8.457   5.004  0.1350  0.2644 -0.4937
24834SOL    HW177394   5.323   8.455   4.922  2.7907 -0.3354  1.0127
24834SOL    HW277395   5.213   8.384   4.997 -0.6356  1.0308 -2.4209
24835SOL     OW77396   7.868   6.404   1.120 -0.0222 -0.9582 -0.3464
24835SOL    HW177397   7.929   6.356   1.177 -1.2416  1.4747  3.4377
24835SOL    HW277398   7.788   6.353   1.123  0.9228 -2.8608 -3.3114
24836SOL     OW77399   6.170   9.080   6.083  0.1697  0.2904  0.0389
24836SOL    HW177400   6.205   9.057   5.997  1.5658 -1.1120  0.9186
24836SOL    HW277401   6.090   9.028   6.091  0.0344  0.4291 -0.4252
24837SOL     OW77402   6.317   4.692   3.517 -0.0430  0.3558  0.3337
24837SOL    HW177403   6.285   4.641   3.591  1.1916  1.2114  1.4980
24837SOL    HW277404   6.241   4.739   3.486 -0.5885 -0.0336  1.0460
24838SOL     OW77405   6.354   3.303   5.312  0.1040 -0.1859 -0.4218
24838SOL    HW177406   6.343   3.356   5.233 -0.4243  0.1120 -0.1579
24838SOL    HW277407   6.297   3.345   5.377  1.7357  0.5360  0.6045
24839SOL     OW77408   5.014   4.160   9.123  0.4560 -0.1807  0.3032
24839SOL    HW177409   5.090   4.137   9.071  0.7700  0.5092  0.4392
24839SOL    HW277410   4.964   4.220   9.067 -0.3534 -1.1623 -0.0550
24840SOL     OW77411   4.548   5.635   6.591 -0.1521  0.6041  0.3901
24840SOL    HW177412   4.469   5.665   6.545 -0.6542  2.0178  2.0661
24840SOL    HW277413   4.619   5.658   6.532 -0.6795  3.5072  0.7131
24841SOL     OW77414   2.479   8.931   5.347 -0.2532 -0.2615  0.1389
24841SOL    HW177415   2.492   8.838   5.363 -1.7072 -0.5565 -0.2346
24841SOL    HW277416   2.388   8.948   5.375 -1.2228  0.2689 -2.9359
24842SOL     OW77417   9.488   7.088   4.396  0.0553  0.0145  0.1873
24842SOL    HW177418   9.449   7.152   4.337 -2.3217  0.5634  2.1717
24842SOL    HW277419   9.582   7.107   4.394 -0.5034  3.4429  0.4864
24843SOL     OW77420   8.703   5.971   7.917  0.6397 -0.8087 -0.4967
24843SOL    HW177421   8.680   6.018   7.998  1.6058  0.6966 -1.0526
24843SOL    HW277422   8.732   5.885   7.947 -1.0011 -1.0313  0.5852
24844SOL     OW77423   7.530   8.361   6.201  0.5911  0.3551  0.4214
24844SOL    HW177424   7.469   8.322   6.139  0.7246  0.7736  0.0213
24844SOL    HW277425   7.570   8.434   6.153 -0.3266  1.5637  1.4419
24845SOL     OW77426   3.319   5.583   3.813  0.0078  0.3528  0.4476
24845SOL    HW177427   3.245   5.632   3.776  0.5801  2.0126  1.3921
24845SOL    HW277428   3.370   5.649   3.861  1.8446 -0.8327  0.2273
24846SOL     OW77429   1.984   6.621   5.602  0.6598 -0.6418 -0.2227
24846SOL    HW177430   1.941   6.538   5.581  2.5614 -1.5539 -0.7864
24846SOL    HW277431   1.956   6.681   5.533 -0.1428 -1.0314 -0.2459
24847SOL     OW77432   1.888   3.424   2.943  0.6607  0.1105 -0.0486
24847SOL    HW177433   1.834   3.345   2.941 -0.4306  0.7905  1.2916
24847SOL    HW277434   1.978   3.392   2.953  0.2058 -0.9480  0.7717
24848SOL     OW77435   5.290   5.598   4.197 -0.1264  1.3339 -0.3651
24848SOL    HW177436   5.198   5.623   4.204 -0.8138 -1.1674  1.1046
24848SOL    HW277437   5.314   5.616   4.107 -2.8929 -0.3821 -1.5625
24849SOL     OW77438   8.169   5.171   5.087  0.2186 -0.2620 -0.0438
24849SOL    HW177439   8.264   5.164   5.085  0.3225  1.0500 -0.5217
24849SOL    HW277440   8.151   5.253   5.133 -0.6339  0.2059 -1.1637
24850SOL     OW77441   0.862   3.325   0.340  0.0825  0.6077  0.5215
24850SOL    HW177442   0.850   3.356   0.430 -1.7513 -0.6247  0.7764
24850SOL    HW277443   0.944   3.276   0.342 -0.2215  0.1111  1.7032
24851SOL     OW77444   7.612   6.909   2.232  0.2894 -0.3956 -0.4604
24851SOL    HW177445   7.677   6.864   2.286 -0.4403 -0.9498 -0.0264
24851SOL    HW277446   7.577   6.841   2.175 -0.3219 -0.2334 -0.2878
24852SOL     OW77447   2.895   0.972   2.672 -0.2315  0.6645  0.4093
24852SOL    HW177448   2.917   0.884   2.645 -0.7864  0.5142  0.4361
24852SOL    HW277449   2.817   0.962   2.728  0.1404  1.0904  1.0281
24853SOL     OW77450   3.896   9.478   4.601  0.1371 -0.0765 -0.2010
24853SOL    HW177451   3.938   9.562   4.588  0.3361 -0.2102 -0.4250
24853SOL    HW277452   3.810   9.487   4.558 -0.8887  0.8477  1.8956
24854SOL     OW77453   6.166   1.006   1.523 -0.4115  0.1679  1.0899
24854SOL    HW177454   6.193   1.094   1.550 -0.0447  0.5052 -0.2859
24854SOL    HW277455   6.098   1.021   1.457  1.0262 -0.4929 -0.6161
24855SOL     OW77456   9.489   3.338   8.075  1.0252  0.0549 -0.1901
24855SOL    HW177457   9.548   3.276   8.117  1.2945 -0.1412 -0.8421
24855SOL    HW277458   9.507   3.329   7.981  1.1281  1.1842 -0.2953
24856SOL     OW77459   1.230   1.578   1.130  0.0325 -0.4272 -0.0161
24856SOL    HW177460   1.279   1.555   1.209  0.1416 -2.7830 -0.7069
24856SOL    HW277461   1.160   1.635   1.161  1.8853  1.2934  1.2900
24857SOL     OW77462   3.654   3.720   9.390 -0.1772  0.1781  0.4932
24857SOL    HW177463   3.637   3.730   9.483 -0.0706  0.1729  0.5133
24857SOL    HW277464   3.600   3.788   9.348 -0.8745 -0.3664  0.4983
24858SOL     OW77465   0.028   4.069   9.509 -0.1243  0.5980  0.4236
24858SOL    HW177466   0.043   4.072   9.604 -0.1419  1.4745  0.4090
24858SOL    HW277467   0.039   3.977   9.486  0.4865  0.4655  1.1830
24859SOL     OW77468   1.067   3.700   1.615 -0.1449  0.2776 -0.0453
24859SOL    HW177469   1.110   3.629   1.662  0.1233  0.7747  0.4709
24859SOL    HW277470   1.086   3.683   1.522 -1.1548 -1.0220 -0.0453
24860SOL     OW77471   0.127   7.810   1.532 -0.3079 -0.1418 -0.1759
24860SOL    HW177472   0.068   7.795   1.606  0.0147  0.1993  0.1521
24860SOL    HW277473   0.146   7.722   1.500 -0.3638 -0.3013  0.2148
24861SOL     OW77474   6.434   9.214   7.430  0.4531 -0.1808  0.0742
24861SOL    HW177475   6.457   9.246   7.517  0.3463  0.4750 -0.1315
24861SOL    HW277476   6.371   9.278   7.397 -0.8129 -1.3082  0.1762
24862SOL     OW77477   3.491   6.291   4.829 -0.4913 -0.5358  0.1267
24862SOL    HW177478   3.471   6.263   4.918  1.1613  0.1822  0.7572
24862SOL    HW277479   3.406   6.320   4.794 -1.1434 -0.6812  1.5090
24863SOL     OW77480   2.090   8.087   7.154  0.2927  0.0689  0.0654
24863SOL    HW177481   2.039   8.110   7.232  0.7503 -0.8841  0.6572
24863SOL    HW277482   2.093   7.992   7.154  4.2558  0.0317  1.5449
24864SOL     OW77483   3.788   0.742   7.549 -0.1185  0.1998 -0.1629
24864SOL    HW177484   3.763   0.827   7.513 -1.0760  0.2881  0.6414
24864SOL    HW277485   3.728   0.730   7.623 -0.1000 -1.2425 -0.3598
24865SOL     OW77486   8.164   2.392   7.367  0.4491  0.8999  0.0560
24865SOL    HW177487   8.159   2.487   7.374 -2.1812  0.8651 -0.3039
24865SOL    HW277488   8.131   2.360   7.451 -0.3710  0.3220 -0.4812
24866SOL     OW77489   7.804   7.192   6.678  0.4418  0.0657 -0.0147
24866SOL    HW177490   7.879   7.180   6.619 -0.1064 -1.1882 -0.5001
24866SOL    HW277491   7.842   7.200   6.765  1.2251  1.1666 -0.4350
24867SOL     OW77492   7.189   3.244   6.865  0.0371  0.4558  0.1341
24867SOL    HW177493   7.197   3.320   6.807  1.4061  1.2262  1.2816
24867SOL    HW277494   7.277   3.206   6.867 -0.1796 -0.0307  1.0522
24868SOL     OW77495   5.098   7.399   8.902  0.5677  0.1314  0.3802
24868SOL    HW177496   5.088   7.346   8.823 -0.7871  1.2767 -0.2565
24868SOL    HW277497   5.111   7.335   8.972  0.2436 -0.9768 -0.5429
24869SOL     OW77498   4.279   4.515   4.876  0.2492 -0.0709  0.4363
24869SOL    HW177499   4.306   4.519   4.968  0.3285  1.6328  0.3615
24869SOL    HW277500   4.360   4.497   4.828  0.3599 -0.0747  0.6224
24870SOL     OW77501   1.293   3.693   3.749  0.0870  0.1320 -0.2060
24870SOL    HW177502   1.278   3.601   3.724 -0.4761 -0.1329  1.0676
24870SOL    HW277503   1.214   3.739   3.720 -0.5277 -0.1610  0.9443
24871SOL     OW77504   4.704   2.782   2.928  0.7182 -0.0515  0.3180
24871SOL    HW177505   4.623   2.733   2.914  1.3376 -0.4470 -2.5019
24871SOL    HW277506   4.705   2.848   2.859  2.5507  0.2942  0.6118
24872SOL     OW77507   9.575   1.193   0.182 -0.0480 -0.0534 -0.2274
24872SOL    HW177508   9.553   1.178   0.090 -1.4101 -2.7200  0.4335
24872SOL    HW277509   9.497   1.166   0.231  0.7745  0.9273  1.7506
24873SOL     OW77510   6.770   4.542   4.863 -0.3725  0.4777 -0.0500
24873SOL    HW177511   6.815   4.462   4.889 -0.1709  0.6035 -0.0040
24873SOL    HW277512   6.721   4.569   4.941 -3.4685 -1.5902 -1.1021
24874SOL     OW77513   5.028   6.114   8.549  0.1850  0.0084  0.3163
24874SOL    HW177514   5.123   6.115   8.542  0.1041 -0.2121 -1.0213
24874SOL    HW277515   5.005   6.201   8.583  0.7309  0.8826 -1.4590
24875SOL     OW77516   6.434   1.092   6.415  0.0174  0.0975  0.1713
24875SOL    HW177517   6.523   1.127   6.414 -0.0812  0.3411 -0.3905
24875SOL    HW277518   6.399   1.118   6.501  0.2587  0.5892  0.1242
24876SOL     OW77519   7.613   2.550   4.116  0.0782 -0.0525  0.7865
24876SOL    HW177520   7.659   2.605   4.053  1.0808  0.1412  1.6505
24876SOL    HW277521   7.540   2.604   4.145 -0.1302  0.0279  0.1316
24877SOL     OW77522   4.719   7.420   5.348 -0.5774 -0.0473  0.3474
24877SOL    HW177523   4.790   7.423   5.283  0.4382 -1.2163  1.3359
24877SOL    HW277524   4.639   7.433   5.298  0.0267 -2.5147 -1.4332
24878SOL     OW77525   3.871   3.571   6.426 -0.1724  0.1175 -0.7982
24878SOL    HW177526   3.826   3.653   6.443  1.0400  0.7414 -0.5078
24878SOL    HW277527   3.801   3.507   6.412 -1.1498  0.8213  0.6948
24879SOL     OW77528   6.826   4.391   8.158  0.4918  0.1707 -0.5090
24879SOL    HW177529   6.819   4.465   8.218 -0.2957 -0.3867  0.1086
24879SOL    HW277530   6.752   4.402   8.098 -0.9070 -1.2182  0.8764
24880SOL     OW77531   3.920   9.152   6.687  0.3271  0.1288 -0.9588
24880SOL    HW177532   3.850   9.174   6.748  0.7291  1.9373 -1.0745
24880SOL    HW277533   3.900   9.201   6.608  0.0322 -1.8770 -2.1856
24881SOL     OW77534   8.968   8.526   5.582  0.2872 -0.0105  0.1003
24881SOL    HW177535   8.922   8.599   5.541  1.9333  0.9765 -0.1059
24881SOL    HW277536   8.954   8.538   5.676  0.7581  0.7529  0.0824
24882SOL     OW77537   7.622   3.377   4.314  0.3698  0.0620 -0.4018
24882SOL    HW177538   7.532   3.344   4.321  0.2514  0.5269  0.3553
24882SOL    HW277539   7.645   3.404   4.403  1.3746 -0.3269 -0.5261
24883SOL     OW77540   5.209   6.211   0.909  0.1792 -0.1739 -0.6916
24883SOL    HW177541   5.261   6.291   0.900  0.7164 -0.1731  1.7115
24883SOL    HW277542   5.168   6.218   0.996 -0.0642 -2.3258 -0.5647
24884SOL     OW77543   2.994   9.339   7.092  0.0969 -0.4014 -0.1588
24884SOL    HW177544   2.956   9.365   7.176 -0.2435 -0.5345 -0.2706
24884SOL    HW277545   3.030   9.252   7.108 -0.4757 -0.6640 -0.3068
24885SOL     OW77546   0.137   3.016   0.823  0.0566  0.5301  0.8336
24885SOL    HW177547   0.155   2.928   0.858  1.4555  0.1660 -0.6571
24885SOL    HW277548   0.042   3.017   0.809 -0.0701 -0.5121  1.4788
24886SOL     OW77549   3.749   2.824   4.518 -0.0488 -0.0509 -0.1069
24886SOL    HW177550   3.791   2.891   4.464 -0.0315  2.4408  2.7358
24886SOL    HW277551   3.822   2.768   4.548  0.3090  0.2164 -0.4771
24887SOL     OW77552   9.490   4.608   0.450  0.0716  0.0300 -0.0069
24887SOL    HW177553   9.438   4.686   0.470 -0.3706  0.4212 -2.4424
24887SOL    HW277554   9.462   4.581   0.363  2.2786 -1.1423 -0.4372
24888SOL     OW77555   2.401   0.345   3.798  1.0122  0.0951  0.1523
24888SOL    HW177556   2.386   0.274   3.860  0.4347 -0.9528 -1.1543
24888SOL    HW277557   2.370   0.311   3.714  1.6206  1.5403 -0.6898
24889SOL     OW77558   6.691   5.620   0.541  0.3542  0.4425  0.0672
24889SOL    HW177559   6.747   5.571   0.481  0.1533 -0.7010  0.7885
24889SOL    HW277560   6.633   5.671   0.483 -0.5995 -1.5043 -0.7740
24890SOL     OW77561   5.095   7.060   5.637 -0.2607 -0.3040 -0.3070
24890SOL    HW177562   5.151   7.069   5.714  0.4158 -1.4032 -0.6534
24890SOL    HW277563   5.082   7.150   5.606  1.6811 -0.0449 -0.4831
24891SOL     OW77564   8.467   5.055   1.582  0.1354  0.4056 -0.2190
24891SOL    HW177565   8.492   4.987   1.645 -0.5496  1.1433  0.8967
24891SOL    HW277566   8.373   5.041   1.567  0.0603  0.8896 -0.2328
24892SOL     OW77567   4.754   1.245   2.668  0.1647  0.4025 -0.1389
24892SOL    HW177568   4.803   1.286   2.739 -1.3729 -1.1473  1.9566
24892SOL    HW277569   4.675   1.211   2.710 -0.4222 -1.3614 -2.4611
24893SOL     OW77570   9.257   4.435   7.293 -0.1427  0.5506  0.5601
24893SOL    HW177571   9.162   4.425   7.281 -0.0113  0.1756 -0.2321
24893SOL    HW277572   9.268   4.439   7.388 -0.6839 -2.4513  0.8599
24894SOL     OW77573   6.695   6.910   9.000 -0.3294 -0.1023 -0.0663
24894SOL    HW177574   6.711   6.963   9.078 -1.5106 -1.1216  0.9291
24894SOL    HW277575   6.782   6.898   8.960  0.1247  1.4259  0.4202
24895SOL     OW77576   7.254   3.170   5.329  0.5548 -0.0275  0.4227
24895SOL    HW177577   7.195   3.099   5.302 -1.2825  1.3813  0.5222
24895SOL    HW277578   7.266   3.222   5.250  1.9793 -0.4832  0.3245
24896SOL     OW77579   1.645   3.145   2.541  0.0440  0.6012  0.0613
24896SOL    HW177580   1.646   3.220   2.482 -2.0107  0.4140 -0.2865
24896SOL    HW277581   1.564   3.099   2.520  0.9144 -1.3633  0.7222
24897SOL     OW77582   5.839   8.973   0.343  0.5989 -0.4149 -0.1499
24897SOL    HW177583   5.801   9.061   0.343  1.9488  0.2205 -0.9508
24897SOL    HW277584   5.850   8.952   0.435  0.4230  0.3476  0.0555
24898SOL     OW77585   7.031   6.275   3.032 -0.6204  0.2542 -0.2672
24898SOL    HW177586   6.984   6.193   3.017 -0.9833  0.2664  0.7817
24898SOL    HW277587   7.106   6.270   2.972 -0.6128 -0.8537 -0.1921
24899SOL     OW77588   9.440   5.308   1.535 -0.3017 -0.3009  0.4762
24899SOL    HW177589   9.387   5.379   1.498 -0.2410 -0.6753 -0.3456
24899SOL    HW277590   9.529   5.325   1.504 -0.0771 -0.1065  1.2150
24900SOL     OW77591   8.586   4.560   8.253 -0.1357 -0.2498  0.7259
24900SOL    HW177592   8.663   4.515   8.287  0.5011 -0.5700 -0.9998
24900SOL    HW277593   8.540   4.592   8.330  2.0209  0.4664  1.8043
24901SOL     OW77594   8.082   6.639   6.718  0.4081 -0.0254  0.0891
24901SOL    HW177595   8.144   6.604   6.782  0.0123 -1.6683 -0.3981
24901SOL    HW277596   7.996   6.609   6.748 -0.2578  2.4765  0.9282
24902SOL     OW77597   1.275   4.289   1.547 -0.1548  0.5856  0.0579
24902SOL    HW177598   1.190   4.285   1.589 -0.7701 -1.3249 -1.2611
24902SOL    HW277599   1.256   4.301   1.454  1.1167  2.6017 -0.0190
24903SOL     OW77600   4.777   7.420   2.564 -0.1083 -0.0139 -0.1590
24903SOL    HW177601   4.797   7.511   2.542 -0.8216 -0.2010 -1.6372
24903SOL    HW277602   4.701   7.398   2.510 -0.2403 -1.3447  0.5374
24904SOL     OW77603   2.850   1.896   6.310 -0.1258  0.3305  0.4466
24904SOL    HW177604   2.945   1.901   6.307 -0.1282  0.5473  0.7230
24904SOL    HW277605   2.826   1.856   6.226  0.3072 -1.3680  1.0854
24905SOL     OW77606   0.957   2.204   3.930 -0.5570 -0.1322 -0.7780
24905SOL    HW177607   0.993   2.145   3.864 -2.4561 -0.8250 -1.2579
24905SOL    HW277608   0.862   2.196   3.920 -0.9208 -0.1047  1.9137
24906SOL     OW77609   5.786   1.838   5.749  0.2559 -0.4554 -0.2077
24906SOL    HW177610   5.847   1.819   5.678 -0.8680 -0.6121 -1.1553
24906SOL    HW277611   5.793   1.933   5.761  1.3999 -0.5999  0.3764
24907SOL     OW77612   6.186   3.477   2.191 -0.4268  0.1612  0.3831
24907SOL    HW177613   6.152   3.519   2.112 -0.2226  3.9129  2.0584
24907SOL    HW277614   6.108   3.443   2.236 -0.8697  0.5256 -0.1050
24908SOL     OW77615   4.782   4.409   8.957  0.6747 -0.7050 -0.0645
24908SOL    HW177616   4.773   4.441   8.867  0.6210  1.8782  0.7951
24908SOL    HW277617   4.876   4.407   8.973  0.6453  0.1727  0.2511
24909SOL     OW77618   1.754   2.477   4.915  0.3860 -0.0442 -0.3052
24909SOL    HW177619   1.673   2.468   4.865  0.4824  0.3741 -0.5430
24909SOL    HW277620   1.809   2.533   4.861  0.3054  0.8278  0.4750
24910SOL     OW77621   4.245   3.418   5.955  0.1608  1.1668 -0.1380
24910SOL    HW177622   4.248   3.482   5.883 -1.3972  1.1719 -0.2302
24910SOL    HW277623   4.250   3.471   6.034 -4.9082  1.9928 -0.0386
24911SOL     OW77624   6.820   8.336   0.762  0.3405 -0.0358  0.2889
24911SOL    HW177625   6.880   8.265   0.739 -1.3210 -2.2878  2.3971
24911SOL    HW277626   6.778   8.359   0.679  3.3329  1.0121 -1.0885
24912SOL     OW77627   8.564   2.192   8.082 -0.2214 -0.3167  0.2775
24912SOL    HW177628   8.523   2.115   8.043  1.3057 -0.7694 -0.4771
24912SOL    HW277629   8.653   2.164   8.103  0.4623  1.3328 -0.3021
24913SOL     OW77630   3.377   5.604   0.544 -0.1244  0.3581 -0.2199
24913SOL    HW177631   3.312   5.649   0.490 -0.2284 -0.8243 -1.1228
24913SOL    HW277632   3.389   5.519   0.502 -0.0391 -0.5338  1.4953
24914SOL     OW77633   4.769   0.560   5.448 -0.2555 -0.3995  0.4940
24914SOL    HW177634   4.687   0.589   5.407  0.3888  2.9409  1.2261
24914SOL    HW277635   4.758   0.583   5.541  1.7427  0.9283  0.4628
24915SOL     OW77636   8.586   6.782   9.462  0.2414  0.0106  0.4142
24915SOL    HW177637   8.589   6.716   9.393  0.5658 -0.8138  1.1960
24915SOL    HW277638   8.503   6.828   9.448 -0.8374 -1.6950  0.8549
24916SOL     OW77639   5.375   4.956   8.470 -0.1529 -0.2686  0.0345
24916SOL    HW177640   5.431   4.886   8.439 -0.4936  0.1996 -1.7803
24916SOL    HW277641   5.341   4.997   8.390 -0.9498  1.1592  1.0465
24917SOL     OW77642   3.581   6.770   7.331  0.0578 -0.3453 -0.1949
24917SOL    HW177643   3.493   6.733   7.339 -0.4678  0.7931 -0.5808
24917SOL    HW277644   3.572   6.839   7.266  1.2988 -0.3813 -0.4135
24918SOL     OW77645   5.129   0.945   3.998  0.3451 -0.3105  0.6306
24918SOL    HW177646   5.206   0.928   4.053 -0.3222  1.2408  2.1342
24918SOL    HW277647   5.154   1.020   3.944  0.4974 -0.9449 -0.1970
24919SOL     OW77648   1.044   1.363   4.458 -0.4303 -1.1298  0.1048
24919SOL    HW177649   1.098   1.301   4.409  0.5195  0.8552 -1.5265
24919SOL    HW277650   0.972   1.384   4.398 -0.4826 -0.3082  0.4456
24920SOL     OW77651   5.895   7.244   6.665  0.1339  0.1589 -0.1791
24920SOL    HW177652   5.955   7.243   6.740  0.1360  1.5363 -0.1364
24920SOL    HW277653   5.935   7.304   6.603  0.4847 -1.4875 -1.6198
24921SOL     OW77654   2.789   3.636   1.892  0.1386  0.0549  0.0939
24921SOL    HW177655   2.844   3.614   1.967 -0.0867 -2.2121 -0.3389
24921SOL    HW277656   2.702   3.603   1.914 -0.7281  2.1650  0.0907
24922SOL     OW77657   6.600   1.583   1.437  0.5019 -0.5290 -0.4831
24922SOL    HW177658   6.686   1.540   1.438  0.5480 -0.4396 -0.5579
24922SOL    HW277659   6.596   1.629   1.521  0.7065 -0.1831 -0.6584
24923SOL     OW77660   5.564   0.442   5.530  0.5583 -0.0157 -0.3476
24923SOL    HW177661   5.524   0.522   5.496  0.0063 -0.5977 -1.1147
24923SOL    HW277662   5.495   0.376   5.523  1.1676 -0.6744 -0.2119
24924SOL     OW77663   0.336   1.519   4.770 -0.2096  0.2440 -0.0221
24924SOL    HW177664   0.360   1.593   4.713  0.2325  0.3164  0.2444
24924SOL    HW277665   0.270   1.555   4.829 -0.4366  0.2587 -0.2874
24925SOL     OW77666   4.812   7.713   3.645  0.0621 -0.3802 -0.2811
24925SOL    HW177667   4.721   7.711   3.614  0.3493  0.0754 -1.1875
24925SOL    HW277668   4.851   7.788   3.600  0.0497  1.4633  2.5480
24926SOL     OW77669   6.812   7.310   5.541 -0.4632  0.0447  0.1708
24926SOL    HW177670   6.816   7.268   5.627 -1.1850  1.4566  0.9439
24926SOL    HW277671   6.857   7.394   5.554 -1.2872  0.6254 -0.5936
24927SOL     OW77672   3.193   3.660   2.586 -0.0043 -0.0891 -0.5762
24927SOL    HW177673   3.268   3.614   2.549  1.1887  0.5165  0.9843
24927SOL    HW277674   3.211   3.753   2.570  0.2540  0.1486  0.9215
24928SOL     OW77675   9.487   5.834   1.222  0.0554 -0.1085 -0.4266
24928SOL    HW177676   9.531   5.749   1.214  0.1879 -0.0494 -0.3282
24928SOL    HW277677   9.557   5.899   1.212  0.0419 -0.0193  0.0369
24929SOL     OW77678   0.483   4.915   3.222 -0.5571  0.5354 -0.6529
24929SOL    HW177679   0.493   4.945   3.132 -0.1767  1.2032 -0.3935
24929SOL    HW277680   0.571   4.891   3.250 -0.9179 -1.4140 -1.0357
24930SOL     OW77681   4.919   9.404   8.740  0.1426  0.3657  0.5261
24930SOL    HW177682   4.824   9.391   8.745  0.3392 -2.2780 -0.7561
24930SOL    HW277683   4.956   9.319   8.762  2.2162  1.1636  0.3333
24931SOL     OW77684   5.038   2.705   6.397  0.7610 -0.4613  0.5129
24931SOL    HW177685   4.950   2.723   6.363  0.2618 -0.0989  1.9360
24931SOL    HW277686   5.054   2.613   6.375  0.9290  0.0363 -1.6524
24932SOL     OW77687   5.374   0.511   7.564 -0.3677  0.1894  0.2235
24932SOL    HW177688   5.408   0.421   7.566 -0.0674  0.1251 -2.9500
24932SOL    HW277689   5.453   0.565   7.558 -0.5872  0.3360 -2.1878
24933SOL     OW77690   4.637   9.050   9.123  0.2817  0.2288  0.4351
24933SOL    HW177691   4.612   9.063   9.214  0.6669  1.0996  0.4258
24933SOL    HW277692   4.704   9.116   9.106 -0.7986  1.0692 -0.8731
24934SOL     OW77693   2.322   3.689   5.790  0.1033  0.0534 -0.3399
24934SOL    HW177694   2.242   3.722   5.750  1.3869  1.7454 -1.7118
24934SOL    HW277695   2.333   3.742   5.869 -0.2893 -0.4208  0.0390
24935SOL     OW77696   2.037   0.029   6.896 -0.2176 -0.0867  1.0237
24935SOL    HW177697   2.131   0.014   6.892 -0.3892 -0.9906 -0.4052
24935SOL    HW277698   2.023   0.110   6.848 -0.3301 -0.9799 -0.5267
24936SOL     OW77699   4.754   2.079   8.853  0.3987 -0.0878  0.3474
24936SOL    HW177700   4.784   2.168   8.865 -0.6047  0.3479 -0.2204
24936SOL    HW277701   4.676   2.087   8.798  0.9611 -1.3974 -0.7107
24937SOL     OW77702   2.723   1.376   2.033 -0.3961 -0.1328  0.5144
24937SOL    HW177703   2.808   1.420   2.039 -1.5602  2.0372  2.9617
24937SOL    HW277704   2.723   1.314   2.106 -1.2155  0.5504  1.1188
24938SOL     OW77705   7.659   2.571   1.038  0.2064  0.1877 -0.1858
24938SOL    HW177706   7.631   2.481   1.023  0.0780  0.2918 -0.5794
24938SOL    HW277707   7.722   2.565   1.110  0.4084 -0.2541 -0.3922
24939SOL     OW77708   5.834   6.938   7.120  0.0603 -0.1288  0.1955
24939SOL    HW177709   5.784   6.943   7.038 -0.0319  1.1774  0.3110
24939SOL    HW277710   5.859   6.846   7.127  3.1464  0.2270 -3.1853
24940SOL     OW77711   8.733   9.620   3.804 -0.5100 -0.8961 -0.5806
24940SOL    HW177712   8.647   9.654   3.780 -0.5053 -0.6433 -0.2533
24940SOL    HW277713   8.735   9.531   3.769 -0.8280 -0.8319 -0.7623
24941SOL     OW77714   7.700   2.886   3.894  0.4530 -0.1329  0.7175
24941SOL    HW177715   7.660   2.806   3.860 -0.9699 -0.3818  2.7679
24941SOL    HW277716   7.758   2.916   3.824 -2.4965 -0.3651 -2.0720
24942SOL     OW77717   6.698   9.056   9.484 -0.2627 -0.1743  0.7325
24942SOL    HW177718   6.729   9.090   9.568  1.5044 -1.1022  0.5035
24942SOL    HW277719   6.726   8.964   9.483 -1.9847 -0.7270 -0.0576
24943SOL     OW77720   7.753   7.598   7.938 -0.2181  0.3650  0.3133
24943SOL    HW177721   7.707   7.671   7.895 -0.5965  0.9045  1.5905
24943SOL    HW277722   7.815   7.640   7.997 -0.5901 -0.3316  1.2251
24944SOL     OW77723   4.577   3.916   1.463 -0.3743 -0.2822  0.8366
24944SOL    HW177724   4.544   4.003   1.486 -1.0107 -0.1256 -0.5855
24944SOL    HW277725   4.500   3.867   1.435  0.1426 -0.9229  0.4924
24945SOL     OW77726   2.725   8.432   4.373 -0.2218 -0.3882 -0.2331
24945SOL    HW177727   2.698   8.341   4.359 -0.8040 -0.3277  0.4344
24945SOL    HW277728   2.652   8.471   4.421  0.9942 -0.1984  1.5615
24946SOL     OW77729   0.684   8.615   4.631 -0.2265  0.0686 -0.1015
24946SOL    HW177730   0.649   8.684   4.575 -0.0392 -0.0234 -0.3349
24946SOL    HW277731   0.608   8.579   4.676 -0.4628 -0.2924 -0.7839
24947SOL     OW77732   5.814   6.882   5.122  0.3896  0.2346  0.3469
24947SOL    HW177733   5.723   6.856   5.119  0.9415 -1.8575 -3.4614
24947SOL    HW277734   5.812   6.978   5.127 -2.0083  0.2694 -0.3882
24948SOL     OW77735   4.949   9.014   4.202  0.5278 -0.0112 -0.0991
24948SOL    HW177736   4.992   9.019   4.288 -0.4363 -0.2052  0.4049
24948SOL    HW277737   4.974   8.929   4.168 -1.5537 -1.3109  1.3691
24949SOL     OW77738   7.237   0.975   8.735  0.3486  1.2359 -0.4479
24949SOL    HW177739   7.154   0.967   8.688 -0.8887  1.3718  1.5860
24949SOL    HW277740   7.297   0.918   8.687 -1.5190 -0.6528 -0.7046
24950SOL     OW77741   7.272   9.127   1.960  0.1377  0.3455 -0.0457
24950SOL    HW177742   7.192   9.142   1.909 -0.0268 -2.1986 -0.6799
24950SOL    HW277743   7.327   9.073   1.903  2.7884  2.7706  0.0111
24951SOL     OW77744   0.705   1.075   9.447  0.0749 -0.0393 -0.0130
24951SOL    HW177745   0.741   1.099   9.532 -2.8114 -0.6651  1.5147
24951SOL    HW277746   0.651   1.150   9.422  0.5727 -0.0315 -1.1239
24952SOL     OW77747   1.734   8.118   0.753 -0.1450  0.0850 -0.2478
24952SOL    HW177748   1.773   8.163   0.828  0.4159 -0.4091 -0.2365
24952SOL    HW277749   1.782   8.152   0.677 -0.7537  0.6317 -0.4075
24953SOL     OW77750   6.321   0.966   7.095 -0.1589  0.1360  0.3334
24953SOL    HW177751   6.335   1.054   7.062  0.6789  0.1601  0.7418
24953SOL    HW277752   6.231   0.967   7.129 -0.1535  0.8270  0.3254
24954SOL     OW77753   3.449   1.510   2.807 -0.5209 -0.0528  0.1407
24954SOL    HW177754   3.461   1.595   2.764 -1.3079 -0.1668 -0.3213
24954SOL    HW277755   3.370   1.474   2.767  1.6051 -2.5613 -2.2517
24955SOL     OW77756   1.842   4.796   6.621 -0.0010  0.1733  0.0875
24955SOL    HW177757   1.838   4.756   6.708  0.8861  0.0804  0.0873
24955SOL    HW277758   1.844   4.721   6.561  0.2028  0.2314  0.0224
24956SOL     OW77759   3.636   8.315   2.957  0.1873  0.2078  0.1372
24956SOL    HW177760   3.644   8.250   3.027  0.1860 -0.1873 -0.2202
24956SOL    HW277761   3.676   8.272   2.881  1.3102  1.0944  0.1928
24957SOL     OW77762   3.209   2.638   0.632  0.3300  0.0209  0.6896
24957SOL    HW177763   3.223   2.718   0.581 -1.5072 -1.2135 -1.9592
24957SOL    HW277764   3.202   2.669   0.723 -0.2646  2.8534 -0.2129
24958SOL     OW77765   4.696   3.836   7.676 -0.2021  0.1055 -0.1645
24958SOL    HW177766   4.713   3.916   7.725  0.7521  0.8414 -1.6136
24958SOL    HW277767   4.634   3.862   7.608  0.1205 -0.3821 -0.6510
24959SOL     OW77768   1.409   4.727   4.043  0.1088  0.1256 -0.3789
24959SOL    HW177769   1.498   4.735   4.009 -0.1195 -0.6817 -1.1981
24959SOL    HW277770   1.421   4.707   4.136  0.7596  0.7884 -0.3060
24960SOL     OW77771   3.891   1.687   8.286  0.1865  0.4188 -0.1612
24960SOL    HW177772   3.833   1.658   8.216  0.6090 -1.3964  0.1938
24960SOL    HW277773   3.833   1.706   8.359 -0.0190 -2.2201  0.4827
24961SOL     OW77774   8.279   6.482   3.462 -0.1190 -0.4001 -0.5611
24961SOL    HW177775   8.364   6.494   3.504 -0.4177 -0.8146  0.1769
24961SOL    HW277776   8.232   6.564   3.478 -1.6696 -1.8082  3.3486
24962SOL     OW77777   4.379   4.229   3.622 -0.7581  0.4199 -0.5459
24962SOL    HW177778   4.429   4.150   3.600 -1.7585 -0.1445 -0.8277
24962SOL    HW277779   4.323   4.244   3.546  0.4298  2.2550 -1.1359
24963SOL     OW77780   4.602   8.920   3.061 -0.2779  0.0175  0.0585
24963SOL    HW177781   4.685   8.873   3.051 -0.2258  0.1554 -0.1520
24963SOL    HW277782   4.585   8.917   3.155  0.4462  0.7926  0.2278
24964SOL     OW77783   2.615   0.457   8.032 -0.3858  0.4495  0.4458
24964SOL    HW177784   2.585   0.394   8.097  0.3807  1.2489  1.6228
24964SOL    HW277785   2.615   0.541   8.078  0.6344  0.9698 -0.4450
24965SOL     OW77786   5.053   2.085   0.299  0.0297 -0.6175 -0.0042
24965SOL    HW177787   5.030   2.006   0.250  0.8799 -0.9416  0.1061
24965SOL    HW277788   5.105   2.137   0.238  0.0281 -0.4470  0.1397
24966SOL     OW77789   9.344   3.734   0.106  0.5537 -0.1248  0.1460
24966SOL    HW177790   9.294   3.655   0.128 -1.1185  1.2771  1.7213
24966SOL    HW277791   9.312   3.759   0.019  0.5713 -0.8024 -0.0563
24967SOL     OW77792   7.024   5.324   7.520 -0.0671  0.3729  0.3823
24967SOL    HW177793   7.048   5.416   7.512 -0.4121  0.3037 -2.2459
24967SOL    HW277794   7.067   5.295   7.600 -0.7499  3.0344  1.8232
24968SOL     OW77795   1.864   0.044   2.787 -0.1469 -0.1345  0.1179
24968SOL    HW177796   1.801  -0.021   2.818 -2.0952  1.1952 -0.8643
24968SOL    HW277797   1.904   0.004   2.711  0.8456 -1.3156  1.2110
24969SOL     OW77798   5.638   1.095   9.075  0.2663  0.2312  0.6699
24969SOL    HW177799   5.642   1.030   9.145  0.5209  1.8865  2.2771
24969SOL    HW277800   5.730   1.112   9.052  0.1877 -0.2595 -0.0593
24970SOL     OW77801   1.377   4.787   5.094  0.1594  0.4034 -0.0982
24970SOL    HW177802   1.459   4.834   5.078 -0.0269  0.5766 -0.5664
24970SOL    HW277803   1.387   4.751   5.182  1.2685 -0.6603 -0.6266
24971SOL     OW77804   5.518   5.406   9.297  0.9228 -0.4592 -0.7914
24971SOL    HW177805   5.497   5.337   9.234  2.0375 -1.4653 -0.1030
24971SOL    HW277806   5.613   5.415   9.292  1.2657 -1.8041  1.9638
24972SOL     OW77807   1.716   6.857   2.941  0.0480  0.5961  0.0474
24972SOL    HW177808   1.776   6.922   2.978 -0.6774  0.7091  1.0827
24972SOL    HW277809   1.761   6.824   2.864  2.1191 -0.3812  1.5687
24973SOL     OW77810   7.996   4.169   8.349 -0.2676  0.3737  0.1215
24973SOL    HW177811   8.060   4.176   8.420  1.2251 -1.6597 -0.9375
24973SOL    HW277812   7.929   4.110   8.383  0.4999 -0.6833 -0.1464
24974SOL     OW77813   5.013   5.232   5.246 -0.3594 -0.1062  0.6232
24974SOL    HW177814   4.956   5.162   5.279  0.6453 -0.7828  0.9856
24974SOL    HW277815   4.954   5.293   5.203 -1.2767 -1.2372  0.2043
24975SOL     OW77816   4.043   5.786   7.770  0.4715  0.2100 -0.0571
24975SOL    HW177817   4.019   5.695   7.786 -3.1640  1.2821  1.8627
24975SOL    HW277818   4.122   5.800   7.821  0.6196 -1.6551  0.2950
24976SOL     OW77819   8.412   3.081   3.029 -0.0061 -0.2664  0.5028
24976SOL    HW177820   8.345   3.036   3.081  0.2476  0.3357  1.3676
24976SOL    HW277821   8.373   3.165   3.006  0.4982  0.1696  1.1763
24977SOL     OW77822   1.451   2.325   6.343 -0.1879 -0.0595  0.3707
24977SOL    HW177823   1.534   2.340   6.297  0.7584 -0.4122  1.8933
24977SOL    HW277824   1.384   2.353   6.281  0.9408 -1.7898 -1.7667
24978SOL     OW77825   1.840   3.568   7.827 -0.4073 -0.0439  0.0098
24978SOL    HW177826   1.930   3.558   7.857 -0.4932  1.1925  0.7680
24978SOL    HW277827   1.789   3.579   7.907 -0.9662  1.0076 -0.4611
24979SOL     OW77828   5.179   3.200   1.478 -0.3361 -0.3232  0.2090
24979SOL    HW177829   5.177   3.167   1.388 -1.2288  0.0485  0.0744
24979SOL    HW277830   5.101   3.161   1.518 -0.2906  0.0211  0.6307
24980SOL     OW77831   8.628   1.409   6.841 -0.3509 -0.5140  0.1086
24980SOL    HW177832   8.559   1.437   6.781 -0.5082  0.0663  0.5468
24980SOL    HW277833   8.621   1.314   6.843  0.1472 -0.6119 -1.3576
24981SOL     OW77834   4.625   6.860   7.180  0.7906  0.5269  0.1340
24981SOL    HW177835   4.530   6.856   7.173  0.9489 -0.4075 -3.5298
24981SOL    HW277836   4.648   6.947   7.147  1.2318  0.7383  0.9737
24982SOL     OW77837   1.954   2.879   8.826 -1.0695 -0.3548  0.3118
24982SOL    HW177838   1.860   2.896   8.837 -1.0385  0.7556 -0.9315
24982SOL    HW277839   1.990   2.893   8.914 -1.8864  0.5092  0.5326
24983SOL     OW77840   4.215   4.375   5.243 -0.1536 -0.2297 -0.0968
24983SOL    HW177841   4.307   4.392   5.220 -0.5470  2.1362 -0.1358
24983SOL    HW277842   4.168   4.383   5.160 -0.4782 -0.7515  0.0347
24984SOL     OW77843   7.724   6.394   0.817  0.2979  0.5664  0.2603
24984SOL    HW177844   7.677   6.315   0.841 -0.5395  0.7808 -0.5967
24984SOL    HW277845   7.803   6.393   0.871 -0.5369  0.0434  1.5308
24985SOL     OW77846   0.679   7.869   6.556 -0.1606  0.8388 -0.4877
24985SOL    HW177847   0.592   7.865   6.516 -0.2723 -0.9673 -0.1610
24985SOL    HW277848   0.740   7.860   6.483 -0.3654 -3.7372 -0.4077
24986SOL     OW77849   3.646   8.534   5.284 -0.1505 -0.2419 -0.7939
24986SOL    HW177850   3.597   8.468   5.235  0.7944 -1.6658  0.0846
24986SOL    HW277851   3.738   8.512   5.267  0.2040 -0.5648  1.2767
24987SOL     OW77852   2.124   4.949   4.663  0.0473  0.1674 -0.1964
24987SOL    HW177853   2.076   4.901   4.596 -0.4057  0.1478  0.1381
24987SOL    HW277854   2.183   5.006   4.614  0.1501 -0.2768 -0.6045
24988SOL     OW77855   3.265   6.543   7.132  0.0037 -0.1384  0.3462
24988SOL    HW177856   3.252   6.625   7.085 -1.8445 -0.4242  0.2532
24988SOL    HW277857   3.284   6.478   7.064 -2.2995 -0.4779 -0.0916
24989SOL     OW77858   3.134   7.273   9.430  0.6578  0.2739  0.4813
24989SOL    HW177859   3.148   7.188   9.390 -0.5911 -0.7611  2.0786
24989SOL    HW277860   3.192   7.332   9.383  0.8815 -1.2675 -1.2857
24990SOL     OW77861   2.512   2.045   5.440  0.7932 -0.3955 -0.5888
24990SOL    HW177862   2.440   1.989   5.471  0.9545 -1.2913 -1.7449
24990SOL    HW277863   2.472   2.100   5.373  0.9377 -0.0855 -0.4196
24991SOL     OW77864   6.722   2.845   1.953 -0.2854 -0.2505  0.2932
24991SOL    HW177865   6.632   2.814   1.963 -0.4004  0.4571  1.7701
24991SOL    HW277866   6.776   2.774   1.987 -0.2646 -0.6558 -0.5493
24992SOL     OW77867   0.997   2.674   5.121  0.4386  0.3698  0.5785
24992SOL    HW177868   0.945   2.626   5.185 -0.6011 -0.8648 -1.1013
24992SOL    HW277869   0.934   2.704   5.056  1.7113 -0.9316 -1.3780
24993SOL     OW77870   8.935   2.395   7.864  0.3588 -0.5267 -0.0043
24993SOL    HW177871   8.966   2.402   7.955 -0.5793 -0.4966  0.3225
24993SOL    HW277872   8.908   2.304   7.855 -1.4660 -0.0765  0.4097
24994SOL     OW77873   3.020   9.429   3.955  0.0114  0.0105  0.1951
24994SOL    HW177874   2.955   9.498   3.941 -0.0423  0.3952  2.1065
24994SOL    HW277875   3.104   9.476   3.958 -0.1213  0.1893  2.5368
24995SOL     OW77876   6.073   8.896   7.844 -0.4270 -0.5151  0.0474
24995SOL    HW177877   6.038   8.960   7.783  0.4676  0.7351  0.7998
24995SOL    HW277878   6.085   8.944   7.926  0.4420 -1.5908  0.5845
24996SOL     OW77879   4.845   9.212   5.711 -0.2322  0.2613  0.0382
24996SOL    HW177880   4.939   9.226   5.717 -0.3180  1.8535 -1.5318
24996SOL    HW277881   4.807   9.298   5.732 -1.2622  0.0469 -0.8565
24997SOL     OW77882   1.156   6.681   4.814 -0.0497 -0.3372 -0.0693
24997SOL    HW177883   1.244   6.714   4.795  0.3840 -0.6108  1.2951
24997SOL    HW277884   1.167   6.586   4.817 -0.7170 -0.4732 -1.3068
24998SOL     OW77885   3.191   4.063   3.275 -0.2384  0.1214  0.4636
24998SOL    HW177886   3.193   4.145   3.324  2.5664  0.3432  0.1318
24998SOL    HW277887   3.196   3.994   3.341  1.8009  0.3810  0.6432
24999SOL     OW77888   7.112   8.778   4.885  0.0055  0.1787  0.4730
24999SOL    HW177889   7.077   8.809   4.802  0.6733 -2.3272 -0.8160
24999SOL    HW277890   7.034   8.765   4.940 -0.7978 -1.3310 -0.9295
25000SOL     OW77891   6.357   3.800   0.849 -0.1529  0.1714 -0.7590
25000SOL    HW177892   6.288   3.804   0.783 -2.4038 -1.5292  1.3165
25000SOL    HW277893   6.322   3.743   0.918  2.2906  1.3231  1.6492
25001SOL     OW77894   3.717   4.469   4.407 -0.6631 -0.8438 -0.1057
25001SOL    HW177895   3.763   4.493   4.487 -1.5820  1.5623 -0.2117
25001SOL    HW277896   3.631   4.438   4.436 -0.8729 -0.2966 -0.1354
25002SOL     OW77897   2.363   8.608   1.306 -0.4144 -0.4656 -0.0697
25002SOL    HW177898   2.349   8.702   1.319 -0.1965 -0.4730  0.2312
25002SOL    HW277899   2.352   8.570   1.393 -1.2614 -0.8181 -0.3216
25003SOL     OW77900   6.190   6.987   1.554  0.4307  0.2970 -0.2068
25003SOL    HW177901   6.189   6.976   1.459 -2.7287  0.8261 -0.3403
25003SOL    HW277902   6.098   6.998   1.578  1.2520  1.9412  2.7233
25004SOL     OW77903   4.558   5.758   5.433 -0.0868 -0.4703  0.3136
25004SOL    HW177904   4.534   5.840   5.477  0.4695 -0.7792  1.2267
25004SOL    HW277905   4.477   5.706   5.434 -0.3305 -0.1040  0.1022
25005SOL     OW77906   6.493   3.510   7.885 -0.2190  0.2069 -0.7612
25005SOL    HW177907   6.461   3.512   7.795 -1.4744  2.8129 -0.3360
25005SOL    HW277908   6.544   3.590   7.894 -0.9503  0.5070  1.1272
25006SOL     OW77909   6.822   4.167   1.510 -0.7960 -0.1805 -0.1521
25006SOL    HW177910   6.891   4.158   1.576 -1.1253  1.1742  0.4029
25006SOL    HW277911   6.793   4.258   1.517 -1.2659 -0.1760 -1.7580
25007SOL     OW77912   5.243   1.383   7.826  0.1050  0.7676  0.4023
25007SOL    HW177913   5.186   1.384   7.749  1.3036 -0.9326 -0.5652
25007SOL    HW277914   5.184   1.404   7.899 -1.6896 -0.4394 -0.6092
25008SOL     OW77915   5.658   5.717   5.640  1.0897  0.2347  0.3119
25008SOL    HW177916   5.667   5.624   5.660  0.9127  0.0830 -0.2916
25008SOL    HW277917   5.588   5.721   5.575 -0.6914  1.0451  2.1642
25009SOL     OW77918   8.964   2.351   0.848 -0.4070 -0.4300  0.3020
25009SOL    HW177919   8.992   2.288   0.781 -0.9230 -0.9410  0.5488
25009SOL    HW277920   9.030   2.345   0.917  0.7101  0.8847 -0.6172
25010SOL     OW77921   6.668   6.937   4.299 -0.1842  0.8194  0.1009
25010SOL    HW177922   6.663   7.030   4.319  1.1626  0.9732 -0.1778
25010SOL    HW277923   6.762   6.916   4.306 -0.5007 -0.5799  0.4739
25011SOL     OW77924   4.684   8.153   7.844 -0.6811 -0.0528  0.0930
25011SOL    HW177925   4.597   8.145   7.804  0.4728  1.6003 -3.1347
25011SOL    HW277926   4.688   8.243   7.876 -1.1408 -1.0096  3.1734
25012SOL     OW77927   4.768   1.116   3.751 -0.2419  0.3081  0.0570
25012SOL    HW177928   4.795   1.125   3.660 -1.3846 -0.1734 -0.3429
25012SOL    HW277929   4.770   1.021   3.767 -0.7042  0.3422  0.3216
25013SOL     OW77930   2.896   7.799   4.140 -0.4569 -0.2779 -0.0961
25013SOL    HW177931   2.899   7.894   4.129 -1.1507 -0.2989 -0.4968
25013SOL    HW277932   2.902   7.764   4.051 -4.5650 -0.4874 -0.4665
25014SOL     OW77933   6.685   4.766   6.545  0.2127 -0.7689  0.3070
25014SOL    HW177934   6.751   4.824   6.584  0.8255 -0.6393 -0.8961
25014SOL    HW277935   6.605   4.787   6.593  0.2687  1.5287 -0.4765
25015SOL     OW77936   9.394   8.423   2.632  0.3549  0.1376  0.3687
25015SOL    HW177937   9.446   8.464   2.563 -2.1006  0.3256 -1.5047
25015SOL    HW277938   9.340   8.358   2.587 -1.7889  0.6944  1.9603
25016SOL     OW77939   4.676   4.171   8.208 -0.2647  0.3964  0.6011
25016SOL    HW177940   4.643   4.119   8.135  2.0931  0.3413 -0.4893
25016SOL    HW277941   4.651   4.261   8.185  0.4193  0.3783 -0.3030
25017SOL     OW77942   9.343   3.473   9.044 -0.7831  0.3003 -0.3405
25017SOL    HW177943   9.313   3.551   9.091 -0.0918  0.2642  0.1733
25017SOL    HW277944   9.378   3.416   9.113 -1.6733 -0.6612 -0.6523
25018SOL     OW77945   3.908   4.465   6.050 -0.3400 -0.0090 -0.2241
25018SOL    HW177946   3.906   4.477   5.955 -2.1129  1.2645 -0.0542
25018SOL    HW277947   3.958   4.540   6.083 -1.4237  0.6298 -0.0155
25019SOL     OW77948   7.870   0.416   7.249  0.3660 -0.2307 -0.2804
25019SOL    HW177949   7.905   0.330   7.269  0.4787  0.0654  0.8693
25019SOL    HW277950   7.945   0.475   7.253  0.0704  0.1148  0.2603
25020SOL     OW77951   8.907   7.181   2.350 -0.0153  0.1936 -0.2257
25020SOL    HW177952   8.847   7.214   2.283 -2.6767  0.3360  1.9985
25020SOL    HW277953   8.863   7.102   2.384  1.9807 -0.7255  0.3631
25021SOL     OW77954   0.552   9.019   9.439 -0.1552  0.3006 -1.1243
25021SOL    HW177955   0.553   8.926   9.415 -0.8315 -0.3128  0.9225
25021SOL    HW277956   0.573   9.066   9.359  0.0031 -1.6201 -2.2589
25022SOL     OW77957   3.375   1.086   2.501  0.3092 -0.0746 -0.2480
25022SOL    HW177958   3.379   1.124   2.589 -0.1030 -0.5687 -0.0047
25022SOL    HW277959   3.368   1.162   2.443  1.5523  0.3006  0.0608
25023SOL     OW77960   4.705   9.044   4.816 -0.7386 -0.3432  0.2851
25023SOL    HW177961   4.709   8.983   4.742  3.2066  0.5741 -0.5102
25023SOL    HW277962   4.728   8.990   4.892 -1.9428 -0.7165  0.4022
25024SOL     OW77963   0.712   5.151   1.437  0.1317  0.0129 -0.0488
25024SOL    HW177964   0.664   5.096   1.499 -0.3325  0.0228 -0.3961
25024SOL    HW277965   0.670   5.135   1.352  0.8723 -0.1243 -0.3913
25025SOL     OW77966   6.096   0.306   1.629 -0.0685  0.1008 -0.3173
25025SOL    HW177967   6.092   0.228   1.684  2.9391  0.3880  0.5165
25025SOL    HW277968   6.045   0.372   1.677 -0.5549 -0.6743  0.2480
25026SOL     OW77969   6.755   3.373   9.211  0.5811  0.1952  0.1788
25026SOL    HW177970   6.751   3.278   9.227  1.8471  0.3868  2.0240
25026SOL    HW277971   6.849   3.392   9.201  0.6314  1.5359  2.3731
25027SOL     OW77972   1.369   2.681   3.194 -0.2659 -0.4381 -0.1671
25027SOL    HW177973   1.319   2.608   3.229  0.2286 -1.5416 -1.6743
25027SOL    HW277974   1.389   2.735   3.271 -2.3528 -0.7979  0.6803
25028SOL     OW77975   7.958   4.731   4.392 -0.1504  0.5870  0.1805
25028SOL    HW177976   7.952   4.636   4.377  1.3720  0.4546  0.2949
25028SOL    HW277977   8.050   4.747   4.411  0.0511  2.4002 -1.9055
25029SOL     OW77978   5.339   0.995   4.680  0.1669 -0.3523  0.1708
25029SOL    HW177979   5.349   1.078   4.727  1.5336  0.3304 -1.2532
25029SOL    HW277980   5.427   0.959   4.676 -0.4115 -1.9428  0.8091
25030SOL     OW77981   1.566   3.767   3.701 -0.3254  0.7107  0.5862
25030SOL    HW177982   1.638   3.724   3.747 -0.8570 -1.1706 -0.2536
25030SOL    HW277983   1.493   3.764   3.762  0.0387  1.8098  1.0956
25031SOL     OW77984   8.691   7.644   9.549 -0.2861  0.1814 -0.0279
25031SOL    HW177985   8.725   7.691   9.474  1.8068  0.6088  1.1089
25031SOL    HW277986   8.745   7.674   9.623 -1.5844 -0.9661  1.4559
25032SOL     OW77987   2.091   0.001   4.852 -0.0632 -0.1308 -0.0534
25032SOL    HW177988   2.153  -0.064   4.820 -0.8652 -1.9183  1.7764
25032SOL    HW277989   2.141   0.083   4.854  2.3190 -1.4847  1.3688
25033SOL     OW77990   6.729   0.870   5.111  0.2937 -0.1437 -0.1502
25033SOL    HW177991   6.823   0.851   5.115  0.3769  0.4180  2.7400
25033SOL    HW277992   6.724   0.964   5.095  0.2144 -0.2113 -0.5255
25034SOL     OW77993   2.453   3.612   0.824 -0.3775  0.6162  0.2145
25034SOL    HW177994   2.360   3.615   0.804 -0.2053 -0.1065 -0.7336
25034SOL    HW277995   2.485   3.533   0.781  0.3123 -0.2195  2.1333
25035SOL     OW77996   1.144   2.216   0.459 -0.1034  0.1150  0.3605
25035SOL    HW177997   1.090   2.141   0.483  0.3442 -0.6436 -0.8648
25035SOL    HW277998   1.165   2.201   0.366  0.7653  1.2799  0.3461
25036SOL     OW77999   6.451   4.704   4.685  0.3511  0.3947 -0.3337
25036SOL    HW178000   6.379   4.667   4.634  0.9917 -1.7339  0.1855
25036SOL    HW278001   6.459   4.794   4.655 -0.9515 -0.0482 -2.1351
25037SOL     OW78002   7.763   5.325   5.215  0.2456 -0.0420  0.0428
25037SOL    HW178003   7.728   5.408   5.246 -0.1577  0.6128 -2.0453
25037SOL    HW278004   7.803   5.285   5.293 -0.3814  1.6522  1.2818
25038SOL     OW78005   4.380   1.295   4.434  0.2906  0.2344  0.3628
25038SOL    HW178006   4.362   1.280   4.341  0.5418 -0.6779  0.4480
25038SOL    HW278007   4.336   1.378   4.454 -0.4955  0.0087 -0.3568
25039SOL     OW78008   6.437   9.508   0.232 -0.3155 -0.2758  0.2778
25039SOL    HW178009   6.404   9.538   0.148 -0.4370 -0.2958  0.3184
25039SOL    HW278010   6.438   9.412   0.225 -1.4284 -0.3257  0.7159
25040SOL     OW78011   6.611   9.383   8.322 -0.0258 -0.1737  0.0582
25040SOL    HW178012   6.682   9.320   8.335  0.4657 -0.2295 -2.4202
25040SOL    HW278013   6.655   9.468   8.320 -0.5230  0.1820  2.0115
25041SOL     OW78014   1.601   8.914   7.745  0.2979  0.1075 -0.1203
25041SOL    HW178015   1.593   8.931   7.652  1.5121  0.6011 -0.1540
25041SOL    HW278016   1.687   8.873   7.755  1.0597  1.8461  0.9843
25042SOL     OW78017   1.573   5.486   2.985  0.2965  0.2344 -0.4355
25042SOL    HW178018   1.505   5.516   2.925 -1.3291 -2.1841  0.0528
25042SOL    HW278019   1.625   5.424   2.933  2.8851  2.7460 -1.1036
25043SOL     OW78020   2.381   8.547   0.037 -0.0508 -0.2077 -0.1656
25043SOL    HW178021   2.470   8.513   0.030 -0.3265 -0.7751 -1.0058
25043SOL    HW278022   2.344   8.502   0.112  0.9644  1.4342  1.4010
25044SOL     OW78023   3.322   3.017   8.121 -0.6306 -0.1026 -1.0765
25044SOL    HW178024   3.389   3.072   8.162 -0.3531 -1.0131 -0.2730
25044SOL    HW278025   3.371   2.944   8.083 -1.1852 -0.9003 -0.2716
25045SOL     OW78026   4.510   7.688   6.844 -0.1174 -0.1863 -0.3713
25045SOL    HW178027   4.472   7.602   6.857  0.9969 -0.4344  1.6804
25045SOL    HW278028   4.442   7.749   6.874  0.3369 -0.5421  1.4995
25046SOL     OW78029   6.577   1.815   3.110  0.6771 -0.3091 -0.0121
25046SOL    HW178030   6.647   1.869   3.072  0.4272 -0.3058 -0.4769
25046SOL    HW278031   6.552   1.755   3.040 -1.6971  1.5041 -0.8459
25047SOL     OW78032   1.846   5.544   9.398 -0.1566 -0.4898  0.1725
25047SOL    HW178033   1.791   5.574   9.325 -1.4406 -1.3763  0.7383
25047SOL    HW278034   1.858   5.451   9.382 -0.9005 -0.8095  1.3573
25048SOL     OW78035   1.234   9.089   7.757 -0.1744 -0.0656 -0.3295
25048SOL    HW178036   1.321   9.099   7.795 -0.3852 -0.4971  0.3025
25048SOL    HW278037   1.176   9.135   7.817 -0.7094 -2.0354  0.7733
25049SOL     OW78038   7.807   0.920   0.613  0.3861 -0.1705  0.3691
25049SOL    HW178039   7.786   0.827   0.606 -1.6867  0.3506 -1.4889
25049SOL    HW278040   7.732   0.958   0.659  1.3812  0.5627  1.4453
25050SOL     OW78041   0.020   5.066   7.747 -0.2810  0.3633 -0.1472
25050SOL    HW178042  -0.002   4.988   7.798  0.1570 -0.2465 -0.8579
25050SOL    HW278043   0.098   5.101   7.790 -1.1520  1.0769  0.8621
25051SOL     OW78044   7.549   3.981   4.014 -0.8502  0.3940  0.2531
25051SOL    HW178045   7.629   4.032   4.000  0.4472 -1.4539  0.6253
25051SOL    HW278046   7.490   4.041   4.059  1.1444  1.1734  1.9879
25052SOL     OW78047   6.275   7.185   1.772  0.2842 -0.2456  0.3297
25052SOL    HW178048   6.219   7.140   1.708  1.0911 -0.1913 -0.4237
25052SOL    HW278049   6.364   7.175   1.738  0.5803  1.0423  0.6827
25053SOL     OW78050   1.467   1.725   9.532 -0.1595 -0.6546  0.2506
25053SOL    HW178051   1.497   1.812   9.508 -2.8114  0.7053  1.4557
25053SOL    HW278052   1.505   1.709   9.619  0.4545 -0.7964 -0.0380
25054SOL     OW78053   1.361   0.976   4.295  0.2409 -0.3135  0.3802
25054SOL    HW178054   1.303   0.899   4.299 -0.3985  0.1839  1.1208
25054SOL    HW278055   1.425   0.961   4.364 -0.0445 -0.0582  0.7009
25055SOL     OW78056   4.303   8.337   7.960  1.2652  1.0147  0.1716
25055SOL    HW178057   4.223   8.329   8.011  0.4586 -0.5152 -1.2215
25055SOL    HW278058   4.276   8.383   7.880  1.7771  0.5599 -0.2705
25056SOL     OW78059   8.980   1.316   4.305  0.0448  0.1271  0.1006
25056SOL    HW178060   9.066   1.354   4.287  0.1650 -0.1771  0.0299
25056SOL    HW278061   8.997   1.222   4.316 -0.5817 -0.3173 -2.1775
25057SOL     OW78062   5.111   8.538   1.803 -0.4670 -0.2672  0.0773
25057SOL    HW178063   5.096   8.468   1.867  0.7522  1.6078  2.5723
25057SOL    HW278064   5.049   8.607   1.828  1.6749  1.4752  0.8951
25058SOL     OW78065   3.330   3.241   4.655  0.6660  0.2034  0.4325
25058SOL    HW178066   3.331   3.148   4.634 -0.8665  0.0363  1.0006
25058SOL    HW278067   3.333   3.245   4.750  1.6434  0.7748  0.3880
25059SOL     OW78068   4.970   6.908   8.865 -0.2033  0.4005 -0.1180
25059SOL    HW178069   4.902   6.849   8.832  1.0116 -0.5058 -1.1119
25059SOL    HW278070   4.922   6.980   8.906 -1.7362 -0.8129  0.3041
25060SOL     OW78071   4.017   5.361   3.312  0.4080 -0.4601  0.2239
25060SOL    HW178072   3.997   5.268   3.314  2.5374 -1.0054 -0.9690
25060SOL    HW278073   4.035   5.380   3.220 -2.7183  1.8408 -0.0777
25061SOL     OW78074   4.365   7.693   2.521  0.4741  0.1194 -0.6287
25061SOL    HW178075   4.290   7.646   2.559  0.7782 -0.1016 -0.2931
25061SOL    HW278076   4.434   7.684   2.586  0.4390  1.3307 -0.4034
25062SOL     OW78077   1.499   4.429   9.623 -1.0167 -0.0743 -0.3977
25062SOL    HW178078   1.557   4.364   9.663 -0.8021  0.8085  0.7838
25062SOL    HW278079   1.439   4.378   9.568 -0.5930 -1.2192  0.1856
25063SOL     OW78080   1.218   0.882   7.158  0.2322 -0.2217  0.6506
25063SOL    HW178081   1.174   0.798   7.149  1.1429 -0.6608  0.2169
25063SOL    HW278082   1.293   0.865   7.214  0.6083  0.2275  0.2996
25064SOL     OW78083   0.601   8.008   3.842  0.0453  0.3037  0.0903
25064SOL    HW178084   0.552   8.072   3.895 -1.0384  0.8470 -1.5013
25064SOL    HW278085   0.535   7.943   3.817  0.5045  0.1368 -0.6945
25065SOL     OW78086   5.996   0.899   8.721 -0.2510 -0.3248  0.0016
25065SOL    HW178087   5.933   0.828   8.714  0.6951 -1.1637 -0.1567
25065SOL    HW278088   6.076   0.864   8.683  0.4595  0.5555  0.6438
25066SOL     OW78089   8.743   1.340   7.804 -0.7960 -0.4348  0.5192
25066SOL    HW178090   8.807   1.276   7.774 -0.7244 -0.5460  0.9025
25066SOL    HW278091   8.796   1.414   7.835 -0.8078 -0.8531  1.5952
25067SOL     OW78092   8.108   6.886   9.595 -0.4674  0.1543 -0.3083
25067SOL    HW178093   8.124   6.792   9.601  0.7076  0.3683  0.0846
25067SOL    HW278094   8.020   6.898   9.632 -0.5779 -0.7648 -0.2576
25068SOL     OW78095   7.944   7.930   6.413  0.2220  0.2770 -0.2052
25068SOL    HW178096   7.997   7.956   6.337  2.5395  1.2710  1.5939
25068SOL    HW278097   8.005   7.937   6.487 -1.6250 -1.6779  1.6243
25069SOL     OW78098   4.342   2.563   4.897 -0.1397  0.2108  0.0161
25069SOL    HW178099   4.296   2.647   4.898 -0.5057  0.1762 -3.0920
25069SOL    HW278100   4.427   2.581   4.938 -0.5727  1.8546  0.2436
25070SOL     OW78101   9.467   2.076   2.060 -0.2403 -0.0269 -0.3766
25070SOL    HW178102   9.385   2.104   2.019 -0.4044 -0.9142 -0.6570
25070SOL    HW278103   9.443   2.004   2.118  0.4165 -0.6987 -0.9089
25071SOL     OW78104   8.729   8.671   6.188 -0.3120 -0.0368  0.4022
25071SOL    HW178105   8.737   8.765   6.173  0.9943 -0.0159  1.0769
25071SOL    HW278106   8.742   8.660   6.282  0.1388 -0.9463  0.2476
25072SOL     OW78107   4.554   2.586   0.592  0.0025 -0.0612 -0.1379
25072SOL    HW178108   4.511   2.519   0.538  1.2082 -1.2492  0.3186
25072SOL    HW278109   4.484   2.647   0.615 -0.7431 -0.0478 -2.2162
25073SOL     OW78110   1.244   9.365   9.378  0.3942 -0.1661 -0.0118
25073SOL    HW178111   1.179   9.403   9.318  0.4721  1.3378  0.7980
25073SOL    HW278112   1.200   9.363   9.463  1.6324  1.7581  0.7562
25074SOL     OW78113   2.838   2.195   3.398  0.4679 -0.2514 -0.1302
25074SOL    HW178114   2.766   2.161   3.345 -1.3334  0.6489  1.6341
25074SOL    HW278115   2.878   2.263   3.343 -0.8252  0.0998 -0.6820
25075SOL     OW78116   5.958   2.894   4.807 -0.0972 -0.3204 -0.0677
25075SOL    HW178117   5.997   2.839   4.875 -0.4540  0.8452  1.1229
25075SOL    HW278118   5.881   2.845   4.779  0.2757 -1.0045  0.0744
25076SOL     OW78119   3.232   0.793   1.631  0.8816  0.4814 -0.7281
25076SOL    HW178120   3.172   0.765   1.562  1.0541  1.6512 -1.3727
25076SOL    HW278121   3.218   0.730   1.702 -0.9964  0.6565 -0.9122
25077SOL     OW78122   0.159   2.091   4.024  0.5314  0.3525  0.1520
25077SOL    HW178123   0.076   2.043   4.024 -0.5859  1.9912  3.3902
25077SOL    HW278124   0.169   2.120   3.934 -0.6695 -2.6050 -1.0739
25078SOL     OW78125   7.326   9.271   3.583  0.0432  0.1780 -0.4002
25078SOL    HW178126   7.362   9.245   3.499 -0.9903  0.3182 -0.8961
25078SOL    HW278127   7.382   9.344   3.612  1.1495 -0.6483 -0.3661
25079SOL     OW78128   6.195   8.752   6.181 -0.2816  0.2321  0.0886
25079SOL    HW178129   6.267   8.798   6.225 -0.5090 -0.0183  0.7332
25079SOL    HW278130   6.237   8.678   6.136  0.1867  1.4116 -1.5222
25080SOL     OW78131   1.448   9.020   6.206 -0.0633 -0.2188  0.2721
25080SOL    HW178132   1.516   9.081   6.233  0.1416  0.1322 -0.9659
25080SOL    HW278133   1.388   9.015   6.280 -0.2842  1.7707  0.2656
25081SOL     OW78134   2.689   8.883   3.345 -0.1894 -0.3430 -0.0554
25081SOL    HW178135   2.596   8.896   3.326 -0.3151  0.0021  0.7345
25081SOL    HW278136   2.694   8.889   3.441  1.2311  3.5872 -0.2096
25082SOL     OW78137   8.386   0.228   2.849  0.4769 -0.7436  0.2622
25082SOL    HW178138   8.468   0.188   2.819 -1.1528 -4.1481 -0.1875
25082SOL    HW278139   8.323   0.156   2.845 -2.5620  1.7441  0.5438
25083SOL     OW78140   6.666   9.097   5.822  0.1272 -0.3156  0.3460
25083SOL    HW178141   6.604   9.143   5.766  1.6517  3.1886  1.2610
25083SOL    HW278142   6.751   9.132   5.796  1.4663 -2.9056  1.0056
25084SOL     OW78143   6.406   9.603   7.330  0.4712 -0.0318 -0.2158
25084SOL    HW178144   6.473   9.551   7.287  1.2801  0.9800 -0.2196
25084SOL    HW278145   6.323   9.568   7.297  1.0401 -0.2274 -1.4777
25085SOL     OW78146   7.762   2.117   4.677  0.2510 -0.2032 -0.3801
25085SOL    HW178147   7.667   2.130   4.677  0.4397  1.5792  1.0804
25085SOL    HW278148   7.792   2.157   4.596 -0.2554 -1.0237 -0.9844
25086SOL     OW78149   5.437   2.814   5.663  0.0207  0.1679  0.1307
25086SOL    HW178150   5.389   2.834   5.744 -1.9437 -1.7267 -0.4786
25086SOL    HW278151   5.449   2.899   5.621 -2.1756  0.8085  0.6837
25087SOL     OW78152   8.257   2.069   4.964  0.1262  0.0905  0.0424
25087SOL    HW178153   8.313   2.009   5.013 -0.7509 -0.5866  0.2554
25087SOL    HW278154   8.315   2.111   4.901  1.4005  1.3281  1.9217
25088SOL     OW78155   3.676   1.080   1.119  0.3763 -0.2706 -0.2217
25088SOL    HW178156   3.600   1.135   1.098 -0.5461 -0.3059  2.5472
25088SOL    HW278157   3.644   0.991   1.108 -0.3022 -0.3035  1.6153
25089SOL     OW78158   0.919   8.635   3.386  0.0301 -0.4274 -0.5613
25089SOL    HW178159   0.955   8.546   3.387 -0.2016 -0.5225 -0.5605
25089SOL    HW278160   0.873   8.641   3.303  2.0182  0.4929 -1.6754
25090SOL     OW78161   7.505   4.717   8.876  0.5334  0.0740  0.1356
25090SOL    HW178162   7.450   4.654   8.921 -0.0530  1.2218  1.0765
25090SOL    HW278163   7.574   4.665   8.835  0.0474 -1.1550  0.8582
25091SOL     OW78164   7.585   7.976   4.785  0.0937 -0.3620  0.4396
25091SOL    HW178165   7.566   8.065   4.757 -1.4093 -0.7580  0.0923
25091SOL    HW278166   7.500   7.931   4.782  0.9149 -1.9907 -0.0830
25092SOL     OW78167   9.406   7.444   4.258  0.2233 -0.8579 -0.2185
25092SOL    HW178168   9.389   7.512   4.192  0.3577  1.5506  2.0376
25092SOL    HW278169   9.436   7.369   4.208  2.3946  1.4916 -2.7929
25093SOL     OW78170   4.061   8.602   6.324 -0.0818  0.2507  0.1531
25093SOL    HW178171   4.151   8.574   6.307 -0.3673 -0.6699  0.1065
25093SOL    HW278172   4.029   8.634   6.240 -0.6964 -2.0392 -0.5439
25094SOL     OW78173   5.989   3.807   9.381 -0.3120  0.0583 -0.4668
25094SOL    HW178174   6.015   3.727   9.427 -0.1335  0.9485  1.0583
25094SOL    HW278175   5.914   3.780   9.328 -0.2889 -1.1109  0.0550
25095SOL     OW78176   2.572   2.398   0.360 -0.3169  0.2682 -0.3237
25095SOL    HW178177   2.549   2.332   0.425  0.5699 -1.0223 -1.2724
25095SOL    HW278178   2.562   2.354   0.276  0.6569  1.2197 -0.9669
25096SOL     OW78179   1.399   8.395   4.526 -0.5462  0.1909 -0.3079
25096SOL    HW178180   1.437   8.395   4.438 -0.3616  0.3215 -0.2302
25096SOL    HW278181   1.416   8.484   4.558  1.6415 -0.5771  0.8192
25097SOL     OW78182   4.879   4.257   5.968  0.0789 -0.0199  0.5964
25097SOL    HW178183   4.924   4.334   6.002 -1.8576  1.0526  0.9168
25097SOL    HW278184   4.824   4.291   5.897  0.3387 -1.3975 -0.3087
25098SOL     OW78185   5.498   4.221   9.325  0.4620 -0.0950 -0.1030
25098SOL    HW178186   5.539   4.307   9.321 -0.5843  0.4523  0.7929
25098SOL    HW278187   5.409   4.237   9.354  0.3548 -1.5137  0.4500
25099SOL     OW78188   7.936   6.936   6.814  0.4050 -0.1796  0.1226
25099SOL    HW178189   7.912   6.871   6.880  2.0727  0.5029  1.4507
25099SOL    HW278190   7.856   6.988   6.801 -0.8270 -2.1447 -0.6419
25100SOL     OW78191   6.977   4.620   5.894  0.4003  0.6890 -0.1051
25100SOL    HW178192   6.948   4.675   5.822 -0.9352 -0.8166 -0.7916
25100SOL    HW278193   7.055   4.664   5.930 -0.9762  3.3120 -0.1572
25101SOL     OW78194   7.925   3.803   1.489  0.6296 -0.1109 -0.3825
25101SOL    HW178195   7.879   3.764   1.414  0.3024  0.2923 -0.3945
25101SOL    HW278196   7.864   3.869   1.522  1.4583  0.8714 -0.7728
25102SOL     OW78197   6.204   1.813   4.074  0.2116  0.4053  0.0124
25102SOL    HW178198   6.113   1.786   4.090  0.2834  0.6723  0.9375
25102SOL    HW278199   6.203   1.847   3.984 -0.1027 -1.6516 -0.8042
25103SOL     OW78200   0.098   8.952   4.340 -0.3517 -0.0832  0.0816
25103SOL    HW178201   0.136   8.914   4.261  0.3552 -0.7030  0.6940
25103SOL    HW278202   0.012   8.912   4.348  0.4367 -1.7815  0.8074
25104SOL     OW78203   0.056   7.480   4.940 -0.6087  0.5478  0.4609
25104SOL    HW178204   0.090   7.483   5.029  0.0705 -0.8492  0.2835
25104SOL    HW278205   0.026   7.390   4.929 -3.7093  1.4836  0.3368
25105SOL     OW78206   7.061   4.011   9.568 -0.4334 -0.3213  0.7261
25105SOL    HW178207   6.986   4.020   9.510  0.4302 -1.4830 -0.6532
25105SOL    HW278208   7.026   3.969   9.646 -1.4256  0.2786  0.6205
25106SOL     OW78209   9.161   7.440   7.394 -0.1760 -0.4672 -0.0506
25106SOL    HW178210   9.181   7.493   7.471  0.9130 -0.7645 -0.1175
25106SOL    HW278211   9.071   7.410   7.408 -0.8712  1.4905 -0.0798
25107SOL     OW78212   1.601   3.705   1.897 -0.2666  0.9714 -0.9755
25107SOL    HW178213   1.645   3.789   1.903 -0.0388  0.7573  0.8778
25107SOL    HW278214   1.657   3.644   1.944 -1.8988  0.4430  0.4077
25108SOL     OW78215   6.354   4.789   5.150  0.3034  0.1496 -0.0112
25108SOL    HW178216   6.365   4.699   5.178  1.0592 -0.0370 -0.8602
25108SOL    HW278217   6.339   4.783   5.055  0.6063  0.9228 -0.1164
25109SOL     OW78218   5.090   7.861   6.781  0.1548  0.0992  0.1875
25109SOL    HW178219   5.160   7.880   6.843  0.2722 -1.2802  0.5203
25109SOL    HW278220   5.014   7.908   6.815  0.7442  1.0806  0.1832
25110SOL     OW78221   3.828   1.094   7.836 -0.3045  0.2589  0.2174
25110SOL    HW178222   3.889   1.167   7.843 -0.0047  0.2300 -1.6642
25110SOL    HW278223   3.883   1.016   7.830 -0.6111 -0.0780  1.4281
25111SOL     OW78224   7.870   2.960   3.660 -0.5340 -0.1537  0.2198
25111SOL    HW178225   7.937   2.895   3.643 -1.0491 -1.1768  1.8272
25111SOL    HW278226   7.834   2.982   3.574  0.1157 -1.4770 -0.4086
25112SOL     OW78227   9.334   0.584   0.554 -0.4875  0.5480 -0.2305
25112SOL    HW178228   9.274   0.579   0.629 -0.7115  3.2384 -0.1162
25112SOL    HW278229   9.421   0.597   0.593 -0.2016 -0.6389 -0.4358
25113SOL     OW78230   6.962   2.964   7.169 -0.1977  0.5399 -0.1350
25113SOL    HW178231   6.871   2.950   7.198 -0.7634  0.5960 -1.7869
25113SOL    HW278232   7.010   2.891   7.206 -1.4753 -1.0969 -1.5046
25114SOL     OW78233   0.426   5.886   0.509  0.0990  0.3907 -0.4214
25114SOL    HW178234   0.377   5.939   0.445 -1.3783  0.0132  0.3471
25114SOL    HW278235   0.450   5.948   0.578  0.1145  0.4473 -0.4769
25115SOL     OW78236   6.825   0.258   5.516  0.1565 -0.8416  0.7627
25115SOL    HW178237   6.795   0.177   5.557  0.7487 -0.3757  2.2199
25115SOL    HW278238   6.765   0.325   5.549 -0.7060 -0.7492 -0.9098
25116SOL     OW78239   1.124   4.255   4.297 -0.3267 -0.1891 -0.3527
25116SOL    HW178240   1.216   4.239   4.319 -0.1952  2.7442  1.8034
25116SOL    HW278241   1.126   4.289   4.208  0.8584  0.8835  0.0481
25117SOL     OW78242   0.775   5.954   1.132 -0.4673  0.2625 -0.1659
25117SOL    HW178243   0.683   5.953   1.157 -0.3831 -2.1222  0.1861
25117SOL    HW278244   0.810   5.870   1.161  1.8505  1.1238 -0.2549
25118SOL     OW78245   4.283   0.486   7.210  0.7005  0.2487 -1.1468
25118SOL    HW178246   4.224   0.500   7.136 -1.1050 -0.8018  0.0054
25118SOL    HW278247   4.246   0.539   7.281  1.2363 -0.2662 -0.4574
25119SOL     OW78248   9.395   1.410   0.794 -0.2650 -0.5060 -0.2211
25119SOL    HW178249   9.403   1.505   0.806 -0.6988 -0.4143 -0.6100
25119SOL    HW278250   9.427   1.395   0.705  0.5302 -0.8319  0.1103
25120SOL     OW78251   0.555   2.784   7.187 -0.1978 -0.4167 -0.5410
25120SOL    HW178252   0.613   2.724   7.139  0.4010 -0.7017  0.5143
25120SOL    HW278253   0.611   2.823   7.254 -1.3420 -1.1362  0.8833
25121SOL     OW78254   5.239   5.903   6.871 -0.1610 -0.0579 -0.1676
25121SOL    HW178255   5.191   5.982   6.845 -1.0854 -0.4696  0.2290
25121SOL    HW278256   5.173   5.834   6.867  0.5777 -0.7618 -0.2554
25122SOL     OW78257   6.418   7.084   3.231  0.1011 -0.3606 -0.6639
25122SOL    HW178258   6.356   7.105   3.161 -0.3233 -0.5657 -0.3540
25122SOL    HW278259   6.413   7.160   3.290 -2.3392 -1.7375  1.0992
25123SOL     OW78260   0.960   4.848   0.166 -0.0064 -0.1952 -0.1410
25123SOL    HW178261   0.942   4.799   0.247 -0.4772 -1.1759 -0.8177
25123SOL    HW278262   0.939   4.939   0.188 -0.4177 -0.4923  0.7516
25124SOL     OW78263   2.315   9.344   9.494  0.2082 -0.0082  0.0952
25124SOL    HW178264   2.237   9.306   9.536  0.4175  0.0030  0.5023
25124SOL    HW278265   2.386   9.324   9.555  0.6942 -0.8855 -0.7390
25125SOL     OW78266   6.457   0.522   5.530  0.5346  0.7510 -0.5570
25125SOL    HW178267   6.491   0.518   5.441  1.6961 -0.9856 -0.0694
25125SOL    HW278268   6.534   0.510   5.586 -0.3536  0.5922  0.6684
25126SOL     OW78269   1.797   7.444   3.842 -0.9564  0.1690  0.2556
25126SOL    HW178270   1.702   7.449   3.855 -0.7733 -0.5128  2.4243
25126SOL    HW278271   1.833   7.464   3.929  0.8326 -0.6808 -0.2496
25127SOL     OW78272   7.290   4.063   8.134  0.1472  0.1685  0.6120
25127SOL    HW178273   7.209   4.085   8.181 -0.1630  2.7319 -0.9258
25127SOL    HW278274   7.282   4.108   8.050  1.9119 -1.9451 -0.7980
25128SOL     OW78275   1.828   1.080   6.366 -0.5282  0.3141 -0.1083
25128SOL    HW178276   1.804   1.099   6.457  0.3767  1.1850 -0.0306
25128SOL    HW278277   1.762   1.125   6.313 -0.4403  0.7080  0.1137
25129SOL     OW78278   0.760   1.955   3.827  0.0521 -0.0474  0.0685
25129SOL    HW178279   0.690   1.919   3.881 -1.0651 -0.4207 -1.5578
25129SOL    HW278280   0.717   2.024   3.775  0.5858 -1.0296 -1.7670
25130SOL     OW78281   3.086   7.664   2.180  0.1791  0.0075  0.1114
25130SOL    HW178282   3.181   7.670   2.177  0.1395  0.5244 -0.1266
25130SOL    HW278283   3.064   7.666   2.274  0.3743  0.3043  0.1494
25131SOL     OW78284   1.388   8.573   7.737  0.1769  0.1735 -0.3958
25131SOL    HW178285   1.421   8.540   7.653 -0.2611  3.4932 -2.0465
25131SOL    HW278286   1.293   8.566   7.730  0.1641 -0.1763  0.1168
25132SOL     OW78287   2.924   7.535   4.818 -0.1240  0.2851 -0.4430
25132SOL    HW178288   2.870   7.509   4.892 -0.2103  0.0140 -0.5963
25132SOL    HW278289   2.863   7.536   4.744  0.1257 -0.2882 -0.6674
25133SOL     OW78290   6.399   2.864   7.039 -1.0425 -0.0018 -0.4850
25133SOL    HW178291   6.365   2.924   6.973 -2.4326 -1.7253 -1.4017
25133SOL    HW278292   6.443   2.795   6.988  1.2618  0.5804  0.5699
25134SOL     OW78293   0.039   5.956   8.762 -0.6724  0.1653 -0.0782
25134SOL    HW178294   0.066   5.910   8.682 -0.9892 -1.6245  0.7866
25134SOL    HW278295  -0.050   5.925   8.778  0.1174 -1.2438  2.0955
25135SOL     OW78296   8.363   0.773   2.620  0.0116 -0.2877 -0.2701
25135SOL    HW178297   8.268   0.765   2.612 -0.0669 -1.1369  1.1225
25135SOL    HW278298   8.396   0.687   2.596  0.1913 -0.8750  1.8449
25136SOL     OW78299   4.837   7.188   1.831 -0.3790 -0.0317  0.0613
25136SOL    HW178300   4.827   7.219   1.921  1.4163 -1.1138  0.6824
25136SOL    HW278301   4.879   7.102   1.840  1.1094  0.4384 -1.8574
25137SOL     OW78302   1.508   0.843   1.923 -0.2702  0.2610  0.3294
25137SOL    HW178303   1.450   0.781   1.880  0.2526 -0.1444  0.1877
25137SOL    HW278304   1.549   0.892   1.851  1.5881 -1.3020  0.2380
25138SOL     OW78305   9.135   2.789   7.457 -0.1025  0.0820  0.3633
25138SOL    HW178306   9.077   2.737   7.402  2.0815 -0.9029 -1.2027
25138SOL    HW278307   9.077   2.841   7.512 -2.5060  1.1183 -2.8478
25139SOL     OW78308   8.288   5.146   6.748 -0.6031 -0.4026 -0.4806
25139SOL    HW178309   8.197   5.172   6.730 -0.6916 -1.2579 -1.3260
25139SOL    HW278310   8.280   5.071   6.806 -0.4627 -0.9769 -1.2000
25140SOL     OW78311   0.919   4.037   9.136 -0.1365  0.7972  0.1855
25140SOL    HW178312   0.837   4.047   9.185  0.2979 -1.7896  1.5975
25140SOL    HW278313   0.897   3.974   9.068  0.1200  1.9396 -1.0014
25141SOL     OW78314   6.311   8.824   4.193  0.2125  0.2018  0.0651
25141SOL    HW178315   6.305   8.920   4.191 -2.4603  0.0941 -0.0077
25141SOL    HW278316   6.274   8.796   4.109  1.1252 -0.9393  0.0147
25142SOL     OW78317   6.531   3.710   2.159 -0.0581 -0.0943 -0.4844
25142SOL    HW178318   6.564   3.757   2.083  1.9302 -2.7608 -1.4483
25142SOL    HW278319   6.578   3.748   2.233  0.2007  0.5627 -0.9744
25143SOL     OW78320   4.669   1.297   4.461 -0.2135 -0.1259  0.5234
25143SOL    HW178321   4.676   1.286   4.366 -0.4991 -0.4623  0.5373
25143SOL    HW278322   4.581   1.267   4.482 -0.3604  0.5075  0.8224
25144SOL     OW78323   1.899   2.477   1.265 -0.3682 -0.1754  0.4819
25144SOL    HW178324   1.988   2.452   1.288  0.2341 -0.7845 -2.1484
25144SOL    HW278325   1.909   2.540   1.193 -2.0501  2.2079  2.1623
25145SOL     OW78326   9.605   9.097   6.171  0.5425 -0.3737 -0.5613
25145SOL    HW178327   9.531   9.132   6.221  1.4081 -0.7519  1.0493
25145SOL    HW278328   9.567   9.074   6.086 -1.3188 -1.0165  0.3751
25146SOL     OW78329   9.445   8.509   3.905  0.2373 -0.1432 -0.3083
25146SOL    HW178330   9.405   8.427   3.935  0.3238 -0.6929 -1.5987
25146SOL    HW278331   9.372   8.561   3.872 -0.0713  1.1162  2.1609
25147SOL     OW78332   1.994   2.548   2.965  0.3176  0.3763 -0.2728
25147SOL    HW178333   1.927   2.492   3.003  0.3711 -0.2756 -1.0997
25147SOL    HW278334   1.974   2.636   2.997  0.4134 -0.1456  1.2828
25148SOL     OW78335   3.949   3.331   5.141 -0.4160  0.1166 -0.0038
25148SOL    HW178336   4.011   3.266   5.174 -0.4575 -0.6751 -1.4120
25148SOL    HW278337   4.002   3.387   5.083 -0.6913  0.4085  0.0239
25149SOL     OW78338   1.025   2.889   9.156 -0.5488  0.0994  0.6107
25149SOL    HW178339   0.945   2.924   9.116 -1.4072 -1.2451  1.0871
25149SOL    HW278340   1.081   2.965   9.169 -1.5260  0.9919 -0.2475
25150SOL     OW78341   6.159   7.226   8.254 -0.0820 -0.0647 -0.7052
25150SOL    HW178342   6.070   7.194   8.269  0.0873 -0.2367 -0.0308
25150SOL    HW278343   6.215   7.165   8.302  0.2879  0.8838  0.1031
25151SOL     OW78344   1.567   7.480   3.992 -0.2435 -0.0532  0.0020
25151SOL    HW178345   1.590   7.431   4.071 -0.8402 -2.4804 -1.2329
25151SOL    HW278346   1.487   7.527   4.014 -1.2770 -1.9383  0.4229
25152SOL     OW78347   1.556   7.920   3.534 -0.3296 -0.8764  0.2476
25152SOL    HW178348   1.635   7.927   3.587 -0.3569 -0.3971  0.2218
25152SOL    HW278349   1.484   7.932   3.596 -0.3477  1.3507 -0.1329
25153SOL     OW78350   1.615   7.167   5.026 -0.2211 -0.0306  0.0875
25153SOL    HW178351   1.554   7.094   5.023 -0.2645  0.0320 -1.3083
25153SOL    HW278352   1.595   7.212   5.109 -0.8434 -1.0315  0.4964
25154SOL     OW78353   5.909   8.517   1.998  0.2552 -0.1762  0.0977
25154SOL    HW178354   5.949   8.462   1.931  1.5996 -0.7645  1.3362
25154SOL    HW278355   5.851   8.458   2.047  1.2484 -0.3899  1.0550
25155SOL     OW78356   2.993   7.975   3.746 -0.2281  0.4788 -0.2848
25155SOL    HW178357   2.974   8.046   3.684 -0.5534  0.2660 -0.4350
25155SOL    HW278358   2.913   7.967   3.798 -1.2937 -1.6034 -2.0732
25156SOL     OW78359   5.091   8.752   5.189 -0.2880 -0.4739 -0.2960
25156SOL    HW178360   5.019   8.699   5.222 -1.0099 -0.3806 -1.6721
25156SOL    HW278361   5.170   8.699   5.206 -0.6387 -0.5249  1.3171
25157SOL     OW78362   8.590   1.585   0.894 -0.7935 -0.5969 -0.7472
25157SOL    HW178363   8.627   1.505   0.855  0.6603  0.2288 -1.1511
25157SOL    HW278364   8.599   1.651   0.825  0.0754  0.4336  0.3065
25158SOL     OW78365   9.574   8.053   4.582  0.5924 -0.0523 -0.7731
25158SOL    HW178366   9.609   8.070   4.494 -0.5559 -1.5492 -1.5648
25158SOL    HW278367   9.579   7.958   4.591  2.9091  0.1791  1.7885
25159SOL     OW78368   2.850   6.351   7.971  0.0645 -0.0995  0.1835
25159SOL    HW178369   2.802   6.434   7.973 -0.1547 -0.1596 -1.3023
25159SOL    HW278370   2.782   6.284   7.970  0.2227 -0.2588  0.1754
25160SOL     OW78371   1.540   0.652   0.905  0.0670 -0.4515 -0.1375
25160SOL    HW178372   1.450   0.639   0.875 -0.0127  0.4161 -0.3147
25160SOL    HW278373   1.571   0.565   0.930 -1.7042 -0.4266  2.4644
25161SOL     OW78374   1.950   1.497   3.982  0.0771  0.6289 -0.0650
25161SOL    HW178375   1.908   1.534   4.059  0.4112 -0.3043  0.5847
25161SOL    HW278376   2.043   1.492   4.005  0.1616  0.2085 -0.4733
25162SOL     OW78377   1.471   9.189   3.286  0.1460 -0.4801  0.2699
25162SOL    HW178378   1.512   9.111   3.250  0.6950 -0.8565  1.6593
25162SOL    HW278379   1.392   9.157   3.330  0.1497 -0.1963  0.4910
25163SOL     OW78380   5.450   2.638   2.960 -0.3539  0.4839 -0.1658
25163SOL    HW178381   5.453   2.726   2.922  0.0026  0.2661 -0.6516
25163SOL    HW278382   5.440   2.580   2.885 -0.0511  0.0734  0.1050
25164SOL     OW78383   4.478   9.036   3.648  0.3495  0.5593  0.4461
25164SOL    HW178384   4.548   9.093   3.616  1.1643 -0.8787 -0.4647
25164SOL    HW278385   4.510   8.947   3.630 -1.1536 -0.1721  1.2152
25165SOL     OW78386   9.129   2.084   6.370  0.1218  0.2469 -0.4623
25165SOL    HW178387   9.178   2.011   6.332  2.1032  1.2414  0.0866
25165SOL    HW278388   9.058   2.042   6.419  0.6014 -1.2516 -0.9819
25166SOL     OW78389   6.931   6.426   3.787  0.1819  0.4387 -0.7120
25166SOL    HW178390   6.996   6.478   3.739 -0.0427  0.9069 -0.5187
25166SOL    HW278391   6.982   6.374   3.848  0.3336  1.3186 -0.0704
25167SOL     OW78392   5.352   1.231   6.769  0.0909 -0.0577  0.0077
25167SOL    HW178393   5.364   1.317   6.730  0.4231  0.4114  1.1162
25167SOL    HW278394   5.276   1.194   6.723 -0.3351  1.0029 -0.1596
25168SOL     OW78395   5.020   8.458   4.707 -0.0500  0.1375  0.1321
25168SOL    HW178396   4.926   8.443   4.696 -0.0474  0.8336 -0.9771
25168SOL    HW278397   5.058   8.435   4.622  0.4607  2.2128 -0.2349
25169SOL     OW78398   5.129   7.052   5.181  0.0476  0.1828 -0.0321
25169SOL    HW178399   5.142   7.015   5.269 -0.3375 -0.3509 -0.1942
25169SOL    HW278400   5.055   7.004   5.145  0.4385  0.1264 -0.7968
25170SOL     OW78401   7.812   6.162   2.572 -0.1169  0.4282  0.1300
25170SOL    HW178402   7.792   6.212   2.493 -0.5521  1.0249  0.6044
25170SOL    HW278403   7.738   6.103   2.583 -0.3711  0.7992  0.4418
25171SOL     OW78404   9.286   6.194   5.971  0.1271  0.4186  0.2914
25171SOL    HW178405   9.324   6.280   5.986 -1.0567  0.9691  0.2533
25171SOL    HW278406   9.192   6.207   5.982 -0.2582 -0.4543 -1.5565
25172SOL     OW78407   4.684   8.330   6.943 -0.1974 -0.0189  0.0444
25172SOL    HW178408   4.635   8.305   6.865 -0.3662  0.2960  0.0478
25172SOL    HW278409   4.673   8.425   6.950  0.6017  0.0967 -0.0861
25173SOL     OW78410   3.361   6.773   2.914 -0.2249  0.1957 -1.7188
25173SOL    HW178411   3.317   6.743   2.835  0.5776 -0.4427 -1.9320
25173SOL    HW278412   3.440   6.817   2.882  1.6969 -2.6328 -1.2383
25174SOL     OW78413   8.176   9.456   9.562  0.6811 -0.2028 -0.0993
25174SOL    HW178414   8.196   9.431   9.652 -0.1608  0.8861  0.4143
25174SOL    HW278415   8.261   9.478   9.524  1.3616 -2.9036 -0.3368
25175SOL     OW78416   8.007   3.469   4.382 -0.3831  0.3349 -0.2496
25175SOL    HW178417   8.049   3.554   4.395 -0.5996  0.9830 -3.0865
25175SOL    HW278418   7.954   3.456   4.461  0.2463  2.4571  0.6049
25176SOL     OW78419   6.724   1.169   7.750  0.2443  0.8245 -0.2721
25176SOL    HW178420   6.814   1.195   7.734  0.3784  0.6731  0.2127
25176SOL    HW278421   6.673   1.216   7.684  0.4956  2.1228  0.4347
25177SOL     OW78422   6.661   3.406   3.396  0.2491 -0.4775  0.1910
25177SOL    HW178423   6.684   3.444   3.481 -1.6424 -0.2176  0.6285
25177SOL    HW278424   6.642   3.314   3.415 -0.7937 -0.2756  0.1911
25178SOL     OW78425   4.215   3.242   9.014  0.0657  0.0762 -0.2391
25178SOL    HW178426   4.268   3.245   9.094 -1.1286  0.4676  0.5719
25178SOL    HW278427   4.145   3.305   9.030 -0.4623 -0.2015 -1.4040
25179SOL     OW78428   7.668   0.888   2.194  0.3305  0.0588 -0.3881
25179SOL    HW178429   7.761   0.900   2.176  0.1111 -0.5953 -2.1526
25179SOL    HW278430   7.623   0.933   2.122 -0.7045 -0.1001  0.1354
25180SOL     OW78431   4.127   1.545   4.408 -0.2915 -0.2851  0.0650
25180SOL    HW178432   4.118   1.513   4.498  1.3782 -1.4071 -0.1194
25180SOL    HW278433   4.113   1.639   4.414  0.7797 -0.2006  1.6757
25181SOL     OW78434   8.564   0.020   9.537 -0.1151 -0.2680  0.4677
25181SOL    HW178435   8.510   0.027   9.459 -0.7435  0.8529  0.9800
25181SOL    HW278436   8.600  -0.069   9.534 -0.2419 -0.2863 -1.0028
25182SOL     OW78437   8.900   8.524   3.557 -0.0458  0.3441  0.1747
25182SOL    HW178438   8.911   8.534   3.652 -1.5921  0.3845  0.3775
25182SOL    HW278439   8.808   8.501   3.546  0.5590 -1.7292 -1.1856
25183SOL     OW78440   4.609   0.330   7.587 -0.1097 -0.0401  0.2995
25183SOL    HW178441   4.613   0.282   7.670 -0.0649 -0.2194  0.1918
25183SOL    HW278442   4.699   0.357   7.570  0.1643 -1.4077 -0.5287
25184SOL     OW78443   2.653   2.828   1.674 -0.3609  0.0561 -0.1280
25184SOL    HW178444   2.559   2.848   1.675 -0.6086 -1.0733 -0.2928
25184SOL    HW278445   2.694   2.913   1.656 -1.3218  0.6379  0.2899
25185SOL     OW78446   2.275   1.309   2.416  0.1731 -0.0666  0.1228
25185SOL    HW178447   2.254   1.260   2.336 -1.6532  1.1095 -0.1850
25185SOL    HW278448   2.346   1.367   2.391 -0.8863  0.8326 -0.9033
25186SOL     OW78449   0.658   9.006   2.176 -0.3619  0.4472  0.2842
25186SOL    HW178450   0.606   9.077   2.137 -0.9856 -0.3905 -0.4311
25186SOL    HW278451   0.749   9.030   2.154 -0.5785  0.9018 -0.1685
25187SOL     OW78452   6.661   2.044   3.413  0.8693 -0.1467  0.0700
25187SOL    HW178453   6.708   2.072   3.335  0.7065  0.5355  0.2103
25187SOL    HW278454   6.702   2.092   3.485 -0.9439  1.6065  0.0287
25188SOL     OW78455   5.976   6.367   3.032  0.0569 -0.0154 -0.0935
25188SOL    HW178456   6.025   6.411   3.102 -1.6142  1.1754  0.3933
25188SOL    HW278457   6.043   6.331   2.975  1.4863  0.6059  1.1236
25189SOL     OW78458   1.772   1.375   0.185 -0.3745 -0.1534 -0.5450
25189SOL    HW178459   1.836   1.427   0.136 -0.9457  1.6217  0.5094
25189SOL    HW278460   1.716   1.337   0.118  0.0300  0.6407 -1.3563
25190SOL     OW78461   8.474   8.127   0.250 -0.2117 -0.2426  0.5507
25190SOL    HW178462   8.395   8.139   0.302 -0.6290  2.0665 -0.4938
25190SOL    HW278463   8.545   8.152   0.309 -0.5669  0.9458  0.5051
25191SOL     OW78464   5.605   1.514   7.174 -0.1576 -0.1099 -0.1424
25191SOL    HW178465   5.551   1.518   7.253  0.1227  0.6013  0.0119
25191SOL    HW278466   5.550   1.466   7.111 -1.0589  0.7660 -0.0458
25192SOL     OW78467   8.742   9.367   3.693 -0.1422 -0.0878 -0.1051
25192SOL    HW178468   8.741   9.352   3.599  0.1344  0.9085 -0.2797
25192SOL    HW278469   8.830   9.340   3.721  0.2243  0.7884 -0.3574
25193SOL     OW78470   1.985   1.430   2.738 -0.4877 -0.3613 -0.3024
25193SOL    HW178471   1.892   1.448   2.752 -0.9307 -1.7141 -1.2382
25193SOL    HW278472   2.027   1.516   2.740 -1.5293  0.1618  1.5513
25194SOL     OW78473   6.212   0.978   3.861  0.3165  0.0794  0.2772
25194SOL    HW178474   6.277   0.908   3.869  1.2596  0.7904 -0.8298
25194SOL    HW278475   6.245   1.034   3.791 -1.1315  0.8724  0.1799
25195SOL     OW78476   0.290   1.617   3.100 -0.2693 -0.5235 -0.2485
25195SOL    HW178477   0.359   1.552   3.092  0.2299 -0.1529  0.8834
25195SOL    HW278478   0.234   1.585   3.170 -1.6424 -1.1385 -1.5621
25196SOL     OW78479   1.610   9.186   6.361  0.0053 -0.2669 -0.1651
25196SOL    HW178480   1.636   9.275   6.386 -0.8363 -0.2397  0.6467
25196SOL    HW278481   1.620   9.135   6.442 -3.4248 -0.0411  0.5407
25197SOL     OW78482   3.700   7.388   9.408  0.2638 -0.2609  0.3329
25197SOL    HW178483   3.771   7.411   9.347  1.3288 -0.0723  1.5948
25197SOL    HW278484   3.650   7.469   9.417  0.4410 -0.1261  0.1453
25198SOL     OW78485   4.056   0.022   2.994 -0.5996  0.3998  0.0244
25198SOL    HW178486   3.982   0.013   3.055  1.9329 -0.8568  3.2314
25198SOL    HW278487   4.054  -0.058   2.943 -1.0061  0.0114  0.6269
25199SOL     OW78488   1.187   2.075   0.206 -0.3468 -0.2049  0.5268
25199SOL    HW178489   1.252   2.122   0.154 -0.3006  0.9913  1.6194
25199SOL    HW278490   1.113   2.063   0.146  0.2561 -0.1665 -0.2418
25200SOL     OW78491   3.466   5.974   4.870 -0.4824  0.5053 -0.5258
25200SOL    HW178492   3.519   6.029   4.928 -0.0127  0.0410 -0.5142
25200SOL    HW278493   3.490   6.002   4.782 -0.8436  0.8769 -0.5120
25201SOL     OW78494   1.263   1.707   6.932 -0.4876 -0.0228 -0.0911
25201SOL    HW178495   1.232   1.719   6.843  0.0459 -3.5553 -0.9369
25201SOL    HW278496   1.185   1.681   6.982 -0.3840 -0.5351 -0.1833
25202SOL     OW78497   3.797   5.778   6.416  0.1480  0.5602  0.0531
25202SOL    HW178498   3.762   5.694   6.387  2.3224  0.4863 -2.7401
25202SOL    HW278499   3.829   5.761   6.505  0.5524 -1.6079 -0.4451
25203SOL     OW78500   1.096   3.285   7.049 -0.1827 -0.2161 -0.3220
25203SOL    HW178501   1.078   3.357   6.987  1.9737  1.9189  1.3311
25203SOL    HW278502   1.058   3.315   7.132  0.7273 -1.0049  0.3999
25204SOL     OW78503   7.325   6.643   4.775  0.0423  0.2757 -0.8173
25204SOL    HW178504   7.297   6.719   4.724 -1.6342  0.4225  0.2451
25204SOL    HW278505   7.299   6.568   4.722  1.1227  0.4040 -1.5707
25205SOL     OW78506   3.939   4.374   6.380  0.1104  0.4150 -0.5801
25205SOL    HW178507   3.861   4.429   6.373 -0.2108  0.4338  2.0136
25205SOL    HW278508   3.906   4.285   6.383 -0.0460  0.4918  2.1051
25206SOL     OW78509   5.381   3.678   4.638 -0.0826 -0.1781 -0.0391
25206SOL    HW178510   5.298   3.641   4.610 -0.5751  1.4193 -0.8212
25206SOL    HW278511   5.404   3.740   4.569  1.7063 -0.4840  0.2241
25207SOL     OW78512   9.265   4.724   6.032 -0.8080 -0.2959  0.2244
25207SOL    HW178513   9.201   4.736   5.962 -2.0311  2.6038  1.6981
25207SOL    HW278514   9.350   4.733   5.989 -1.4728 -0.4266 -1.1617
25208SOL     OW78515   0.037   0.963   3.411  0.3765  0.7854  0.1692
25208SOL    HW178516   0.049   1.057   3.401 -0.7720  0.9088 -0.1695
25208SOL    HW278517   0.025   0.930   3.322  0.7361  0.3190  0.2882
25209SOL     OW78518   2.379   0.791   6.647  0.0917  0.1134 -0.3511
25209SOL    HW178519   2.448   0.811   6.584  1.0058  0.7187  0.8105
25209SOL    HW278520   2.297   0.806   6.599  0.7627  0.7217 -1.3264
25210SOL     OW78521   4.583   6.214   6.812  0.6391 -0.1204 -0.1079
25210SOL    HW178522   4.568   6.212   6.717 -1.8239  2.0597  0.1273
25210SOL    HW278523   4.670   6.253   6.820  1.0958 -0.7716 -1.4412
25211SOL     OW78524   9.348   5.962   8.159  0.2867  0.1595 -0.3662
25211SOL    HW178525   9.349   6.052   8.128 -2.6649 -0.3934 -2.4315
25211SOL    HW278526   9.289   5.963   8.235 -1.2068 -0.2608 -1.4788
25212SOL     OW78527   0.774   0.420   8.411  0.2015 -0.1807  0.1141
25212SOL    HW178528   0.793   0.484   8.480 -0.6388  0.4158 -0.1935
25212SOL    HW278529   0.690   0.382   8.436 -0.9436  1.2029 -1.3803
25213SOL     OW78530   8.883   0.575   6.595 -0.5962 -0.1874  0.5740
25213SOL    HW178531   8.887   0.656   6.644 -3.2174  1.5289 -1.7052
25213SOL    HW278532   8.806   0.530   6.629 -1.0550 -0.1053 -0.3076
25214SOL     OW78533   1.996   9.398   9.549  0.0855 -0.1762  0.3882
25214SOL    HW178534   1.998   9.430   9.459  1.2474  0.1765  0.5222
25214SOL    HW278535   1.903   9.389   9.569 -0.4026  3.3837  0.3918
25215SOL     OW78536   7.337   6.883   6.633  0.0908  0.3557  0.0871
25215SOL    HW178537   7.342   6.977   6.651 -1.6831  0.8687 -1.7282
25215SOL    HW278538   7.310   6.844   6.716  1.7799  1.2730  1.1332
25216SOL     OW78539   9.493   5.468   5.493 -0.1943  0.5559 -0.9328
25216SOL    HW178540   9.484   5.398   5.557 -1.9406  1.9704  0.4771
25216SOL    HW278541   9.576   5.450   5.450  1.0327 -0.5219  1.6578
25217SOL     OW78542   7.091   0.523   0.758  0.6707  0.2042  0.3948
25217SOL    HW178543   7.000   0.543   0.736  0.9019 -0.2075 -1.0823
25217SOL    HW278544   7.111   0.444   0.708  1.8104  0.2222  0.7797
25218SOL     OW78545   5.507   7.789   5.469  0.0496 -0.4010  0.7897
25218SOL    HW178546   5.413   7.804   5.461  0.1410 -0.1744  0.0531
25218SOL    HW278547   5.515   7.723   5.538 -0.6825 -0.8194  0.4875
25219SOL     OW78548   5.261   3.683   5.527  0.3013  0.4049 -0.3595
25219SOL    HW178549   5.267   3.588   5.519  1.3421  0.4156  0.1711
25219SOL    HW278550   5.308   3.717   5.451  1.6249  0.4848  0.4723
25220SOL     OW78551   6.243   9.075   8.054  0.3714  0.0105 -0.1762
25220SOL    HW178552   6.309   9.007   8.042 -0.1035 -0.4328 -0.3090
25220SOL    HW278553   6.224   9.074   8.148  0.0902 -0.3024 -0.2350
25221SOL     OW78554   9.562   0.221   6.511  0.2463 -0.4327  0.3842
25221SOL    HW178555   9.484   0.276   6.502 -0.7882 -1.9959 -0.9879
25221SOL    HW278556   9.566   0.200   6.604  0.3124  1.4143  0.8213
25222SOL     OW78557   3.454   3.167   5.753  0.4802 -0.3223 -0.1340
25222SOL    HW178558   3.527   3.189   5.695  0.7922 -1.0532 -0.0246
25222SOL    HW278559   3.493   3.169   5.841  0.4638 -1.0961 -0.1058
25223SOL     OW78560   6.549   0.008   0.434  0.8470 -0.0153 -0.5945
25223SOL    HW178561   6.594   0.070   0.377 -0.7085  1.4670 -0.2816
25223SOL    HW278562   6.504  -0.052   0.374 -2.3007  2.6225 -1.1418
25224SOL     OW78563   7.172   2.352   6.907 -0.1683  0.4453 -0.2039
25224SOL    HW178564   7.249   2.296   6.910  0.3863  1.1939 -0.3401
25224SOL    HW278565   7.136   2.338   6.819 -1.1666 -1.1619  0.4055
25225SOL     OW78566   0.197   2.184   6.171 -0.0616 -0.3167 -0.0900
25225SOL    HW178567   0.190   2.116   6.238 -1.9936  0.7364  0.8501
25225SOL    HW278568   0.130   2.248   6.194 -0.1656  0.5538 -2.5338
25226SOL     OW78569   8.910   9.148   8.876  0.3039  0.0630 -0.2835
25226SOL    HW178570   8.891   9.123   8.785  0.2349 -0.5676 -0.0951
25226SOL    HW278571   8.825   9.147   8.919  0.2394  1.0027 -0.3575
25227SOL     OW78572   7.471   2.576   4.432 -0.7683  0.2144  0.3507
25227SOL    HW178573   7.436   2.498   4.476  1.5129 -2.7960 -2.6806
25227SOL    HW278574   7.396   2.613   4.387 -1.6109 -1.2708  0.4607
25228SOL     OW78575   8.252   3.884   2.513  0.0941 -0.5778 -0.0982
25228SOL    HW178576   8.339   3.868   2.476  0.4309  0.9170 -0.0033
25228SOL    HW278577   8.194   3.830   2.459  0.9706 -0.9509 -0.7118
25229SOL     OW78578   5.557   7.691   1.468  0.4899  0.0961 -0.7064
25229SOL    HW178579   5.522   7.780   1.465 -1.6332 -0.6773 -0.6316
25229SOL    HW278580   5.607   7.682   1.386  0.2430  1.1649 -0.9897
25230SOL     OW78581   3.018   6.281   2.721  0.8013  0.3223 -0.9575
25230SOL    HW178582   2.969   6.334   2.784  1.8168  0.3844 -0.1812
25230SOL    HW278583   2.969   6.289   2.639 -1.5652 -1.2068  0.2004
25231SOL     OW78584   6.533   9.145   8.635  0.0793  0.1637  0.0014
25231SOL    HW178585   6.450   9.192   8.636  0.1669  0.3784 -1.1010
25231SOL    HW278586   6.511   9.056   8.664 -0.0620  0.8863  2.2513
25232SOL     OW78587   7.684   4.686   9.199 -0.0734  0.0640 -0.4002
25232SOL    HW178588   7.594   4.718   9.195  0.4281  1.3962 -2.0570
25232SOL    HW278589   7.675   4.591   9.191 -1.3497  0.1232  0.0356
25233SOL     OW78590   2.505   4.408   4.439 -0.1644  0.4961 -0.0666
25233SOL    HW178591   2.585   4.403   4.492 -1.0254 -1.5219  1.1582
25233SOL    HW278592   2.529   4.365   4.357  0.0228 -0.1551  0.3160
25234SOL     OW78593   5.540   0.541   7.891 -0.1512  0.3047  0.0558
25234SOL    HW178594   5.564   0.493   7.971 -0.7716 -1.8305 -0.9544
25234SOL    HW278595   5.609   0.520   7.829  0.2195  1.7891 -0.0580
25235SOL     OW78596   4.330   4.027   4.190 -0.0145 -0.4482 -0.2091
25235SOL    HW178597   4.301   3.958   4.130 -0.5477 -2.1969  1.8956
25235SOL    HW278598   4.248   4.067   4.221  0.2184 -0.0331 -0.1241
25236SOL     OW78599   8.012   7.547   8.372  0.2015 -0.1009 -0.4379
25236SOL    HW178600   7.965   7.583   8.298  0.5159  0.0318 -0.5763
25236SOL    HW278601   7.964   7.467   8.394 -0.1877  0.1257 -0.4595
25237SOL     OW78602   9.355   9.602   6.774 -0.4838  0.0320 -0.1366
25237SOL    HW178603   9.307   9.526   6.808  1.4825 -1.0125  0.5145
25237SOL    HW278604   9.348   9.594   6.679 -0.7912 -0.6374 -0.0698
25238SOL     OW78605   9.010   8.219   7.821 -0.0983  0.3805  0.4208
25238SOL    HW178606   8.938   8.247   7.878 -0.5437 -0.1374  0.1149
25238SOL    HW278607   9.008   8.124   7.824  0.2591  0.3570  0.0183
25239SOL     OW78608   3.844   1.381   6.730 -0.2904  0.4759  0.3117
25239SOL    HW178609   3.784   1.339   6.790  1.3668  1.2528  2.6575
25239SOL    HW278610   3.931   1.360   6.763  0.6757  2.0600 -1.0204
25240SOL     OW78611   3.254   2.108   7.770  0.0780  0.3085  0.0970
25240SOL    HW178612   3.217   2.038   7.824 -1.2467  1.1157  0.2607
25240SOL    HW278613   3.309   2.158   7.830 -1.3057  1.1392  0.7091
25241SOL     OW78614   3.535   2.769   8.063 -0.0985  0.0183 -0.2993
25241SOL    HW178615   3.524   2.678   8.090 -0.7880  0.2026  0.0707
25241SOL    HW278616   3.625   2.774   8.030 -0.0771 -0.8041 -0.3716
25242SOL     OW78617   0.639   4.337   0.586  0.6014 -0.4374  0.2000
25242SOL    HW178618   0.546   4.326   0.608  0.9858 -0.8530  1.6763
25242SOL    HW278619   0.666   4.416   0.634  0.4367  1.1999 -2.1982
25243SOL     OW78620   8.518   7.793   5.294  0.8769 -0.5691 -0.2137
25243SOL    HW178621   8.585   7.772   5.359  0.8574 -1.7341 -0.5582
25243SOL    HW278622   8.442   7.741   5.318 -0.0726  1.0047  0.3791
25244SOL     OW78623   0.574   2.292   3.101  0.0115  0.1236  0.6515
25244SOL    HW178624   0.497   2.236   3.095 -1.2570  1.9709 -2.0844
25244SOL    HW278625   0.644   2.233   3.131 -1.7470 -2.3244  0.2574
25245SOL     OW78626   8.167   9.070   1.100  0.1458 -0.3866  0.0910
25245SOL    HW178627   8.130   9.154   1.071  1.4058  0.0418 -0.3181
25245SOL    HW278628   8.121   9.052   1.182  0.1120  0.9049  0.3854
25246SOL     OW78629   4.007   8.091   2.798 -0.0651  0.3110  0.1137
25246SOL    HW178630   4.019   8.186   2.800 -0.3429  0.3648 -0.6139
25246SOL    HW278631   4.094   8.056   2.817 -0.2645  0.6916  1.9938
25247SOL     OW78632   1.378   0.647   0.261  0.0813 -0.5965 -0.4709
25247SOL    HW178633   1.309   0.609   0.207 -1.3314  0.5751  0.4353
25247SOL    HW278634   1.339   0.654   0.348  1.8155 -1.1096  0.4009
25248SOL     OW78635   9.538   6.359   2.213  0.2848 -0.2568 -0.0230
25248SOL    HW178636   9.461   6.362   2.157  1.1209  0.9097 -1.1336
25248SOL    HW278637   9.511   6.404   2.293 -0.4972 -0.7973  0.0371
25249SOL     OW78638   5.948   6.219   5.871 -0.0383 -0.6712 -0.0219
25249SOL    HW178639   5.986   6.307   5.867 -1.0159 -0.2706 -1.1093
25249SOL    HW278640   6.012   6.163   5.827 -0.5200 -0.0730 -1.5110
25250SOL     OW78641   8.885   3.321   2.244  0.5376 -0.0112  0.2843
25250SOL    HW178642   8.942   3.282   2.178 -0.3237  0.6755 -0.8937
25250SOL    HW278643   8.822   3.252   2.266  0.5726 -0.1045  0.0904
25251SOL     OW78644   9.189   8.852   3.725  0.4081  0.2791  0.5657
25251SOL    HW178645   9.113   8.896   3.689  0.8279 -0.1345 -0.8966
25251SOL    HW278646   9.155   8.771   3.762  0.2296 -0.3493 -0.9168
25252SOL     OW78647   3.643   5.818   5.407 -0.0962  0.1567  0.0392
25252SOL    HW178648   3.733   5.800   5.380 -0.3970 -0.4456 -0.6088
25252SOL    HW278649   3.651   5.865   5.490  0.8029 -0.1633  0.1405
25253SOL     OW78650   5.670   9.597   1.308  0.4454 -0.0500 -0.0058
25253SOL    HW178651   5.695   9.667   1.248 -0.5624 -0.4413 -0.9349
25253SOL    HW278652   5.725   9.610   1.385  1.8279  0.4346 -1.0302
25254SOL     OW78653   0.452   0.923   4.484  0.4280 -0.0529  0.0902
25254SOL    HW178654   0.496   0.872   4.417  0.3859 -0.2272  0.1942
25254SOL    HW278655   0.365   0.940   4.449  0.6981  0.6172 -0.2803
25255SOL     OW78656   7.913   6.948   5.446  0.0010  0.1790 -0.3567
25255SOL    HW178657   8.000   6.952   5.407  0.2868  2.7425  0.3511
25255SOL    HW278658   7.896   7.038   5.475 -1.8871 -0.7602  1.7060
25256SOL     OW78659   9.105   6.009   4.411 -0.2289 -0.0544  0.1560
25256SOL    HW178660   9.069   6.097   4.404  1.1267  0.6294  1.3393
25256SOL    HW278661   9.104   5.990   4.505  0.7626 -0.7271  0.0487
25257SOL     OW78662   1.487   6.143   8.027 -0.2852 -0.1104  0.4130
25257SOL    HW178663   1.414   6.092   8.064 -0.1392  1.0354  2.4045
25257SOL    HW278664   1.527   6.186   8.102  2.1305 -0.2438 -0.7123
25258SOL     OW78665   2.608   6.999   1.887 -0.5236  0.7512 -0.1293
25258SOL    HW178666   2.586   7.076   1.835 -0.8535  0.5073 -0.3621
25258SOL    HW278667   2.531   6.984   1.941 -0.9754 -0.1297 -0.9728
25259SOL     OW78668   8.209   0.127   8.154 -0.0448 -0.0778  0.1132
25259SOL    HW178669   8.113   0.120   8.154 -0.0224 -0.4398 -0.2740
25259SOL    HW278670   8.236   0.077   8.231 -0.0824 -1.3840 -0.7021
25260SOL     OW78671   0.523   8.134   7.244  0.0108  0.4307 -0.2119
25260SOL    HW178672   0.610   8.161   7.274  0.0115 -0.1027  0.2970
25260SOL    HW278673   0.541   8.064   7.181 -0.0196  0.9724 -0.8234
25261SOL     OW78674   1.237   9.488   8.200 -0.6940 -0.0266 -0.3118
25261SOL    HW178675   1.265   9.523   8.115 -0.6357  0.4557 -0.0947
25261SOL    HW278676   1.316   9.493   8.255 -0.0970 -2.3299 -0.8268
25262SOL     OW78677   6.688   0.867   1.017  0.3035 -0.0144 -0.2986
25262SOL    HW178678   6.611   0.899   0.970 -0.0919 -0.0692  0.2940
25262SOL    HW278679   6.760   0.880   0.956  0.2073  2.2075 -0.0466
25263SOL     OW78680   2.710   1.336   5.726  0.0382 -0.4933 -0.3151
25263SOL    HW178681   2.665   1.387   5.792 -0.3912 -1.2380 -0.0215
25263SOL    HW278682   2.779   1.290   5.774  0.9974  0.4727 -0.7226
25264SOL     OW78683   4.549   2.179   8.688 -0.0937 -0.0012  0.0167
25264SOL    HW178684   4.619   2.191   8.625 -0.4472 -1.2293 -0.6335
25264SOL    HW278685   4.528   2.268   8.718  1.1453  0.4446 -0.4052
25265SOL     OW78686   8.426   5.185   8.702 -0.3919 -0.1437  0.3152
25265SOL    HW178687   8.380   5.102   8.688 -1.4982  0.5269 -0.1838
25265SOL    HW278688   8.399   5.240   8.628  1.8165  0.0519 -0.4238
25266SOL     OW78689   6.628   0.627   7.262  0.1012 -0.2094 -0.6528
25266SOL    HW178690   6.674   0.662   7.185  1.3030 -2.4108 -1.0137
25266SOL    HW278691   6.663   0.679   7.335 -0.1625  1.1047 -1.4221
25267SOL     OW78692   7.341   4.161   4.115  0.1790 -0.1916  0.1916
25267SOL    HW178693   7.300   4.190   4.034 -2.0117  0.3750  1.4277
25267SOL    HW278694   7.304   4.218   4.183  1.1049 -1.3616  1.7536
25268SOL     OW78695   6.476   6.398   0.598  0.0471 -0.3530  0.0715
25268SOL    HW178696   6.482   6.493   0.598 -0.9293 -0.2847 -0.1418
25268SOL    HW278697   6.385   6.379   0.623  0.6238 -1.2575  1.6675
25269SOL     OW78698   0.682   5.230   2.117 -0.0031 -0.5179  0.0477
25269SOL    HW178699   0.757   5.170   2.113  1.2644  0.9956 -0.0411
25269SOL    HW278700   0.710   5.306   2.067 -1.4681  0.2605  0.3623
25270SOL     OW78701   1.347   3.503   7.774  0.1212  0.3703  0.1101
25270SOL    HW178702   1.391   3.420   7.755 -0.2801  0.1368  0.2016
25270SOL    HW278703   1.418   3.567   7.777  0.3230  0.2273 -1.0376
25271SOL     OW78704   8.880   1.124   2.811 -0.5130  0.0479 -0.0207
25271SOL    HW178705   8.870   1.079   2.727 -3.0938 -0.2718  0.3809
25271SOL    HW278706   8.862   1.057   2.877  1.7305  0.2296  0.8678
25272SOL     OW78707   2.084   4.112   7.526  0.2011  0.0453  0.2810
25272SOL    HW178708   2.146   4.039   7.523  1.4746  1.0613  1.2155
25272SOL    HW278709   2.002   4.072   7.556  0.3958 -1.2886 -0.8399
25273SOL     OW78710   0.404   5.379   6.151 -0.5418  0.2806 -0.0601
25273SOL    HW178711   0.478   5.335   6.109 -0.1610  1.6883 -0.9418
25273SOL    HW278712   0.404   5.347   6.241  0.9959  0.0556 -0.1203
25274SOL     OW78713   8.492   8.749   7.543 -0.4127 -0.5875 -0.5609
25274SOL    HW178714   8.412   8.752   7.491 -0.9752 -0.7525  0.2731
25274SOL    HW278715   8.536   8.831   7.523 -0.3940 -0.8392 -1.6257
25275SOL     OW78716   3.070   6.202   4.158 -1.1350 -0.0451 -0.0295
25275SOL    HW178717   3.017   6.281   4.147 -1.8609 -0.2994  1.4017
25275SOL    HW278718   3.160   6.232   4.141 -1.6384  0.5162 -1.9063
25276SOL     OW78719   7.606   8.621   0.603 -0.5206 -0.1340 -0.3306
25276SOL    HW178720   7.688   8.669   0.591  0.3574 -2.0581 -2.8359
25276SOL    HW278721   7.624   8.559   0.673 -0.1741  0.0928 -0.2165
25277SOL     OW78722   6.071   0.123   3.755  0.4518 -0.7735  0.1543
25277SOL    HW178723   6.065   0.032   3.726  1.5469 -0.6348 -0.5840
25277SOL    HW278724   6.089   0.117   3.849  1.0360 -1.3449  0.0149
25278SOL     OW78725   0.286   0.047   8.111 -0.3105 -0.2447 -0.2357
25278SOL    HW178726   0.242   0.079   8.032 -0.0960  0.4580 -0.0754
25278SOL    HW278727   0.360  -0.004   8.078 -0.2225  0.0441 -0.4860
25279SOL     OW78728   5.796   0.739   1.775 -0.5018  0.2128 -0.1183
25279SOL    HW178729   5.704   0.746   1.803 -0.6321  0.1399 -0.5313
25279SOL    HW278730   5.815   0.825   1.736 -0.4717  0.1340 -0.2744
25280SOL     OW78731   1.311   5.273   5.535 -0.4515  0.7135 -0.4115
25280SOL    HW178732   1.216   5.265   5.544 -0.3291 -1.4113 -0.4034
25280SOL    HW278733   1.335   5.204   5.474  1.2913 -0.1594  1.1628
25281SOL     OW78734   2.391   2.989   6.865 -0.0913 -0.2265 -0.2777
25281SOL    HW178735   2.353   3.077   6.862  1.8037  0.8519  3.0066
25281SOL    HW278736   2.329   2.935   6.817 -1.9024  2.6613 -1.4814
25282SOL     OW78737   2.029   0.748   3.281  0.1015 -0.2865 -0.2505
25282SOL    HW178738   2.104   0.788   3.326  0.2577  2.7672 -2.8047
25282SOL    HW278739   2.068   0.690   3.216  0.1400 -0.5480  0.0068
25283SOL     OW78740   5.080   5.617   8.530  0.1439 -0.2829 -0.7141
25283SOL    HW178741   5.108   5.678   8.461 -2.4731  0.8748 -0.8776
25283SOL    HW278742   5.151   5.618   8.593  1.5238  0.5742 -2.1988
25284SOL     OW78743   6.828   8.885   9.135  0.4543  0.0604  0.1727
25284SOL    HW178744   6.800   8.962   9.087  0.7043 -0.7667 -1.3868
25284SOL    HW278745   6.913   8.909   9.173  0.1695  0.7914  0.3551
25285SOL     OW78746   2.909   3.381   7.451 -0.2235 -0.2114  0.1092
25285SOL    HW178747   2.979   3.409   7.392 -1.2094  2.6120  0.1503
25285SOL    HW278748   2.834   3.366   7.393 -0.7417  1.0078  0.4227
25286SOL     OW78749   6.091   7.144   7.759  0.2613 -0.1791 -0.0306
25286SOL    HW178750   6.124   7.162   7.670 -0.7350  2.3800  0.0086
25286SOL    HW278751   6.147   7.197   7.816 -0.4191 -0.1436  0.6160
25287SOL     OW78752   6.526   3.323   0.042 -0.0410  0.0131  0.6744
25287SOL    HW178753   6.441   3.329  -0.003 -0.8870 -0.1772  2.1601
25287SOL    HW278754   6.506   3.279   0.125  1.1572  1.6278  1.8868
25288SOL     OW78755   7.798   3.592   6.560 -0.2714 -0.0801  0.1671
25288SOL    HW178756   7.779   3.518   6.618  0.5752 -0.0839  0.4623
25288SOL    HW278757   7.893   3.604   6.567 -0.3629  0.8886 -0.0566
25289SOL     OW78758   0.851   2.797   0.465  0.4579 -0.1742  0.4657
25289SOL    HW178759   0.840   2.886   0.497 -0.9269 -0.3359  0.4979
25289SOL    HW278760   0.821   2.799   0.374 -1.0998 -0.9053  0.9244
25290SOL     OW78761   3.699   9.531   6.964  0.5027  0.2224  0.5567
25290SOL    HW178762   3.736   9.615   6.936  1.7175 -0.1896  0.8611
25290SOL    HW278763   3.728   9.469   6.897  0.4646 -0.1389  0.8755
25291SOL     OW78764   5.189   7.945   7.615  0.7608  0.3709  0.1315
25291SOL    HW178765   5.117   7.919   7.559 -0.5492  1.6327  1.1675
25291SOL    HW278766   5.174   7.899   7.698  2.2636 -0.8938 -0.2469
25292SOL     OW78767   7.177   6.527   1.518  0.3709  0.1705  0.3665
25292SOL    HW178768   7.269   6.509   1.497  0.6647  0.6640  1.1977
25292SOL    HW278769   7.165   6.619   1.494 -0.1187 -0.0950 -0.4344
25293SOL     OW78770   3.101   9.563   0.940 -0.1937  0.6537  0.1054
25293SOL    HW178771   3.094   9.657   0.955  0.4615  0.8915 -0.9540
25293SOL    HW278772   3.192   9.550   0.911 -0.2104 -0.3429  0.4413
25294SOL     OW78773   7.110   4.673   7.176  0.2444 -0.3972  0.2549
25294SOL    HW178774   7.085   4.631   7.094 -0.5751  0.3536  0.1040
25294SOL    HW278775   7.199   4.641   7.194 -0.1363 -1.7319 -0.1387
25295SOL     OW78776   8.863   6.904   7.587  0.1445  0.7076 -0.4154
25295SOL    HW178777   8.814   6.927   7.666  1.9089  0.0741  0.9201
25295SOL    HW278778   8.932   6.970   7.582  0.8059 -0.0024 -0.7245
25296SOL     OW78779   5.960   6.085   0.574  0.6313  0.2095 -0.1860
25296SOL    HW178780   5.998   6.172   0.587  0.1577 -0.0111  3.8367
25296SOL    HW278781   5.872   6.102   0.541  0.3284  1.3152  1.1307
25297SOL     OW78782   8.308   3.498   9.061 -0.6684 -0.1758  0.4126
25297SOL    HW178783   8.370   3.453   9.003 -1.0122 -0.4003  0.2094
25297SOL    HW278784   8.345   3.585   9.074 -0.6938 -0.0553 -0.3126
25298SOL     OW78785   4.061   1.804   9.297  0.3488  0.0721 -0.6003
25298SOL    HW178786   4.057   1.865   9.224  1.1663  1.8579  0.7703
25298SOL    HW278787   4.103   1.853   9.367 -0.8190 -1.4001  1.2339
25299SOL     OW78788   8.763   5.190   8.093 -0.6391  0.3295  0.7525
25299SOL    HW178789   8.757   5.197   8.189 -0.1884 -0.1317  0.8175
25299SOL    HW278790   8.848   5.229   8.072 -1.9768  3.2307  0.2346
25300SOL     OW78791   6.585   8.309   6.583 -0.2963  0.4568  0.4811
25300SOL    HW178792   6.657   8.250   6.608 -1.5430 -0.2077  2.8855
25300SOL    HW278793   6.619   8.359   6.509  1.6740 -1.6402 -0.1542
25301SOL     OW78794   8.162   0.293   7.181 -0.5959 -0.0978 -0.3726
25301SOL    HW178795   8.256   0.282   7.189 -0.7100 -0.9009 -0.0709
25301SOL    HW278796   8.126   0.258   7.262 -1.1087  0.9530 -0.1302
25302SOL     OW78797   0.775   0.996   3.363  0.1610  0.4774 -0.0922
25302SOL    HW178798   0.794   1.053   3.438  1.2808  0.2823 -0.2150
25302SOL    HW278799   0.696   0.948   3.389  0.7039  0.1922  1.0961
25303SOL     OW78800   6.034   8.657   8.505  0.0654 -0.1759  0.5834
25303SOL    HW178801   5.976   8.645   8.430 -0.5058  0.5467  0.9010
25303SOL    HW278802   6.115   8.691   8.468  0.0382 -0.5185  0.2115
25304SOL     OW78803   8.321   8.230   6.081 -0.3678 -0.0131 -0.3401
25304SOL    HW178804   8.262   8.199   6.013 -1.4173  1.2370 -0.0432
25304SOL    HW278805   8.309   8.167   6.153 -0.4459 -0.4284 -0.7089
25305SOL     OW78806   9.075   6.314   4.374  0.0860  0.3656  0.1614
25305SOL    HW178807   9.168   6.310   4.352 -0.0917 -0.6588 -0.4553
25305SOL    HW278808   9.036   6.364   4.302 -0.1903 -1.2958 -0.9036
25306SOL     OW78809   1.026   0.457   7.446  0.4800 -0.1053  0.0537
25306SOL    HW178810   0.965   0.467   7.373  0.6744  3.2368  0.1805
25306SOL    HW278811   0.988   0.510   7.516  2.3174  0.0808  0.9694
25307SOL     OW78812   3.871   1.036   0.198 -0.4926  0.1554  0.4051
25307SOL    HW178813   3.829   0.950   0.199 -0.5547  0.1509 -0.9040
25307SOL    HW278814   3.909   1.043   0.111  2.4401  0.0863  1.5594
25308SOL     OW78815   5.694   1.868   1.549  0.0692  0.5724  0.0723
25308SOL    HW178816   5.650   1.787   1.571 -0.3561  0.8249  0.1652
25308SOL    HW278817   5.729   1.900   1.632  0.6856  0.2269 -0.0474
25309SOL     OW78818   5.840   2.730   9.450 -0.7280  0.3684 -0.0614
25309SOL    HW178819   5.929   2.705   9.476  0.3428  1.8489 -1.9707
25309SOL    HW278820   5.815   2.797   9.514 -0.9910 -0.8783  1.1870
25310SOL     OW78821   7.001   5.731   5.451 -0.4161  0.4290 -0.0047
25310SOL    HW178822   7.055   5.810   5.445 -0.8378  0.6889 -0.4075
25310SOL    HW278823   7.063   5.660   5.435  0.1218  0.6143  1.1227
25311SOL     OW78824   5.798   1.234   7.071 -0.3862  0.1476 -0.3013
25311SOL    HW178825   5.791   1.155   7.017  0.7160 -0.3477  0.2526
25311SOL    HW278826   5.771   1.206   7.158 -0.1355  0.4159 -0.1345
25312SOL     OW78827   2.796   2.484   4.822 -0.5341 -0.4849  0.3606
25312SOL    HW178828   2.819   2.563   4.871 -0.0156 -0.9884  0.9434
25312SOL    HW278829   2.861   2.419   4.849 -0.7230 -1.0047 -0.3987
25313SOL     OW78830   1.331   4.728   1.921  0.0468 -0.2948 -0.1640
25313SOL    HW178831   1.362   4.655   1.973  0.6588 -0.5344 -0.8522
25313SOL    HW278832   1.318   4.692   1.833  0.0456  0.3453 -0.4337
25314SOL     OW78833   1.727   0.828   7.185  0.1574  0.0963  0.5761
25314SOL    HW178834   1.758   0.788   7.267 -1.5477 -1.1634  0.6623
25314SOL    HW278835   1.721   0.755   7.123 -0.5438  0.6583 -0.0464
25315SOL     OW78836   5.722   1.222   1.470  0.1924 -0.2277  0.5650
25315SOL    HW178837   5.697   1.182   1.386 -0.4230 -0.8711  1.0398
25315SOL    HW278838   5.795   1.279   1.448 -0.9089  0.7895 -0.6787
25316SOL     OW78839   2.222   0.506   6.736  0.4070 -0.4563  0.0411
25316SOL    HW178840   2.186   0.484   6.649  0.3374 -0.6284  0.1134
25316SOL    HW278841   2.199   0.598   6.748  0.1678 -0.5091 -0.0015
25317SOL     OW78842   7.569   3.092   4.466  0.1389  0.2416  0.2499
25317SOL    HW178843   7.553   2.998   4.454  0.4604  0.1928  0.2044
25317SOL    HW278844   7.648   3.109   4.416 -0.5553  0.7676 -0.6936
25318SOL     OW78845   3.348   4.568   8.207  0.1290 -0.4048 -0.4760
25318SOL    HW178846   3.439   4.596   8.193  0.0041 -0.2152 -0.9326
25318SOL    HW278847   3.309   4.570   8.119 -0.0107 -1.6020 -0.4536
25319SOL     OW78848   6.222   5.130   1.379  0.0018  0.5368  1.0416
25319SOL    HW178849   6.197   5.219   1.406  1.5360  0.9032  1.3356
25319SOL    HW278850   6.245   5.139   1.287 -5.0551 -0.6802 -0.7082
25320SOL     OW78851   7.620   7.800   7.671 -0.0602  0.0453 -0.0397
25320SOL    HW178852   7.611   7.825   7.763 -1.5358  2.3924 -0.7300
25320SOL    HW278853   7.710   7.826   7.649 -0.0789  0.5468  0.4406
25321SOL     OW78854   4.705   5.511   8.630  0.8186  0.2413 -0.4593
25321SOL    HW178855   4.741   5.481   8.547  0.3969  1.0988 -0.9696
25321SOL    HW278856   4.779   5.553   8.674  0.8708  0.4362 -0.7284
25322SOL     OW78857   1.411   5.336   6.101 -0.2815  0.0703  0.1649
25322SOL    HW178858   1.382   5.249   6.130  0.1493  0.1179  0.7674
25322SOL    HW278859   1.360   5.397   6.154  0.4303  0.1583  0.7753
25323SOL     OW78860   1.011   8.671   9.540  0.1857 -0.3204 -0.3800
25323SOL    HW178861   1.001   8.633   9.453  0.3257 -1.4509  0.0722
25323SOL    HW278862   1.077   8.739   9.530  2.1777 -2.2000 -0.6769
25324SOL     OW78863   2.666   8.463   5.854 -0.2104 -1.0169  0.0677
25324SOL    HW178864   2.587   8.440   5.902 -0.7017  0.3214 -0.0284
25324SOL    HW278865   2.694   8.547   5.892  0.1421 -0.5887 -1.0624
25325SOL     OW78866   8.355   7.277   3.607 -0.0005  0.0012  0.5244
25325SOL    HW178867   8.294   7.205   3.590 -0.4550  0.5532 -0.2104
25325SOL    HW278868   8.438   7.233   3.626 -0.5660 -0.7517  1.3675
25326SOL     OW78869   4.219   4.138   7.998 -0.6408 -0.2560 -0.0184
25326SOL    HW178870   4.234   4.074   8.067  1.0605 -0.8981 -0.9237
25326SOL    HW278871   4.286   4.119   7.932 -2.9781 -0.5352 -2.4933
25327SOL     OW78872   9.275   5.998   7.825 -0.5581  0.8726 -0.6000
25327SOL    HW178873   9.270   5.976   7.918  0.5909  0.7596 -0.5568
25327SOL    HW278874   9.296   6.091   7.822 -1.2753  1.0394 -0.7639
25328SOL     OW78875   4.250   3.171   7.135 -0.1936  0.0745  0.5643
25328SOL    HW178876   4.218   3.102   7.193 -0.4607  0.1047  0.4561
25328SOL    HW278877   4.313   3.220   7.187  0.1888 -0.4105  0.5629
25329SOL     OW78878   8.957   4.004   7.081  0.1858 -0.1230 -0.1003
25329SOL    HW178879   8.991   3.989   7.169  1.4980  0.3028 -0.5122
25329SOL    HW278880   8.919   4.092   7.083 -1.1726 -0.6905  0.4243
25330SOL     OW78881   8.239   8.291   2.455 -0.4524 -0.0382  0.9133
25330SOL    HW178882   8.173   8.237   2.412 -0.1933  0.9932 -0.8459
25330SOL    HW278883   8.190   8.342   2.519 -1.2009 -0.0159  0.3314
25331SOL     OW78884   0.267   6.872   0.140 -0.3527 -0.4217  0.0028
25331SOL    HW178885   0.255   6.799   0.201 -1.1257 -1.8760 -1.8248
25331SOL    HW278886   0.195   6.932   0.162 -0.5900 -0.8898  0.5461
25332SOL     OW78887   3.340   6.839   0.094 -0.2803  0.2725 -0.4633
25332SOL    HW178888   3.293   6.892   0.159 -0.7199  0.2097 -0.7342
25332SOL    HW278889   3.429   6.875   0.094  0.0140 -0.3730  0.9139
25333SOL     OW78890   0.109   8.474   6.356  0.0468 -0.0042  0.1180
25333SOL    HW178891   0.147   8.446   6.440 -0.5837  2.2726  1.2211
25333SOL    HW278892   0.185   8.490   6.300  0.6010  0.7581  1.0512
25334SOL     OW78893   4.386   9.063   4.715  0.3396 -0.0029  0.6065
25334SOL    HW178894   4.298   9.027   4.711 -0.0954  0.9703  0.9154
25334SOL    HW278895   4.383   9.140   4.659  1.3454 -0.6337 -0.3325
25335SOL     OW78896   6.926   0.246   6.518 -0.2270 -0.2439  0.4821
25335SOL    HW178897   6.940   0.152   6.528 -0.8371 -0.3400  0.4505
25335SOL    HW278898   6.999   0.286   6.565  0.2727 -0.7327  0.1356
25336SOL     OW78899   7.172   4.984   6.095  0.0994 -0.2858  0.0501
25336SOL    HW178900   7.256   5.010   6.134  0.5872  2.3422 -2.4711
25336SOL    HW278901   7.196   4.925   6.023 -0.2750 -0.1161 -0.2156
25337SOL     OW78902   6.337   0.749   7.705 -0.2909  0.4610 -1.0231
25337SOL    HW178903   6.377   0.667   7.674 -0.1547  0.0605  0.1280
25337SOL    HW278904   6.393   0.776   7.778 -1.4636  0.5135 -0.1136
25338SOL     OW78905   4.224   0.094   7.522 -0.5064 -0.4913  0.1366
25338SOL    HW178906   4.254   0.010   7.558  0.3871 -0.0150  0.5454
25338SOL    HW278907   4.144   0.113   7.570  0.0705 -0.4092  1.0916
25339SOL     OW78908   9.347   3.553   3.933 -0.3458 -0.5733  0.4288
25339SOL    HW178909   9.297   3.473   3.948 -1.0661 -0.2608 -0.2273
25339SOL    HW278910   9.385   3.574   4.018  0.0866 -1.7523  0.5583
25340SOL     OW78911   1.126   8.228   3.044 -0.7115  0.2124  0.3258
25340SOL    HW178912   1.140   8.317   3.077  0.7229 -0.0459  0.5036
25340SOL    HW278913   1.180   8.173   3.101 -1.1616 -0.7114 -0.1201
25341SOL     OW78914   8.476   1.402   3.024  0.3327 -0.3459  0.1299
25341SOL    HW178915   8.462   1.478   2.967 -0.4141 -2.0502 -2.1247
25341SOL    HW278916   8.482   1.439   3.112 -1.3827  2.2101 -0.6920
25342SOL     OW78917   4.861   8.498   7.882 -0.5763 -0.4001  0.0421
25342SOL    HW178918   4.906   8.580   7.899  0.1205 -1.3431  3.6192
25342SOL    HW278919   4.774   8.523   7.853 -0.8304  1.7160  2.3106
25343SOL     OW78920   0.238   8.698   9.230 -0.3277 -0.7301  0.1542
25343SOL    HW178921   0.311   8.690   9.291 -1.3539 -1.9589  1.2910
25343SOL    HW278922   0.277   8.685   9.143  0.8823 -0.7183  0.6821
25344SOL     OW78923   3.261   2.818   3.483 -0.5126 -0.5409  0.4480
25344SOL    HW178924   3.302   2.733   3.468 -1.4011 -0.8283 -0.4215
25344SOL    HW278925   3.304   2.851   3.562  1.1429 -0.9670 -0.2273
25345SOL     OW78926   2.908   4.128   8.897  0.0083  0.4939 -0.1057
25345SOL    HW178927   2.886   4.161   8.984  1.2211 -0.5280  0.6140
25345SOL    HW278928   2.995   4.088   8.907  0.3042  0.5985 -1.8472
25346SOL     OW78929   1.983   9.115   5.663 -0.1702  0.0380  0.3046
25346SOL    HW178930   1.968   9.134   5.756 -0.2210  2.9966 -0.2087
25346SOL    HW278931   2.074   9.141   5.648 -0.4067  0.3666 -0.6202
25347SOL     OW78932   7.022   7.760   7.090  0.2066  0.0854  0.3469
25347SOL    HW178933   6.948   7.761   7.030 -1.1646  1.4598  1.9864
25347SOL    HW278934   7.036   7.667   7.110 -1.6579 -0.1428  0.6945
25348SOL     OW78935   2.360   6.600   4.850  0.5668 -0.1709 -0.6547
25348SOL    HW178936   2.386   6.680   4.894 -1.9564  0.2176  0.2435
25348SOL    HW278937   2.415   6.532   4.889 -1.8082  0.0623  3.5573
25349SOL     OW78938   0.723   2.302   1.581  0.4354 -0.1537  0.2566
25349SOL    HW178939   0.663   2.351   1.637 -0.3488 -0.4885 -0.2708
25349SOL    HW278940   0.775   2.370   1.538 -0.6701  0.2449 -0.4982
25350SOL     OW78941   9.337   0.943   5.169 -0.6267  0.1793  0.3279
25350SOL    HW178942   9.247   0.977   5.172 -0.6122  0.1513  1.9618
25350SOL    HW278943   9.344   0.900   5.083 -1.4922  1.9715 -0.6840
25351SOL     OW78944   7.081   0.316   7.938  0.6833 -0.0089  0.5823
25351SOL    HW178945   6.996   0.272   7.929  1.0599 -0.8848  1.0966
25351SOL    HW278946   7.069   0.401   7.897 -0.5713  0.0437  1.0107
25352SOL     OW78947   4.660   7.389   8.180  0.1590 -0.3644  0.6254
25352SOL    HW178948   4.617   7.329   8.241  0.6145 -0.7960  0.5306
25352SOL    HW278949   4.684   7.465   8.233  0.2995 -0.6147  0.9235
25353SOL     OW78950   5.394   0.037   1.741  0.0477  0.1140  0.1496
25353SOL    HW178951   5.339   0.067   1.813 -0.7618 -1.0677  0.0550
25353SOL    HW278952   5.464  -0.013   1.783 -0.5507 -0.7663  0.1262
25354SOL     OW78953   7.596   8.344   6.768  0.0442  0.3458 -0.1371
25354SOL    HW178954   7.594   8.421   6.824  0.2196  0.1608  0.1268
25354SOL    HW278955   7.635   8.373   6.686  1.6338  0.1656  0.5259
25355SOL     OW78956   5.085   6.448   4.214  0.3489  0.0779 -0.3668
25355SOL    HW178957   5.078   6.432   4.120 -1.2150  2.0467 -0.6486
25355SOL    HW278958   5.114   6.364   4.251  1.5615 -0.5699 -2.6361
25356SOL     OW78959   0.784   5.468   0.673 -0.5330  0.2172  0.1826
25356SOL    HW178960   0.857   5.530   0.678 -0.5563  0.3129 -0.5443
25356SOL    HW278961   0.721   5.510   0.614 -1.5164  0.4768  1.3742
25357SOL     OW78962   0.223   8.184   3.759 -0.3788 -0.3663 -0.3419
25357SOL    HW178963   0.170   8.127   3.703 -2.2735  1.9909 -1.1311
25357SOL    HW278964   0.263   8.246   3.698  0.6035 -0.0436  0.5993
25358SOL     OW78965   6.414   4.502   1.059  0.3597 -0.1946 -0.3558
25358SOL    HW178966   6.324   4.468   1.060  0.6683 -1.0337 -0.5770
25358SOL    HW278967   6.448   4.475   0.974  1.7829 -2.4476  0.8473
25359SOL     OW78968   7.319   6.868   9.333 -0.0050 -0.0903  0.2240
25359SOL    HW178969   7.292   6.905   9.249 -1.0879 -0.1066  0.5605
25359SOL    HW278970   7.389   6.927   9.363  0.3909 -0.0850 -0.6804
25360SOL     OW78971   4.748   4.349   5.179  0.3949  0.0349  0.0397
25360SOL    HW178972   4.828   4.339   5.231  1.4166  1.7133 -1.1194
25360SOL    HW278973   4.719   4.438   5.195 -1.1121 -0.4562  0.2112
25361SOL     OW78974   1.130   4.613   5.262 -0.3359  0.0560  0.2722
25361SOL    HW178975   1.056   4.595   5.320  0.2006 -0.1223  0.9180
25361SOL    HW278976   1.092   4.662   5.189 -1.1493 -0.3580  0.4065
25362SOL     OW78977   3.076   7.143   7.459 -0.3439  0.2339 -0.1981
25362SOL    HW178978   3.012   7.080   7.490  0.2775 -0.6398 -0.6477
25362SOL    HW278979   3.099   7.194   7.536 -2.6142  1.5442 -0.2951
25363SOL     OW78980   5.715   1.606   8.004 -0.0033 -0.6182 -0.1044
25363SOL    HW178981   5.769   1.583   8.080 -0.6572 -1.1714  0.2020
25363SOL    HW278982   5.652   1.669   8.039  0.0533 -0.4453 -0.3178
25364SOL     OW78983   2.132   8.402   6.726  0.4554 -0.3864  0.1035
25364SOL    HW178984   2.130   8.356   6.643  1.3308  0.7018 -0.5554
25364SOL    HW278985   2.131   8.333   6.792  2.1991 -1.3916 -0.8446
25365SOL     OW78986   8.453   1.119   6.321  0.3138  0.5100  0.3545
25365SOL    HW178987   8.513   1.138   6.394  0.4178  1.0195  0.1476
25365SOL    HW278988   8.487   1.172   6.249  0.2542 -0.0444 -0.0867
25366SOL     OW78989   5.345   3.037   5.022 -0.5130 -0.2129 -0.2280
25366SOL    HW178990   5.359   3.128   4.995 -1.5386 -0.5063 -1.9406
25366SOL    HW278991   5.299   3.042   5.105  0.4013  0.8015  0.2366
25367SOL     OW78992   2.362   2.456   3.899  0.5828 -0.0520  0.0465
25367SOL    HW178993   2.437   2.450   3.958 -0.6351 -0.5828  1.6019
25367SOL    HW278994   2.387   2.404   3.823  2.0014  0.2499  0.2803
25368SOL     OW78995   4.246   3.239   4.057  0.4617  0.0471 -0.7069
25368SOL    HW178996   4.290   3.186   3.991  1.6006  2.0232 -1.6475
25368SOL    HW278997   4.316   3.263   4.118  0.5849  2.4494 -1.6862
25369SOL     OW78998   9.555   5.111   3.719  0.1284  0.5747 -0.1928
25369SOL    HW178999   9.603   5.055   3.657  0.5964 -0.4618  1.0574
25369SOL    HW279000   9.527   5.186   3.667 -0.9308 -1.0205 -2.0510
25370SOL     OW79001   3.405   1.203   3.066  0.0228 -0.1547  0.4003
25370SOL    HW179002   3.323   1.248   3.087 -0.0235  0.6471 -1.3436
25370SOL    HW279003   3.472   1.271   3.070  0.6482 -0.7967  1.7721
25371SOL     OW79004   1.490   0.935   4.014  0.8932 -0.1691 -0.1541
25371SOL    HW179005   1.406   0.927   3.968  0.8604 -0.1105 -0.1046
25371SOL    HW279006   1.467   0.964   4.102  1.1031  3.4173 -1.0913
25372SOL     OW79007   7.632   5.573   4.955  0.1466 -0.3446  0.6494
25372SOL    HW179008   7.569   5.512   4.917 -1.6996  1.6775  0.2474
25372SOL    HW279009   7.635   5.646   4.892  1.4726  0.4747  1.6020
25373SOL     OW79010   9.167   0.239   1.703 -0.4037 -0.7570 -0.5305
25373SOL    HW179011   9.087   0.227   1.755  0.2770 -2.6542  0.1506
25373SOL    HW279012   9.219   0.301   1.753 -0.3772 -1.4653  0.3476
25374SOL     OW79013   0.443   2.693   1.669 -0.0511  0.0215 -0.0661
25374SOL    HW179014   0.534   2.709   1.645  0.4981 -0.0419  1.8116
25374SOL    HW279015   0.427   2.753   1.742 -1.4585 -0.1150 -0.2367
25375SOL     OW79016   6.154   6.864   0.591  0.0204  0.0411 -0.5239
25375SOL    HW179017   6.120   6.937   0.539 -0.0757  1.8641  1.9107
25375SOL    HW279018   6.244   6.890   0.613  0.1356 -0.7775  0.0332
25376SOL     OW79019   6.374   4.661   2.638 -0.5778  0.0593 -0.1016
25376SOL    HW179020   6.302   4.696   2.585  0.8702 -0.1198 -2.3415
25376SOL    HW279021   6.362   4.566   2.635 -0.5189  0.0516 -0.0853
25377SOL     OW79022   4.862   1.476   7.257 -0.0803  0.1572  0.1422
25377SOL    HW179023   4.907   1.519   7.330 -1.4400 -0.7510  1.5830
25377SOL    HW279024   4.779   1.524   7.248  0.4487  0.8608 -1.4824
25378SOL     OW79025   0.755   9.238   0.050 -0.2662  0.4882  0.5608
25378SOL    HW179026   0.835   9.197   0.083 -0.8861 -0.1713  1.2970
25378SOL    HW279027   0.686   9.173   0.067 -0.8691  0.8018 -0.5906
25379SOL     OW79028   7.453   0.136   7.378 -0.4420 -0.0354  0.2482
25379SOL    HW179029   7.433   0.043   7.389  0.2487 -0.1656  0.4862
25379SOL    HW279030   7.369   0.180   7.388 -0.6812 -0.5861  0.7328
25380SOL     OW79031   4.867   8.872   3.051 -0.1097  0.6713  0.1538
25380SOL    HW179032   4.925   8.949   3.051  0.4039  0.3237 -1.6198
25380SOL    HW279033   4.925   8.798   3.033 -0.5288 -0.2511  2.2912
25381SOL     OW79034   2.090   3.171   2.750  0.3971 -0.1883  0.4274
25381SOL    HW179035   2.051   3.143   2.833  0.9804  1.5167  1.3373
25381SOL    HW279036   2.182   3.188   2.772  0.4163  0.8641 -0.4060
25382SOL     OW79037   0.580   0.413   1.239  0.1971  0.4277  0.3874
25382SOL    HW179038   0.491   0.380   1.252 -0.5859  1.6029 -1.6183
25382SOL    HW279039   0.617   0.357   1.171  0.4618  0.8694  0.1642
25383SOL     OW79040   1.540   8.879   2.220 -0.1551 -0.4527 -0.1692
25383SOL    HW179041   1.524   8.795   2.265  1.1835 -0.0613  1.0984
25383SOL    HW279042   1.597   8.856   2.147 -0.4582 -0.7507 -0.3205
25384SOL     OW79043   8.642   4.512   7.616 -0.5706  0.5686  0.3847
25384SOL    HW179044   8.702   4.541   7.548 -1.3278 -0.8961 -0.9723
25384SOL    HW279045   8.681   4.543   7.698  0.3970  2.3063 -0.6916
25385SOL     OW79046   2.362   7.733   3.692  0.3337  0.1522  0.0073
25385SOL    HW179047   2.363   7.755   3.598 -0.3338  0.4099  0.0576
25385SOL    HW279048   2.404   7.808   3.734  1.1447 -0.2155 -0.1315
25386SOL     OW79049   7.484   1.062   2.816 -1.0073 -0.4068  0.7923
25386SOL    HW179050   7.545   1.113   2.763 -0.1253 -1.8286  0.3648
25386SOL    HW279051   7.399   1.103   2.801 -0.7104 -0.4380 -1.3537
25387SOL     OW79052   1.324   2.209   7.353  0.2650  0.2926  0.3146
25387SOL    HW179053   1.377   2.146   7.304 -2.9530 -2.8832  0.5131
25387SOL    HW279054   1.293   2.271   7.287  0.6735 -0.4237 -0.5629
25388SOL     OW79055   5.250   3.732   6.680 -0.1118  0.8335  0.4993
25388SOL    HW179056   5.247   3.713   6.586 -1.8377  0.0502  0.6799
25388SOL    HW279057   5.326   3.683   6.711  1.6857  2.6713 -0.7689
25389SOL     OW79058   0.093   0.360   7.816 -0.1863 -0.1012 -0.3683
25389SOL    HW179059   0.184   0.369   7.844 -0.4076 -1.6774  1.0225
25389SOL    HW279060   0.042   0.397   7.889 -0.6866  2.0133 -1.7060
25390SOL     OW79061   3.294   4.829   3.556 -0.5266 -0.9116 -0.3113
25390SOL    HW179062   3.278   4.738   3.584 -0.0049 -0.3642  2.0009
25390SOL    HW279063   3.359   4.861   3.618 -2.3926  1.7358  0.4570
25391SOL     OW79064   7.390   8.658   5.910 -0.0037  0.2693  0.1356
25391SOL    HW179065   7.400   8.579   5.857 -1.4198 -0.7205  1.2907
25391SOL    HW279066   7.419   8.729   5.852 -2.1941 -0.6537 -2.2965
25392SOL     OW79067   8.067   9.392   0.955  0.0832  0.1090  0.6018
25392SOL    HW179068   8.005   9.321   0.942  0.7592 -0.7899  2.0585
25392SOL    HW279069   8.014   9.466   0.985 -0.9585  1.0381 -3.0405
25393SOL     OW79070   8.231   3.045   0.160  0.5966 -0.6000 -0.0428
25393SOL    HW179071   8.136   3.044   0.151  0.6531  0.5113 -0.9910
25393SOL    HW279072   8.259   2.958   0.132 -0.2263 -1.4900  1.7284
25394SOL     OW79073   8.664   0.515   2.069  0.0264  0.0496 -0.3980
25394SOL    HW179074   8.743   0.556   2.035 -0.2275 -0.3197 -1.4681
25394SOL    HW279075   8.652   0.554   2.156  1.7259 -0.3471  0.0547
25395SOL     OW79076   2.265   9.411   7.855  0.8881 -0.1295  0.1083
25395SOL    HW179077   2.267   9.319   7.828  0.5594 -0.2507  0.4961
25395SOL    HW279078   2.252   9.409   7.950 -0.0443  0.3305  0.0019
25396SOL     OW79079   6.125   2.906   7.738  0.4535  0.2615  0.6572
25396SOL    HW179080   6.122   2.892   7.833  0.2280  0.6771  0.7154
25396SOL    HW279081   6.049   2.961   7.720  1.6177  1.9078  0.5312
25397SOL     OW79082   7.832   5.814   2.804 -0.0023 -0.1669  0.0794
25397SOL    HW179083   7.790   5.857   2.879  0.9847 -0.9088  1.0788
25397SOL    HW279084   7.759   5.785   2.750 -0.7287  0.6522  0.5893
25398SOL     OW79085   3.586   8.503   4.524  0.1124 -0.1446 -0.2595
25398SOL    HW179086   3.509   8.546   4.486 -0.0296  0.1900  0.3960
25398SOL    HW279087   3.622   8.568   4.584  0.0171 -0.8563  0.5878
25399SOL     OW79088   8.527   7.526   6.434  0.2957  0.4506 -0.4862
25399SOL    HW179089   8.531   7.574   6.516 -1.9240 -0.1086  0.0035
25399SOL    HW279090   8.600   7.463   6.439  0.6719  0.9624  0.6787
25400SOL     OW79091   7.933   6.700   7.399  0.5516  0.2522 -0.2057
25400SOL    HW179092   8.022   6.673   7.381  0.6591  0.1035  0.5312
25400SOL    HW279093   7.942   6.781   7.450  0.2894 -0.1366  0.4808
25401SOL     OW79094   2.319   9.129   1.861  0.3058  0.4312  0.0730
25401SOL    HW179095   2.245   9.089   1.908 -0.1844  0.2071 -0.8467
25401SOL    HW279096   2.365   9.054   1.822  1.0671  0.5667  0.7021
25402SOL     OW79097   5.804   2.078   4.851  0.6725 -0.6263 -0.2553
25402SOL    HW179098   5.795   2.112   4.762  2.9928  0.1727 -0.2296
25402SOL    HW279099   5.716   2.048   4.873  0.2334 -1.9037 -3.2206
25403SOL     OW79100   2.130   0.430   2.103  0.0796  0.3025  0.6880
25403SOL    HW179101   2.223   0.421   2.120  0.0666 -3.0498 -0.2563
25403SOL    HW279102   2.123   0.500   2.038  2.0116  0.2749  0.4115
25404SOL     OW79103   8.836   5.009   6.419  0.3206 -0.1051  0.4049
25404SOL    HW179104   8.857   5.058   6.499 -0.1223 -0.4955  0.7626
25404SOL    HW279105   8.753   5.047   6.389 -1.1618 -1.9981  1.8438
25405SOL     OW79106   3.348   5.250   1.122 -0.7544 -0.0674  0.3013
25405SOL    HW179107   3.364   5.311   1.050 -2.1496 -1.2176 -1.0735
25405SOL    HW279108   3.401   5.173   1.099 -3.3424 -1.5802 -1.1585
25406SOL     OW79109   9.603   5.926   6.144 -0.3707 -0.0774  0.5184
25406SOL    HW179110   9.659   5.912   6.221  2.7807  0.6009 -1.4540
25406SOL    HW279111   9.643   5.872   6.076 -1.9448  0.7657 -1.1344
25407SOL     OW79112   7.582   4.523   4.107  0.2513  0.0321  0.0772
25407SOL    HW179113   7.533   4.501   4.027  0.4849  0.9051 -0.3153
25407SOL    HW279114   7.572   4.446   4.162 -1.8634  0.2862  0.1598
25408SOL     OW79115   6.228   7.173   2.065  0.1276  0.0560  0.2740
25408SOL    HW179116   6.225   7.148   1.973  1.9281 -1.0798  0.4735
25408SOL    HW279117   6.318   7.204   2.078  0.7610 -2.3275  2.2250
25409SOL     OW79118   5.515   5.880   3.262 -0.3518  0.0102  0.1219
25409SOL    HW179119   5.582   5.933   3.304 -0.1738 -0.0888 -0.0352
25409SOL    HW279120   5.432   5.919   3.290 -0.2335  1.6985 -1.6693
25410SOL     OW79121   5.656   7.983   5.306  0.3268  0.2134  0.2163
25410SOL    HW179122   5.611   7.916   5.357  0.0511 -0.5074 -0.9451
25410SOL    HW279123   5.585   8.033   5.265  0.5246  1.3009  1.1474
25411SOL     OW79124   5.953   2.167   8.071  0.1790  0.0488 -0.0780
25411SOL    HW179125   5.895   2.092   8.057 -0.7368  0.8757 -0.8980
25411SOL    HW279126   6.036   2.128   8.098 -0.6429 -1.1905  0.8062
25412SOL     OW79127   1.262   6.249   2.585 -0.5789  0.2845 -0.5606
25412SOL    HW179128   1.355   6.261   2.568 -0.8178  2.7735 -0.4830
25412SOL    HW279129   1.219   6.280   2.506 -1.3508 -0.4209 -0.4245
25413SOL     OW79130   5.089   3.780   1.092 -0.0713 -0.0972 -0.4784
25413SOL    HW179131   5.163   3.841   1.089 -0.3530  0.3798  1.4050
25413SOL    HW279132   5.130   3.693   1.095  0.4267  0.1521  0.2289
25414SOL     OW79133   6.192   6.010   0.674 -0.1834 -0.4695 -0.1750
25414SOL    HW179134   6.130   5.994   0.602  0.3823  1.2715 -1.0939
25414SOL    HW279135   6.279   5.998   0.634  0.1346 -0.6321  0.5343
25415SOL     OW79136   7.327   2.647   1.616 -0.4077 -0.0647 -0.5909
25415SOL    HW179137   7.350   2.604   1.533  1.4559 -2.6642  1.0893
25415SOL    HW279138   7.412   2.667   1.656 -1.1884 -1.0558  1.6796
25416SOL     OW79139   8.103   1.933   0.520  0.2947  0.4229 -0.1505
25416SOL    HW179140   8.154   1.875   0.463 -4.4410 -0.7852 -3.9118
25416SOL    HW279141   8.040   1.875   0.563 -0.9831  2.1678  0.4693
25417SOL     OW79142   5.349   4.576   8.080 -0.1383  0.1634 -0.9351
25417SOL    HW179143   5.268   4.543   8.041 -0.3534  0.2370 -0.5504
25417SOL    HW279144   5.390   4.627   8.009 -1.0648  1.2042 -0.7373
25418SOL     OW79145   6.446   3.980   9.347  0.1005 -0.1344 -0.1036
25418SOL    HW179146   6.519   3.934   9.389  1.7359  0.9248 -1.6276
25418SOL    HW279147   6.413   3.918   9.282 -1.1076 -1.0165  1.3009
25419SOL     OW79148   1.531   8.088   2.779  0.0156  0.2285  0.1691
25419SOL    HW179149   1.523   8.173   2.821 -1.1084  0.2233  0.0060
25419SOL    HW279150   1.455   8.038   2.812 -0.2386 -0.1611 -0.9690
25420SOL     OW79151   5.729   4.814   7.097  0.6759  0.5825  0.1369
25420SOL    HW179152   5.709   4.795   7.188 -0.6479  0.3056 -0.1987
25420SOL    HW279153   5.652   4.862   7.064 -0.3027 -2.0041 -1.6657
25421SOL     OW79154   3.471   5.484   6.601 -0.0134 -1.2175  0.0278
25421SOL    HW179155   3.566   5.489   6.616  0.1208  1.6172 -1.0551
25421SOL    HW279156   3.448   5.570   6.567 -3.3693 -1.1273  2.1149
25422SOL     OW79157   5.126   9.049   6.129 -0.4719 -0.0562 -0.3738
25422SOL    HW179158   5.149   8.971   6.178 -1.0648 -0.4147 -0.6481
25422SOL    HW279159   5.030   9.049   6.129 -0.4793  0.7908 -0.1883
25423SOL     OW79160   6.045   1.243   7.005 -0.9739 -0.4834  0.5601
25423SOL    HW179161   6.114   1.264   7.068 -0.5965 -2.1706  0.7586
25423SOL    HW279162   5.963   1.264   7.051 -0.6531  2.3518  0.0115
25424SOL     OW79163   6.477   6.027   0.631 -0.0170  0.8299 -0.3148
25424SOL    HW179164   6.526   6.060   0.706  0.3503 -1.1395  0.3752
25424SOL    HW279165   6.522   6.063   0.555  2.0151 -0.2198  0.3212
25425SOL     OW79166   8.614   2.180   6.501  0.0421  0.3339 -0.5321
25425SOL    HW179167   8.545   2.167   6.436 -0.3433  1.8234 -0.4645
25425SOL    HW279168   8.567   2.184   6.584  0.3268  0.2860 -0.3678
25426SOL     OW79169   6.456   1.957   9.559  0.2106 -0.3557  0.0697
25426SOL    HW179170   6.380   1.913   9.521 -0.3411  0.4521  0.1988
25426SOL    HW279171   6.430   2.049   9.564  1.6570  0.1613 -1.0403
25427SOL     OW79172   6.411   0.883   1.900 -0.6180  0.0985  0.0270
25427SOL    HW179173   6.316   0.895   1.895 -0.6003  0.0996 -0.2892
25427SOL    HW279174   6.429   0.805   1.849 -0.4734 -0.0407  0.2870
25428SOL     OW79175   3.676   3.752   2.824  0.2238  0.4710  1.2788
25428SOL    HW179176   3.662   3.742   2.918 -0.6589 -1.5750  0.9800
25428SOL    HW279177   3.702   3.665   2.794  0.7771  1.1549 -0.3372
25429SOL     OW79178   8.990   7.365   2.763 -0.5939  0.7291  0.0463
25429SOL    HW179179   8.903   7.355   2.725 -1.2262  2.0790  1.0291
25429SOL    HW279180   8.974   7.372   2.858  0.6065  0.7777  0.2617
25430SOL     OW79181   2.866   7.321   2.142  0.1103  0.4257  0.3871
25430SOL    HW179182   2.816   7.290   2.066 -2.2149  0.5464  1.7803
25430SOL    HW279183   2.839   7.263   2.213  1.7889  0.6950  1.3056
25431SOL     OW79184   2.066   9.148   8.038 -0.0899 -0.5315  0.5475
25431SOL    HW179185   2.031   9.072   8.084  0.5957  0.1610  2.2911
25431SOL    HW279186   2.097   9.206   8.107  0.0355  1.0407 -0.7603
25432SOL     OW79187   2.338   2.366   0.775  0.3133 -0.2027  0.4462
25432SOL    HW179188   2.354   2.333   0.864 -0.9880  1.4774  1.3609
25432SOL    HW279189   2.384   2.450   0.772  0.3302 -0.2404 -0.4714
25433SOL     OW79190   1.231   2.866   4.329  0.5142  0.3445  0.5303
25433SOL    HW179191   1.138   2.866   4.306  0.9852 -1.1395 -1.5905
25433SOL    HW279192   1.231   2.856   4.425 -1.4874  1.3677  0.6985
25434SOL     OW79193   0.773   9.578   7.895  0.4905 -0.1248 -0.2450
25434SOL    HW179194   0.865   9.576   7.923  0.3679 -1.8979  0.1669
25434SOL    HW279195   0.747   9.670   7.904  1.6828  0.1005  1.4476
25435SOL     OW79196   5.158   0.397   7.693  0.0735  0.8211 -0.4324
25435SOL    HW179197   5.225   0.447   7.645  2.6869 -1.7633  0.2008
25435SOL    HW279198   5.134   0.326   7.634  0.8786 -0.4976  0.7451
25436SOL     OW79199   1.905   5.395   5.414  0.6289  0.3665 -0.4808
25436SOL    HW179200   1.821   5.437   5.433  0.8703  0.1672  1.2314
25436SOL    HW279201   1.892   5.303   5.435  1.3936  0.4220  0.3247
25437SOL     OW79202   0.984   4.864   7.336 -0.3466 -0.2120 -0.6211
25437SOL    HW179203   0.933   4.907   7.405 -2.0470 -0.9070 -1.3962
25437SOL    HW279204   0.961   4.911   7.256  0.5792 -0.2611 -0.9228
25438SOL     OW79205   0.939   6.599   5.888  0.2289  0.6886 -0.1819
25438SOL    HW179206   0.884   6.565   5.958 -1.5173  1.6164 -1.0208
25438SOL    HW279207   1.017   6.633   5.932 -0.1386 -0.1106  1.1254
25439SOL     OW79208   5.929   4.539   2.506 -0.3379 -0.5826 -0.1862
25439SOL    HW179209   5.968   4.530   2.419 -0.7694  0.4973 -0.5066
25439SOL    HW279210   5.837   4.518   2.494 -0.5882  0.4709 -0.1931
25440SOL     OW79211   7.494   2.882   2.590 -0.0229 -0.1660 -0.6289
25440SOL    HW179212   7.452   2.870   2.505 -0.1710  0.0853 -0.5938
25440SOL    HW279213   7.475   2.973   2.613  0.8568  0.0588 -0.7728
25441SOL     OW79214   8.716   1.838   6.610 -0.0675 -0.2107 -0.3511
25441SOL    HW179215   8.661   1.870   6.681 -0.6057  0.5885 -1.1035
25441SOL    HW279216   8.669   1.763   6.574 -0.6147  0.3812 -0.8975
25442SOL     OW79217   0.078   7.883   8.745 -0.0616  0.2592 -0.0701
25442SOL    HW179218  -0.004   7.929   8.763 -1.4498 -1.8600 -0.6443
25442SOL    HW279219   0.130   7.897   8.823 -0.5160  2.5099 -0.0982
25443SOL     OW79220   8.844   3.159   2.852  0.0553  0.1086  0.5581
25443SOL    HW179221   8.808   3.196   2.933 -1.3121  1.4269 -0.5735
25443SOL    HW279222   8.832   3.229   2.788  0.8872 -0.9952 -0.8373
25444SOL     OW79223   2.030   7.829   6.624  0.5930  0.1940  0.1917
25444SOL    HW179224   1.980   7.764   6.674 -0.2152  0.1253 -0.6573
25444SOL    HW279225   2.071   7.885   6.690  1.3611 -1.2163  0.9338
25445SOL     OW79226   2.854   3.164   6.732 -0.1372 -0.0054  0.1725
25445SOL    HW179227   2.859   3.236   6.669  0.9618 -0.7729 -0.6644
25445SOL    HW279228   2.801   3.097   6.688  3.3140 -1.9225 -1.5071
25446SOL     OW79229   1.579   1.392   0.651 -0.3268 -0.0364  0.4647
25446SOL    HW179230   1.614   1.303   0.642  0.6828  0.4902 -1.1487
25446SOL    HW279231   1.516   1.400   0.580 -0.1098  0.6717  0.3465
25447SOL     OW79232   3.514   7.045   8.145  0.2190 -0.4651  0.2914
25447SOL    HW179233   3.596   7.085   8.116 -0.0711 -0.7928 -1.0782
25447SOL    HW279234   3.496   6.977   8.079 -1.6231  0.2469 -0.0020
25448SOL     OW79235   1.914   8.220   6.601  0.3676  0.1710  0.1918
25448SOL    HW179236   1.871   8.145   6.559 -0.1784  2.0394 -2.8537
25448SOL    HW279237   2.006   8.213   6.572  0.4329  0.3828  0.3488
25449SOL     OW79238   7.820   2.668   6.307 -0.2927 -0.1663  0.0948
25449SOL    HW179239   7.854   2.714   6.230  0.6819  0.8308  1.0837
25449SOL    HW279240   7.892   2.669   6.370 -0.6426 -2.0798  0.5794
25450SOL     OW79241   6.020   6.650   2.147  0.0573 -0.4562 -0.4053
25450SOL    HW179242   5.961   6.640   2.072 -0.0496 -1.6884 -0.1784
25450SOL    HW279243   6.047   6.742   2.144 -0.6237 -0.2700 -1.4421
25451SOL     OW79244   9.184   0.980   9.318 -0.2750  0.2208  0.1116
25451SOL    HW179245   9.261   0.933   9.352 -0.2648 -0.2180 -0.5090
25451SOL    HW279246   9.150   1.027   9.394 -0.7929 -1.4678  0.9641
25452SOL     OW79247   1.634   3.872   5.929  0.0055 -0.1901  0.0599
25452SOL    HW179248   1.611   3.786   5.894  1.2074 -1.8346  2.9547
25452SOL    HW279249   1.559   3.897   5.983 -0.1878  0.4540 -0.4866
25453SOL     OW79250   5.002   6.806   4.379 -0.3298 -0.2950  0.1530
25453SOL    HW179251   4.967   6.782   4.465 -1.1278  2.7119  0.7803
25453SOL    HW279252   4.952   6.883   4.353  1.4817  0.2902 -1.9395
25454SOL     OW79253   4.340   2.024   6.819 -0.3301 -0.4113 -0.0388
25454SOL    HW179254   4.249   1.997   6.807  0.3791 -2.7160 -0.6831
25454SOL    HW279255   4.379   2.016   6.732  0.2674  1.5822  0.0115
25455SOL     OW79256   7.574   0.694   1.664  0.3165 -0.3110 -0.1483
25455SOL    HW179257   7.575   0.783   1.629 -0.4472 -0.9738 -1.9660
25455SOL    HW279258   7.542   0.704   1.754 -0.1538  1.1854 -0.4559
25456SOL     OW79259   8.845   2.601   2.448  0.1086 -0.6723  0.1272
25456SOL    HW179260   8.935   2.634   2.445  0.0669 -0.5531  0.1672
25456SOL    HW279261   8.807   2.644   2.524 -0.9661  1.8129 -1.6875
25457SOL     OW79262   1.327   4.276   6.154  0.9890 -0.2978 -0.6413
25457SOL    HW179263   1.349   4.290   6.247 -0.7391 -2.4513  0.1853
25457SOL    HW279264   1.249   4.222   6.156  0.5175  0.1413 -3.4152
25458SOL     OW79265   4.817   2.531   6.009 -0.0932  0.2723  0.0783
25458SOL    HW179266   4.739   2.586   6.003 -0.3700 -0.1301 -0.0731
25458SOL    HW279267   4.822   2.487   5.924 -1.0771 -1.5307  0.8948
25459SOL     OW79268   3.663   3.210   3.541 -0.3656 -0.5297 -0.5140
25459SOL    HW179269   3.682   3.275   3.474 -0.6089  0.3380  0.2428
25459SOL    HW279270   3.573   3.229   3.569 -0.6180 -1.4937 -0.6065
25460SOL     OW79271   1.564   3.145   7.947  0.5865 -0.2416  0.2801
25460SOL    HW179272   1.648   3.179   7.979 -0.6140  2.0705  1.1981
25460SOL    HW279273   1.517   3.120   8.027 -0.2193  0.0413 -0.0977
25461SOL     OW79274   4.653   8.892   0.226  0.3829 -0.3287  0.4226
25461SOL    HW179275   4.583   8.956   0.216 -0.2482 -0.9454  0.8413
25461SOL    HW279276   4.646   8.862   0.316  0.7525 -0.9009  0.2681
25462SOL     OW79277   4.140   0.871   4.705 -0.1326 -0.2903 -0.5447
25462SOL    HW179278   4.189   0.938   4.658  1.3611 -1.0263 -0.1199
25462SOL    HW279279   4.159   0.790   4.657 -0.7763 -0.6275 -0.2382
25463SOL     OW79280   7.138   8.962   8.876  0.5360 -0.4592  0.3410
25463SOL    HW179281   7.062   8.976   8.820  0.8288 -1.9982 -0.5131
25463SOL    HW279282   7.117   9.007   8.957  0.4835  2.6720 -1.2419
25464SOL     OW79283   1.804   3.652   7.304  0.0856 -0.0484 -0.1442
25464SOL    HW179284   1.742   3.646   7.232 -0.0696 -0.4306  0.0190
25464SOL    HW279285   1.844   3.739   7.294 -1.0295  0.5133  0.2120
25465SOL     OW79286   5.748   0.760   5.766 -0.5707 -0.0642  0.0298
25465SOL    HW179287   5.794   0.824   5.821  0.1403  0.5572 -1.2398
25465SOL    HW279288   5.693   0.711   5.828 -0.8238  1.4828  1.1031
25466SOL     OW79289   3.175   3.192   0.254  0.0634 -0.3068  0.6155
25466SOL    HW179290   3.089   3.193   0.211 -0.3464  0.1799  1.4154
25466SOL    HW279291   3.155   3.206   0.346  0.9772 -0.6863  0.8761
25467SOL     OW79292   9.576   8.548   0.023 -0.9033  0.0372 -0.0363
25467SOL    HW179293   9.578   8.538  -0.072 -1.6893 -0.7288  0.0180
25467SOL    HW279294   9.611   8.466   0.056 -0.4498  0.3751  0.3509
25468SOL     OW79295   2.463   0.459   0.168 -0.1479 -0.2556  0.2443
25468SOL    HW179296   2.502   0.417   0.245  0.2950  0.0571  0.2002
25468SOL    HW279297   2.373   0.427   0.164  1.0710 -4.0488 -1.8032
25469SOL     OW79298   1.852   2.601   0.838  0.3326 -0.2388  0.4253
25469SOL    HW179299   1.944   2.610   0.814 -0.1251 -0.1903 -1.4882
25469SOL    HW279300   1.826   2.515   0.803 -0.7601  0.5042 -0.6981
25470SOL     OW79301   0.894   0.219   5.673  0.3304 -0.3071  0.1160
25470SOL    HW179302   0.876   0.190   5.763 -0.6267 -0.5711 -0.1411
25470SOL    HW279303   0.941   0.145   5.633 -0.0684 -0.5766  0.1340
25471SOL     OW79304   5.799   4.132   8.468 -0.3845  0.6612  0.8197
25471SOL    HW179305   5.747   4.119   8.389 -0.5005  2.5967  0.5431
25471SOL    HW279306   5.734   4.147   8.537 -0.2807  3.1568  0.4614
25472SOL     OW79307   6.612   5.800   9.521  0.5478  0.3555  0.2953
25472SOL    HW179308   6.538   5.860   9.528  0.1416 -0.0763 -0.2572
25472SOL    HW279309   6.648   5.817   9.434 -0.9123 -1.7183 -0.7813
25473SOL     OW79310   9.340   7.576   3.143 -0.1707 -0.3605  0.1685
25473SOL    HW179311   9.348   7.671   3.148  4.0442 -0.5311  4.1430
25473SOL    HW279312   9.423   7.547   3.105 -0.7031 -2.4292  0.4430
25474SOL     OW79313   3.023   1.947   8.667 -0.2646  0.2930  0.6135
25474SOL    HW179314   3.071   1.876   8.709  0.8896 -0.3240 -1.5746
25474SOL    HW279315   3.082   2.022   8.670 -0.6208  0.5653  1.0222
25475SOL     OW79316   6.809   2.565   1.014  0.2127  0.3783 -0.1380
25475SOL    HW179317   6.845   2.653   1.022  0.0317  0.3129  1.8833
25475SOL    HW279318   6.878   2.507   1.046 -0.4833 -0.0038  0.7329
25476SOL     OW79319   6.328   9.499   8.509 -0.0173  0.7080 -0.0491
25476SOL    HW179320   6.252   9.474   8.457 -0.8774 -0.3032  1.6296
25476SOL    HW279321   6.352   9.420   8.557  0.9444  1.5156  0.8575
25477SOL     OW79322   3.584   4.808   7.236 -0.5046 -0.1588  0.4306
25477SOL    HW179323   3.549   4.737   7.290 -2.5594 -0.3857 -1.0414
25477SOL    HW279324   3.507   4.859   7.212  0.2513 -0.1694 -2.3497
25478SOL     OW79325   3.940   2.585   3.107 -0.4791 -0.1987  0.4485
25478SOL    HW179326   3.878   2.654   3.129 -1.2035 -0.5805 -0.3350
25478SOL    HW279327   3.960   2.598   3.014  1.4093  0.5171  0.9058
25479SOL     OW79328   6.781   7.409   0.059  0.3747  0.0550  0.1484
25479SOL    HW179329   6.767   7.318   0.031  0.1961  0.6282 -1.7236
25479SOL    HW279330   6.695   7.437   0.091  0.3328 -0.2915  0.3498
25480SOL     OW79331   8.812   4.073   4.462 -0.0800  0.8998 -0.2773
25480SOL    HW179332   8.819   4.091   4.556  2.2852 -0.1728 -0.1798
25480SOL    HW279333   8.740   4.010   4.456 -0.1823  0.8837  0.8146
25481SOL     OW79334   8.585   0.974   5.914 -0.5272  0.4433  0.0395
25481SOL    HW179335   8.523   0.930   5.856  1.2592 -0.3034 -1.3788
25481SOL    HW279336   8.580   0.925   5.996 -0.5591 -0.6927 -0.6298
25482SOL     OW79337   2.689   4.600   1.290 -0.3130  0.2946 -0.5206
25482SOL    HW179338   2.594   4.601   1.277 -0.2877  0.4286 -0.6954
25482SOL    HW279339   2.714   4.508   1.274 -0.6266 -0.1043  1.1245
25483SOL     OW79340   1.660   0.629   3.147  0.2216 -0.5936  0.0493
25483SOL    HW179341   1.679   0.579   3.068  1.0175 -0.0147 -0.1326
25483SOL    HW279342   1.592   0.691   3.122  1.8767  0.9764 -0.7562
25484SOL     OW79343   8.259   9.179   3.405  0.3309  0.7357  0.1126
25484SOL    HW179344   8.263   9.085   3.386 -0.6330  0.3196  1.7887
25484SOL    HW279345   8.345   9.200   3.441 -0.0032  0.1001  1.3229
25485SOL     OW79346   2.834   1.452   0.906 -0.3278  0.2847 -0.5109
25485SOL    HW179347   2.762   1.403   0.944  0.2460  0.1006  0.3548
25485SOL    HW279348   2.837   1.534   0.954 -0.5057  0.6624 -1.1306
25486SOL     OW79349   0.708   2.707   9.460 -0.3723 -0.0261  0.1398
25486SOL    HW179350   0.693   2.731   9.551 -0.5592  0.3136  0.0245
25486SOL    HW279351   0.639   2.753   9.412  0.1891  0.4185 -0.2576
25487SOL     OW79352   2.931   8.980   2.776  0.5616 -0.2247 -0.1959
25487SOL    HW179353   2.956   9.002   2.866  1.9157 -0.2437 -0.5495
25487SOL    HW279354   2.981   9.041   2.722  1.6961 -1.8259 -1.0269
25488SOL     OW79355   1.336   0.223   4.572 -0.0782 -0.6565 -0.6275
25488SOL    HW179356   1.248   0.222   4.534 -0.3049  2.2991 -0.4174
25488SOL    HW279357   1.322   0.234   4.666  0.5261 -1.2701 -0.4566
25489SOL     OW79358   5.646   1.451   8.459 -0.3140  0.6705  0.0509
25489SOL    HW179359   5.659   1.526   8.517  1.6095  1.6088 -1.5050
25489SOL    HW279360   5.711   1.387   8.487  1.0140  1.3494 -1.3393
25490SOL     OW79361   8.312   4.770   5.174 -0.0948 -0.3314 -0.0448
25490SOL    HW179362   8.231   4.819   5.158  0.0180 -0.3289 -0.6556
25490SOL    HW279363   8.364   4.827   5.230 -0.5316 -0.3507  0.3903
25491SOL     OW79364   7.309   6.961   1.980 -0.2187 -0.2798 -0.2561
25491SOL    HW179365   7.367   7.033   2.003 -0.5029  0.2853 -1.2534
25491SOL    HW279366   7.232   7.003   1.942 -0.8759 -1.0620  0.1777
25492SOL     OW79367   6.733   0.646   7.916 -0.3597 -0.1693  0.7801
25492SOL    HW179368   6.731   0.738   7.940 -0.1519 -0.6798  2.9604
25492SOL    HW279369   6.652   0.609   7.952 -1.1137 -0.6463 -1.2105
25493SOL     OW79370   5.700   0.517   2.085  0.6263  0.7545 -0.3226
25493SOL    HW179371   5.620   0.567   2.069  0.8673  1.3882  0.4153
25493SOL    HW279372   5.720   0.477   2.000  0.1353  1.4810 -0.7935
25494SOL     OW79373   1.217   1.758   9.389  0.3868  0.1820  0.3753
25494SOL    HW179374   1.298   1.775   9.437  0.6091 -0.9060  0.4198
25494SOL    HW279375   1.185   1.676   9.424 -0.7259  0.5806  0.3173
25495SOL     OW79376   0.791   6.091   3.025 -0.7311 -0.0414  0.1322
25495SOL    HW179377   0.805   6.171   3.075  1.6629  0.9919 -1.9441
25495SOL    HW279378   0.704   6.100   2.988 -0.1901  2.1010 -0.7603
25496SOL     OW79379   5.081   8.218   2.487 -0.1247  0.0535 -0.3680
25496SOL    HW179380   5.174   8.241   2.490 -0.4073  1.4645  3.7737
25496SOL    HW279381   5.035   8.302   2.496 -1.6422 -0.8498  0.9018
25497SOL     OW79382   8.451   4.096   5.364  0.2519 -0.0009 -0.1221
25497SOL    HW179383   8.449   4.016   5.311  1.4565 -0.5456  0.6162
25497SOL    HW279384   8.541   4.101   5.396  0.0635  1.4072  0.2343
25498SOL     OW79385   1.473   1.215   6.987  0.4641  0.8531 -0.3136
25498SOL    HW179386   1.505   1.128   7.011 -1.2882  0.4376  0.7300
25498SOL    HW279387   1.449   1.255   7.070 -1.3474  1.2252 -0.9670
25499SOL     OW79388   1.060   3.429   8.618  0.3145  0.0303 -0.0336
25499SOL    HW179389   1.135   3.413   8.674 -0.8540  0.2931  1.6940
25499SOL    HW279390   1.097   3.462   8.536  2.1812 -2.2508 -0.1828
25500SOL     OW79391   4.689   2.004   9.575  0.5188 -0.4903  0.2955
25500SOL    HW179392   4.757   1.938   9.566  0.3634 -0.7052  0.6788
25500SOL    HW279393   4.723   2.066   9.639 -0.0815 -1.1674  1.2869
25501SOL     OW79394   2.651   7.007   4.480 -0.4748  0.3440  0.4554
25501SOL    HW179395   2.583   7.067   4.451 -0.9130 -0.8846 -1.1962
25501SOL    HW279396   2.606   6.942   4.533 -0.4291  0.0279  0.1056
25502SOL     OW79397   1.249   7.794   4.718  0.1145  0.1617  1.1496
25502SOL    HW179398   1.165   7.838   4.732  0.1594  0.7449 -0.2291
25502SOL    HW279399   1.226   7.710   4.679  0.1870  0.7942 -0.3152
25503SOL     OW79400   7.214   6.024   5.277 -0.1451 -0.4461 -0.1182
25503SOL    HW179401   7.265   6.059   5.204 -2.2316  2.0787 -0.5327
25503SOL    HW279402   7.227   6.088   5.347  1.0449 -2.3246  1.4565
25504SOL     OW79403   8.538   1.243   9.104 -0.5597  0.2801  0.0827
25504SOL    HW179404   8.627   1.228   9.135 -0.2770  1.7763  0.0381
25504SOL    HW279405   8.487   1.258   9.183 -0.6817 -0.0814  0.0746
25505SOL     OW79406   5.885   5.362   7.801  0.5019 -0.4420 -0.5073
25505SOL    HW179407   5.816   5.422   7.828 -1.3088 -2.0628 -1.2826
25505SOL    HW279408   5.952   5.368   7.869  0.4569  2.4725 -0.6168
25506SOL     OW79409   7.726   8.662   4.054  0.3205 -0.4022  0.3611
25506SOL    HW179410   7.652   8.696   4.004  0.4852  1.7217  1.4251
25506SOL    HW279411   7.803   8.685   4.002  0.3342 -1.1037  0.0615
25507SOL     OW79412   1.102   7.935   6.680  0.0245  0.1647  0.2403
25507SOL    HW179413   1.083   7.915   6.772  1.0902  0.2644  0.4980
25507SOL    HW279414   1.065   8.022   6.667 -0.3886  0.0322  0.4872
25508SOL     OW79415   4.708   6.253   5.356 -0.1634  0.3529  0.1638
25508SOL    HW179416   4.641   6.321   5.344  0.5468  0.5715 -3.9476
25508SOL    HW279417   4.779   6.298   5.403 -1.3054  1.1905  1.1613
25509SOL     OW79418   0.702   7.213   0.984  0.4115 -0.5258 -0.6651
25509SOL    HW179419   0.670   7.175   0.903 -0.2413  0.4716 -0.8945
25509SOL    HW279420   0.627   7.259   1.021  0.8811 -0.3891  0.1584
25510SOL     OW79421   6.453   1.979   2.167  0.6309  0.5079 -0.2061
25510SOL    HW179422   6.473   1.897   2.123  0.5075  0.9408 -1.0905
25510SOL    HW279423   6.514   2.043   2.128  1.2500  0.6952  1.0008
25511SOL     OW79424   1.911   3.915   1.762  0.1464 -0.5037 -0.0046
25511SOL    HW179425   1.901   3.838   1.706  1.1859 -0.3043 -0.5095
25511SOL    HW279426   1.823   3.952   1.770 -0.2808 -1.4764 -0.1427
25512SOL     OW79427   8.084   4.791   0.648 -0.6529  0.1450  0.2635
25512SOL    HW179428   8.128   4.865   0.606 -0.2491 -0.3658 -0.2253
25512SOL    HW279429   8.012   4.769   0.588  0.3632 -1.0554 -0.5810
25513SOL     OW79430   0.104   7.166   4.377  0.0607 -0.3221  0.2757
25513SOL    HW179431   0.147   7.242   4.416  1.2017  0.0144 -1.5450
25513SOL    HW279432   0.166   7.095   4.387 -0.6723 -0.8518  1.2440
25514SOL     OW79433   8.381   3.245   5.088 -0.9353  0.0699  0.1484
25514SOL    HW179434   8.338   3.163   5.063 -0.3962 -0.6578  1.4619
25514SOL    HW279435   8.320   3.286   5.149 -0.5626 -0.1051  0.6514
25515SOL     OW79436   7.999   5.201   4.842  0.2876 -0.3244 -0.7215
25515SOL    HW179437   8.037   5.185   4.928  1.1153 -1.1903 -1.2123
25515SOL    HW279438   7.927   5.261   4.857 -0.4840 -1.5515  0.7765
25516SOL     OW79439   0.357   0.130   3.129 -0.2895  0.3633  0.4649
25516SOL    HW179440   0.392   0.073   3.061 -1.2989  0.4375 -0.1395
25516SOL    HW279441   0.415   0.116   3.204  1.8288  1.4395 -0.8505
25517SOL     OW79442   2.229   2.322   8.833  0.0097 -0.1718 -0.8343
25517SOL    HW179443   2.134   2.313   8.840  0.1570 -1.7916 -0.7140
25517SOL    HW279444   2.261   2.320   8.923  0.1075  1.3391 -0.8089
25518SOL     OW79445   2.655   1.805   5.607  0.0002 -0.1157 -0.0162
25518SOL    HW179446   2.575   1.858   5.607 -0.1423 -0.3248  0.6511
25518SOL    HW279447   2.625   1.717   5.582  0.3234  0.2251 -1.7126
25519SOL     OW79448   7.551   5.120   1.380 -0.0883 -0.0758  0.7154
25519SOL    HW179449   7.473   5.089   1.335  0.1388  1.0745 -0.5541
25519SOL    HW279450   7.624   5.079   1.334  0.1522  1.1941 -0.1092
25520SOL     OW79451   5.378   2.383   3.816 -0.0614  0.4860 -0.7663
25520SOL    HW179452   5.454   2.332   3.844 -0.0376  1.1773  0.4863
25520SOL    HW279453   5.413   2.469   3.793 -0.2540  0.3035 -1.7931
25521SOL     OW79454   9.501   7.187   7.407 -0.1874  0.3703  0.0691
25521SOL    HW179455   9.417   7.147   7.385 -0.3943  0.7784  0.1202
25521SOL    HW279456   9.498   7.274   7.367 -0.0624  0.6437  0.6424
25522SOL     OW79457   0.317   7.608   3.172  0.5439  0.2147 -0.4917
25522SOL    HW179458   0.234   7.653   3.188 -0.1974 -1.3732  0.3524
25522SOL    HW279459   0.329   7.612   3.078 -0.7955 -0.0346 -0.6943
25523SOL     OW79460   7.320   1.157   8.417  0.3376  0.7314 -0.1388
25523SOL    HW179461   7.312   1.063   8.400 -2.7193  0.7380  0.7060
25523SOL    HW279462   7.403   1.166   8.464  0.6552 -1.5399 -0.1501
25524SOL     OW79463   8.202   4.955   0.003  1.1482 -0.0176 -0.8993
25524SOL    HW179464   8.137   4.988   0.065  2.9512 -2.0372  2.3393
25524SOL    HW279465   8.151   4.914  -0.066 -1.0146 -0.1698  0.6970
25525SOL     OW79466   0.119   6.163   4.904 -0.1053  0.0966 -0.4428
25525SOL    HW179467   0.083   6.081   4.938  1.2405 -0.4970 -0.4051
25525SOL    HW279468   0.177   6.136   4.833  1.1028  0.9256  0.1992
25526SOL     OW79469   3.092   8.207   5.970  0.5933 -0.3236 -0.2355
25526SOL    HW179470   2.998   8.194   5.957  0.6008  0.6751 -1.5495
25526SOL    HW279471   3.131   8.121   5.955 -0.1363 -0.8860  0.9337
25527SOL     OW79472   7.719   7.090   8.047 -0.1660  0.4980 -0.3973
25527SOL    HW179473   7.813   7.106   8.048 -0.4398  2.2804 -0.7298
25527SOL    HW279474   7.680   7.177   8.044 -1.8318 -0.2178 -0.3369
25528SOL     OW79475   0.433   8.394   4.433  0.4582 -0.0468  0.3202
25528SOL    HW179476   0.347   8.353   4.445  0.9548 -1.6448 -1.2216
25528SOL    HW279477   0.431   8.470   4.492 -2.2020  0.3074 -0.0655
25529SOL     OW79478   4.653   8.575   1.616  0.1512  0.2579  0.2092
25529SOL    HW179479   4.614   8.619   1.692 -1.9371 -0.7238 -0.1991
25529SOL    HW279480   4.690   8.645   1.563  1.3657  0.9837  1.9633
25530SOL     OW79481   8.916   7.242   6.229  0.0241 -0.0080 -0.0403
25530SOL    HW179482   8.959   7.326   6.245 -0.4856  0.0424  1.1851
25530SOL    HW279483   8.900   7.240   6.135  2.3008  0.1620 -0.4877
25531SOL     OW79484   4.970   5.903   3.707 -0.0867 -0.0915 -0.0287
25531SOL    HW179485   4.993   5.958   3.632 -0.1679 -1.8222 -1.4069
25531SOL    HW279486   4.878   5.924   3.725 -0.6339 -0.9041 -1.6359
25532SOL     OW79487   6.099   3.527   4.852 -0.2377  0.2703 -0.2556
25532SOL    HW179488   6.090   3.620   4.875  1.9428  0.8294 -1.3868
25532SOL    HW279489   6.131   3.486   4.932 -0.3617  0.6844  0.0102
25533SOL     OW79490   1.289   2.842   0.699 -0.3569 -0.4038 -0.7919
25533SOL    HW179491   1.319   2.751   0.699 -0.5590 -0.4799 -1.3515
25533SOL    HW279492   1.334   2.883   0.772 -0.2488 -0.9523 -0.5475
25534SOL     OW79493   3.629   8.075   0.858  0.6312 -0.3928  0.3730
25534SOL    HW179494   3.668   8.053   0.774  0.8588 -0.2070  0.4245
25534SOL    HW279495   3.642   8.170   0.866  0.8663 -0.4504  0.7386
25535SOL     OW79496   0.546   7.436   3.840 -0.0579  0.2158 -0.1444
25535SOL    HW179497   0.563   7.530   3.850 -1.3501  0.3449  1.1413
25535SOL    HW279498   0.452   7.430   3.824 -0.3180 -0.9597  1.5936
25536SOL     OW79499   7.182   4.429   4.519 -0.0858 -0.4308 -0.3619
25536SOL    HW179500   7.166   4.350   4.571 -2.2653  0.8871  1.0727
25536SOL    HW279501   7.095   4.464   4.500  0.7155  0.2357 -3.2711
25537SOL     OW79502   9.463   2.604   6.506 -0.3162  0.3647 -0.0022
25537SOL    HW179503   9.483   2.561   6.423 -1.9223 -0.5661  0.0487
25537SOL    HW279504   9.369   2.625   6.500 -0.2179  1.2491  1.1575
25538SOL     OW79505   5.439   0.107   8.604 -0.0541  0.1912  0.0942
25538SOL    HW179506   5.396   0.154   8.674  1.6614  0.6880  0.8809
25538SOL    HW279507   5.502   0.169   8.568  0.0560 -0.4983 -0.9735
25539SOL     OW79508   5.198   0.682   4.978 -0.2538  0.2999 -0.0178
25539SOL    HW179509   5.187   0.666   4.884 -0.8997  1.7361 -0.2225
25539SOL    HW279510   5.155   0.608   5.020  1.3770 -1.1728 -0.8204
25540SOL     OW79511   5.103   2.104   8.667 -0.1473  0.5377 -0.7455
25540SOL    HW179512   5.090   2.018   8.706  1.3559 -0.5694 -2.4821
25540SOL    HW279513   5.184   2.137   8.706 -0.1401  0.6696 -0.8677
25541SOL     OW79514   7.420   5.628   3.382  0.2268 -0.6317  0.9644
25541SOL    HW179515   7.500   5.580   3.405 -0.1886 -1.2405  1.1524
25541SOL    HW279516   7.363   5.617   3.457 -0.0898 -0.2993  0.7760
25542SOL     OW79517   5.397   0.184   0.971 -0.6313  0.4828  0.1075
25542SOL    HW179518   5.466   0.250   0.972 -0.8885  0.7642  1.4281
25542SOL    HW279519   5.337   0.212   0.902 -0.5351  1.4294  0.3915
25543SOL     OW79520   6.412   4.981   2.001  0.0506 -0.3753 -0.5223
25543SOL    HW179521   6.419   4.918   2.073 -1.8815 -1.6421 -1.3577
25543SOL    HW279522   6.401   4.926   1.923 -0.5641  0.9999 -1.4250
25544SOL     OW79523   7.066   0.004   9.559  0.2086  0.1882  0.0311
25544SOL    HW179524   7.146   0.051   9.580 -0.0027  0.0082  1.3081
25544SOL    HW279525   7.014   0.067   9.509  0.3495  0.9722  0.8551
25545SOL     OW79526   9.226   7.089   8.078 -0.3724  0.2772 -0.2182
25545SOL    HW179527   9.304   7.034   8.079 -1.1153 -0.7930  0.9020
25545SOL    HW279528   9.170   7.051   8.011 -0.1559  0.7384 -0.6658
25546SOL     OW79529   5.944   4.082   3.993 -0.6231  0.2226  0.2467
25546SOL    HW179530   5.982   4.133   4.065 -2.0917 -0.9424  1.9430
25546SOL    HW279531   5.999   4.004   3.988 -0.4571  0.3522  0.0129
25547SOL     OW79532   3.086   9.047   1.421 -0.5093 -0.2904  0.1688
25547SOL    HW179533   3.127   9.104   1.355  1.1104 -0.7427  0.7455
25547SOL    HW279534   3.078   8.962   1.377 -1.3168 -0.0818 -0.1060
25548SOL     OW79535   2.689   8.202   2.335  0.1204 -0.4712 -0.4943
25548SOL    HW179536   2.667   8.232   2.423  1.0897 -0.9472 -0.0777
25548SOL    HW279537   2.718   8.280   2.289  1.1775 -0.4803  0.1198
25549SOL     OW79538   0.477   0.343   1.941 -0.3588  0.0633 -0.1514
25549SOL    HW179539   0.403   0.336   2.002 -1.4796 -0.5023 -1.5405
25549SOL    HW279540   0.458   0.279   1.873  1.4252 -0.0784 -0.5533
25550SOL     OW79541   4.250   2.682   7.783 -0.2146  0.4629 -0.2296
25550SOL    HW179542   4.296   2.745   7.837 -0.6514  2.1870 -1.7777
25550SOL    HW279543   4.179   2.732   7.742 -0.9490 -1.1724 -1.0533
25551SOL     OW79544   1.718   7.704   8.689  0.0423  0.6115  0.1076
25551SOL    HW179545   1.636   7.745   8.661 -1.2547 -1.7180  0.2421
25551SOL    HW279546   1.785   7.770   8.670 -1.8489  2.7373  0.2839
25552SOL     OW79547   8.060   9.605   4.059  0.1030  0.1207  0.4661
25552SOL    HW179548   7.970   9.596   4.091 -0.4081 -0.4148 -1.0237
25552SOL    HW279549   8.084   9.516   4.032  1.2844  0.1625  1.3413
25553SOL     OW79550   7.619   0.202   1.214  0.0422  0.0506 -0.7608
25553SOL    HW179551   7.655   0.227   1.129  0.9952 -0.9157 -0.6495
25553SOL    HW279552   7.683   0.232   1.278  0.5106 -1.3632 -0.5384
25554SOL     OW79553   3.709   7.639   9.122 -0.0888 -0.5724  0.2794
25554SOL    HW179554   3.725   7.647   9.028 -0.7022  0.7672  0.2615
25554SOL    HW279555   3.666   7.554   9.132 -0.2985 -0.5941 -0.7008
25555SOL     OW79556   0.538   8.531   6.682 -0.1785  0.7897  0.6986
25555SOL    HW179557   0.631   8.524   6.660 -0.4926 -0.5845 -0.3265
25555SOL    HW279558   0.519   8.451   6.732 -0.7496  1.2029  1.1559
25556SOL     OW79559   2.144   2.315   0.137  0.2362 -0.4669  0.1189
25556SOL    HW179560   2.172   2.391   0.187  1.0581 -0.5730 -0.1790
25556SOL    HW279561   2.073   2.348   0.081  1.7195  0.4986 -1.2679
25557SOL     OW79562   7.106   5.484   5.501 -0.3623 -0.2025 -0.5278
25557SOL    HW179563   7.070   5.435   5.575  0.7366 -0.9389 -0.4548
25557SOL    HW279564   7.186   5.437   5.478 -0.5875  0.1249 -2.0726
25558SOL     OW79565   3.604   7.721   4.875  0.7225 -0.0877 -0.0292
25558SOL    HW179566   3.554   7.675   4.942 -0.0079  1.3984  0.4883
25558SOL    HW279567   3.537   7.762   4.820  1.3139  1.8292  0.6008
25559SOL     OW79568   0.719   2.818   2.652 -0.7821  0.6569  0.2346
25559SOL    HW179569   0.676   2.754   2.596 -1.5987 -0.0828  1.6441
25559SOL    HW279570   0.678   2.902   2.629 -0.9606  0.4009 -0.3972
25560SOL     OW79571   0.254   4.165   2.585 -0.0550 -0.6044  0.5303
25560SOL    HW179572   0.254   4.098   2.653  2.1637 -2.5856 -1.2274
25560SOL    HW279573   0.335   4.214   2.599 -0.2473 -0.1454  0.0907
25561SOL     OW79574   7.304   3.900   9.026  0.3469 -0.1216  0.1206
25561SOL    HW179575   7.249   3.870   9.098  0.9968  0.7901  1.0165
25561SOL    HW279576   7.392   3.906   9.063  0.4837  1.5258 -0.3940
25562SOL     OW79577   7.743   4.201   3.935  0.3422 -0.3599  0.4538
25562SOL    HW179578   7.720   4.294   3.932  1.0720 -0.1822 -1.9108
25562SOL    HW279579   7.810   4.195   4.003  0.4330  0.9067  0.4964
25563SOL     OW79580   7.184   2.596   0.006  0.5634 -0.1119 -0.0574
25563SOL    HW179581   7.095   2.561   0.013  0.0471  1.0011 -0.7976
25563SOL    HW279582   7.220   2.585   0.094  0.4844 -2.5451 -0.2647
25564SOL     OW79583   9.465   7.863   6.376  0.2111  0.4288  0.1070
25564SOL    HW179584   9.378   7.835   6.350  1.0339 -0.2078 -2.2508
25564SOL    HW279585   9.459   7.959   6.380 -0.2420  0.4955 -1.5783
25565SOL     OW79586   1.203   4.653   3.877 -0.0153  0.1268 -0.2843
25565SOL    HW179587   1.267   4.652   3.949 -2.0168 -0.7221  1.5996
25565SOL    HW279588   1.199   4.744   3.850  1.5915  0.2853 -0.0974
25566SOL     OW79589   8.620   1.783   3.311 -0.2541  0.0832  0.0308
25566SOL    HW179590   8.635   1.863   3.361  0.2962 -1.1265  1.9119
25566SOL    HW279591   8.682   1.788   3.238  3.7677 -0.9446  3.0257
25567SOL     OW79592   3.163   4.193   7.177 -0.1174 -0.1233  0.1188
25567SOL    HW179593   3.254   4.166   7.185 -0.3654 -1.0510 -0.0327
25567SOL    HW279594   3.164   4.287   7.193  0.5886 -0.4432  2.2831
25568SOL     OW79595   1.247   3.047   5.138 -0.3118  0.2928  0.8246
25568SOL    HW179596   1.167   3.015   5.179 -0.1719  0.5020  1.2626
25568SOL    HW279597   1.219   3.122   5.086 -0.4975 -0.0092  0.4750
25569SOL     OW79598   6.035   4.978   5.756  0.4377  0.2224 -0.5901
25569SOL    HW179599   6.110   4.930   5.792 -0.2804 -1.0199 -0.6969
25569SOL    HW279600   5.990   4.914   5.701 -0.9134  0.8240 -0.2189
25570SOL     OW79601   4.500   4.450   8.745  0.2263 -0.1275  0.5856
25570SOL    HW179602   4.587   4.411   8.731 -0.0114 -0.1509 -1.0261
25570SOL    HW279603   4.476   4.484   8.659 -1.5200 -0.4443  0.9279
25571SOL     OW79604   8.378   2.658   6.732  0.2829  0.3162 -0.0151
25571SOL    HW179605   8.385   2.680   6.825 -0.0834  4.3298 -0.7598
25571SOL    HW279606   8.467   2.663   6.699  0.3908 -0.9467  0.0319
25572SOL     OW79607   3.032   2.624   2.001  0.3232  0.8038 -0.1592
25572SOL    HW179608   2.983   2.641   1.921 -0.7980  0.3773  0.4097
25572SOL    HW279609   3.112   2.579   1.972  0.0790  0.9329 -1.0511
25573SOL     OW79610   2.611   1.784   6.495  0.4769  0.2323 -0.3225
25573SOL    HW179611   2.612   1.825   6.408 -0.3318 -0.5372 -0.7076
25573SOL    HW279612   2.704   1.775   6.517  0.7227 -0.4821 -1.5570
25574SOL     OW79613   3.379   6.274   6.510  0.0340  0.1010 -0.3857
25574SOL    HW179614   3.466   6.250   6.478  0.8422  0.1727  1.6160
25574SOL    HW279615   3.321   6.256   6.436  1.8883  1.4384 -2.3022
25575SOL     OW79616   0.500   5.272   7.502 -0.6167  0.7080  0.1681
25575SOL    HW179617   0.515   5.181   7.476 -0.1741  0.3197  1.7029
25575SOL    HW279618   0.424   5.300   7.450 -0.2867 -0.2804 -0.8729
25576SOL     OW79619   9.172   6.445   1.801  0.0319  0.4959  0.1039
25576SOL    HW179620   9.185   6.451   1.895 -0.2369 -1.8145  0.3406
25576SOL    HW279621   9.259   6.427   1.766  0.0693  0.9864 -0.0667
25577SOL     OW79622   5.159   7.187   2.228 -0.1123 -0.5477 -0.0545
25577SOL    HW179623   5.113   7.105   2.244 -0.3792 -0.1175  1.6811
25577SOL    HW279624   5.122   7.220   2.147 -0.2937 -1.9363 -0.5614
25578SOL     OW79625   9.086   9.455   5.097  0.0729 -0.1973 -0.1877
25578SOL    HW179626   9.144   9.385   5.066  0.6735  0.4039 -0.4433
25578SOL    HW279627   9.129   9.536   5.069 -0.5804  0.2786  0.1632
25579SOL     OW79628   0.552   8.123   3.517  0.2144 -0.0555 -0.3764
25579SOL    HW179629   0.502   8.192   3.562  0.1762 -0.1801 -0.2286
25579SOL    HW279630   0.486   8.059   3.491  0.4419 -0.8796  0.9889
25580SOL     OW79631   1.151   5.247   5.176 -0.1484  0.5570 -0.4622
25580SOL    HW179632   1.161   5.157   5.143  2.3640  0.5806  0.0681
25580SOL    HW279633   1.132   5.299   5.098 -0.7141 -0.2922 -0.9053
25581SOL     OW79634   3.316   0.860   8.246 -0.7998 -0.5596 -0.1035
25581SOL    HW179635   3.315   0.920   8.171 -1.1885  0.0441  0.3701
25581SOL    HW279636   3.239   0.885   8.297  0.7900  0.7674  1.8178
25582SOL     OW79637   9.216   3.995   7.908 -0.1600 -0.1584  0.1492
25582SOL    HW179638   9.296   4.045   7.891 -1.1321  1.1119 -0.9270
25582SOL    HW279639   9.205   3.939   7.832  0.3865 -1.3227  0.8997
25583SOL     OW79640   2.612   5.443   4.657  0.0629 -0.0585 -0.3198
25583SOL    HW179641   2.596   5.537   4.657  1.3431  0.1724 -0.5928
25583SOL    HW279642   2.675   5.429   4.727  0.4058 -0.6180 -0.7323
25584SOL     OW79643   4.714   4.282   2.636  0.8081 -0.4846 -0.8155
25584SOL    HW179644   4.718   4.377   2.624 -1.6103 -0.3183 -0.9453
25584SOL    HW279645   4.796   4.259   2.680  0.8879  1.8648  0.4171
25585SOL     OW79646   5.085   2.648   8.624 -0.3391  0.2974  0.4267
25585SOL    HW179647   5.105   2.699   8.545  1.0850 -0.1929  0.4336
25585SOL    HW279648   5.168   2.604   8.645 -1.3379 -1.4938  0.8092
25586SOL     OW79649   6.810   1.562   2.854  0.1028  0.4556 -0.1868
25586SOL    HW179650   6.742   1.497   2.838 -0.5484  0.9927  0.3174
25586SOL    HW279651   6.821   1.606   2.770  0.3459 -0.1077 -0.4558
25587SOL     OW79652   6.484   4.587   1.677  0.2295  0.2680 -0.0931
25587SOL    HW179653   6.507   4.674   1.710 -0.6668  0.8080 -0.8301
25587SOL    HW279654   6.396   4.598   1.641  0.5460 -0.6704 -1.2268
25588SOL     OW79655   1.275   4.427   2.587 -0.2262  0.3105 -0.1653
25588SOL    HW179656   1.203   4.419   2.649 -0.5701 -0.3567 -0.6326
25588SOL    HW279657   1.239   4.477   2.514  0.6131  2.3918  0.7921
25589SOL     OW79658   4.386   6.323   7.643  0.3730 -0.2597 -0.7473
25589SOL    HW179659   4.396   6.252   7.581  0.7962 -1.3007  0.4672
25589SOL    HW279660   4.314   6.295   7.700 -1.3528  1.5645 -1.9153
25590SOL     OW79661   9.332   0.053   7.684  0.1638 -0.3376 -0.2012
25590SOL    HW179662   9.402  -0.009   7.667  2.0632  1.1905  1.6266
25590SOL    HW279663   9.274   0.008   7.746 -0.0496 -1.2852 -1.0663
25591SOL     OW79664   4.047   8.503   0.775  0.2201 -0.5386 -0.4564
25591SOL    HW179665   3.965   8.521   0.821 -0.4398 -1.6168 -1.1440
25591SOL    HW279666   4.112   8.556   0.820 -0.5017 -1.0519  1.3171
25592SOL     OW79667   9.447   0.275   2.385  0.9360  0.0459 -0.0180
25592SOL    HW179668   9.462   0.258   2.478  0.5297 -0.6119 -0.0651
25592SOL    HW279669   9.505   0.349   2.364  0.0569  1.0540  1.0467
25593SOL     OW79670   0.920   7.835   1.634  0.0100 -0.3115  0.0238
25593SOL    HW179671   0.948   7.777   1.704 -0.5182 -1.3806 -0.6171
25593SOL    HW279672   0.999   7.852   1.583  0.4865  0.8322  1.1111
25594SOL     OW79673   4.384   6.795   8.836  0.2999  0.8777 -0.2251
25594SOL    HW179674   4.356   6.736   8.906 -1.5631  0.0188 -1.5755
25594SOL    HW279675   4.407   6.736   8.764  0.8205  1.7583 -0.7957
25595SOL     OW79676   0.266   7.577   5.597  0.1168  0.0576 -0.6875
25595SOL    HW179677   0.322   7.651   5.573  1.9680 -0.4945  1.6491
25595SOL    HW279678   0.203   7.614   5.658  1.1245 -0.2535  0.5839
25596SOL     OW79679   8.944   4.294   3.127  0.3506 -0.0929  0.8527
25596SOL    HW179680   8.954   4.285   3.033 -0.1244 -1.3104  0.9058
25596SOL    HW279681   8.882   4.366   3.138 -0.7873 -0.9461  0.1801
25597SOL     OW79682   3.752   1.030   8.100 -0.3589  0.9567  0.5372
25597SOL    HW179683   3.761   1.076   8.017  0.4915  1.5057  0.9176
25597SOL    HW279684   3.821   0.964   8.100 -1.0412  0.2231  0.3584
25598SOL     OW79685   2.245   4.395   6.373  0.1344  0.2270  0.2313
25598SOL    HW179686   2.212   4.481   6.349 -1.3102 -0.5839 -0.8708
25598SOL    HW279687   2.333   4.391   6.335  0.0474  1.0447 -0.0724
25599SOL     OW79688   2.494   4.141   0.339 -0.1555  0.3355 -0.3322
25599SOL    HW179689   2.497   4.125   0.433  2.6672  0.5070 -0.2929
25599SOL    HW279690   2.550   4.218   0.326 -0.7567  0.5243 -2.1400
25600SOL     OW79691   7.791   7.352   1.188 -0.1524  0.1828 -0.0141
25600SOL    HW179692   7.716   7.370   1.245 -0.4831 -3.3904  0.9211
25600SOL    HW279693   7.760   7.283   1.129  1.5174  0.8224 -1.7644
25601SOL     OW79694   3.569   1.808   8.795  0.2227 -0.2909 -0.2233
25601SOL    HW179695   3.490   1.852   8.826  0.0974  0.2605 -1.2841
25601SOL    HW279696   3.597   1.754   8.869 -0.5158  0.3564  0.5468
25602SOL     OW79697   8.166   3.250   1.925 -0.0374 -0.1059  0.2496
25602SOL    HW179698   8.095   3.257   1.861 -1.0239  1.3964  1.4108
25602SOL    HW279699   8.230   3.315   1.897  0.3420 -0.6567 -0.1632
25603SOL     OW79700   0.411   4.235   5.605  0.2830 -0.4851 -0.0624
25603SOL    HW179701   0.376   4.216   5.518 -1.2793 -1.8399  0.8184
25603SOL    HW279702   0.335   4.242   5.662  1.2970 -0.4874  1.3730
25604SOL     OW79703   1.519   1.242   6.016  0.1286  0.6823 -0.1250
25604SOL    HW179704   1.562   1.216   6.098  0.7837  1.1979 -0.3021
25604SOL    HW279705   1.589   1.238   5.951  0.1237  2.3727 -0.2601
25605SOL     OW79706   8.886   3.181   9.198 -0.1133 -0.0568  0.4246
25605SOL    HW179707   8.872   3.262   9.149 -0.1271 -0.0364  0.4614
25605SOL    HW279708   8.818   3.183   9.266 -0.7424 -0.5751 -0.1800
25606SOL     OW79709   5.598   7.446   8.377 -0.3483  0.2540 -0.5163
25606SOL    HW179710   5.585   7.360   8.418  0.4658 -0.2275 -1.2165
25606SOL    HW279711   5.690   7.445   8.350 -0.7580  0.6920 -2.0076
25607SOL     OW79712   6.060   7.014   4.618 -0.1985 -0.3240  0.6555
25607SOL    HW179713   5.971   7.019   4.654  0.0110 -0.2516  1.1668
25607SOL    HW279714   6.097   7.101   4.633 -0.3583 -0.0591 -0.4071
25608SOL     OW79715   8.314   7.546   2.446  0.7511 -0.3412 -0.2762
25608SOL    HW179716   8.257   7.617   2.416 -0.5923 -0.0215  2.7148
25608SOL    HW279717   8.393   7.555   2.392 -0.3045  1.9245 -1.6054
25609SOL     OW79718   0.819   8.894   2.798  0.0430 -0.0375 -0.4813
25609SOL    HW179719   0.745   8.926   2.849  0.9543 -0.0538  0.8888
25609SOL    HW279720   0.801   8.800   2.785  0.4556 -0.3487  1.0283
25610SOL     OW79721   6.134   6.524   4.511 -0.5447  0.1096  0.3029
25610SOL    HW179722   6.143   6.557   4.601  1.3222  0.0868  0.1590
25610SOL    HW279723   6.202   6.569   4.462 -0.4045 -1.1720 -0.7283
25611SOL     OW79724   7.724   6.509   3.773 -0.7237  0.5861  0.0737
25611SOL    HW179725   7.675   6.502   3.855 -2.0059 -1.0685 -0.7741
25611SOL    HW279726   7.796   6.447   3.782 -1.3821 -0.2583 -0.3706
25612SOL     OW79727   6.171   1.274   0.715  0.4853  0.0928 -0.3758
25612SOL    HW179728   6.257   1.239   0.694 -0.0519 -0.4373 -1.8106
25612SOL    HW279729   6.130   1.291   0.630 -1.9394 -2.5212  0.1082
25613SOL     OW79730   7.828   8.139   4.623  0.0032 -0.3495  0.1581
25613SOL    HW179731   7.855   8.209   4.563 -0.4323 -0.7031 -0.4613
25613SOL    HW279732   7.744   8.109   4.588 -0.9215  0.3323  1.7051
25614SOL     OW79733   4.265   1.578   0.163 -0.5546  0.4894  0.4140
25614SOL    HW179734   4.184   1.606   0.205 -1.1431 -0.3163 -0.1466
25614SOL    HW279735   4.243   1.493   0.123  1.0914 -0.6694  1.8418
25615SOL     OW79736   7.820   4.063   5.762  0.3984  0.1156  0.0854
25615SOL    HW179737   7.887   4.040   5.698  0.2627 -0.5489  0.1748
25615SOL    HW279738   7.757   4.116   5.713  0.4411 -0.1494 -0.2583
25616SOL     OW79739   3.560   0.068   3.102  0.4819 -0.2368  0.2128
25616SOL    HW179740   3.555   0.098   3.193  0.8856 -0.4292  0.3009
25616SOL    HW279741   3.600   0.141   3.055 -0.7756  0.3227 -0.0337
25617SOL     OW79742   3.071   6.080   6.578  1.2161  1.0350 -0.0795
25617SOL    HW179743   3.049   6.029   6.656  0.1630  0.6649 -0.5965
25617SOL    HW279744   3.135   6.027   6.532 -1.1400 -0.7916 -1.5173
25618SOL     OW79745   8.970   6.321   8.103  0.3739  0.1382  0.0204
25618SOL    HW179746   9.058   6.291   8.081  0.8984  0.4076  1.5647
25618SOL    HW279747   8.923   6.324   8.020  1.6378 -0.6024 -0.7490
25619SOL     OW79748   0.769   1.485   7.534  0.4955  0.0050 -0.0309
25619SOL    HW179749   0.783   1.447   7.448 -0.4446 -0.6896  0.1025
25619SOL    HW279750   0.707   1.556   7.520  0.7277  0.2163  0.0039
25620SOL     OW79751   6.976   0.391   1.243 -0.1512 -0.5598 -0.1321
25620SOL    HW179752   7.010   0.440   1.168  1.6625 -0.2606  0.8093
25620SOL    HW279753   6.881   0.388   1.229  0.0952 -0.2372 -2.2385
25621SOL     OW79754   5.830   7.347   2.305 -0.5831  0.6532 -0.3386
25621SOL    HW179755   5.922   7.350   2.277 -0.1032 -0.7060  0.9474
25621SOL    HW279756   5.831   7.381   2.395 -1.2005 -0.1662 -0.0117
25622SOL     OW79757   8.957   2.370   4.323 -0.3461  0.3842 -0.5319
25622SOL    HW179758   9.049   2.388   4.302  0.1628 -0.5945  0.7885
25622SOL    HW279759   8.928   2.311   4.253  0.2192  0.1664 -0.5878
25623SOL     OW79760   8.370   3.655   5.502 -0.0276 -0.0920  0.0350
25623SOL    HW179761   8.413   3.570   5.506 -0.5664 -0.3239  2.2899
25623SOL    HW279762   8.284   3.641   5.543  0.1699  1.6629  1.1942
25624SOL     OW79763   8.596   5.419   1.656 -0.5218  0.2211  0.3473
25624SOL    HW179764   8.664   5.357   1.628 -0.3122 -0.5553  2.4256
25624SOL    HW279765   8.614   5.499   1.606  1.2203 -0.3504  0.0108
25625SOL     OW79766   4.465   9.132   0.334 -0.0215  0.3077  0.5285
25625SOL    HW179767   4.485   9.205   0.275 -1.3676  0.1537 -0.1441
25625SOL    HW279768   4.370   9.124   0.331  0.1224 -1.8734  0.1032
25626SOL     OW79769   5.957   1.890   9.006 -0.3600  0.0947 -0.0110
25626SOL    HW179770   5.930   1.850   9.088 -2.7972  0.2827 -0.6365
25626SOL    HW279771   5.930   1.827   8.938  1.0478  0.2163 -0.7238
25627SOL     OW79772   6.523   4.733   7.610 -0.6673 -0.4648 -0.3350
25627SOL    HW179773   6.597   4.789   7.633 -1.9033  1.3180 -0.5019
25627SOL    HW279774   6.516   4.739   7.515 -0.1814 -1.7615 -0.4672
25628SOL     OW79775   8.140   5.418   5.230 -0.0972  0.0661  0.1407
25628SOL    HW179776   8.075   5.452   5.169 -1.6176  1.0006  2.1629
25628SOL    HW279777   8.199   5.492   5.245 -0.6098  0.3412  0.8925
25629SOL     OW79778   2.772   0.297   2.416 -0.1075  0.0840  0.0378
25629SOL    HW179779   2.679   0.314   2.398 -0.7316 -0.9602  1.9034
25629SOL    HW279780   2.795   0.359   2.485  0.9870  1.2023 -1.2914
25630SOL     OW79781   7.232   9.179   1.641  0.2507 -0.9149  0.2790
25630SOL    HW179782   7.285   9.164   1.564  0.0946  1.9212 -0.5104
25630SOL    HW279783   7.142   9.164   1.612  0.2981 -1.3115  0.3372
25631SOL     OW79784   8.217   4.117   8.501  0.2915  0.7095 -0.4601
25631SOL    HW179785   8.254   4.036   8.467 -0.7154 -0.0610  0.2011
25631SOL    HW279786   8.284   4.183   8.485  0.7577 -0.0584 -1.8471
25632SOL     OW79787   2.889   2.055   0.096  0.3365  0.5679  0.1338
25632SOL    HW179788   2.839   2.032   0.018 -0.0719  1.5526  0.0915
25632SOL    HW279789   2.981   2.054   0.067  0.1150  2.4010 -0.7864
25633SOL     OW79790   1.003   5.479   7.402 -0.8497  0.0310  0.3169
25633SOL    HW179791   1.089   5.439   7.389 -0.7019  0.4703 -0.1045
25633SOL    HW279792   0.943   5.424   7.350 -0.7815 -0.1290  0.4086
25634SOL     OW79793   3.538   9.042   5.570 -0.3142 -0.1488  0.0394
25634SOL    HW179794   3.572   9.101   5.503  0.2960  1.0774  1.3783
25634SOL    HW279795   3.602   8.971   5.574  0.1583  0.2728  0.0118
25635SOL     OW79796   5.762   1.180   5.317 -0.3722 -0.3492  0.2724
25635SOL    HW179797   5.704   1.231   5.372 -0.1818  1.2810 -0.9694
25635SOL    HW279798   5.842   1.170   5.369  0.2094  2.0900 -0.0385
25636SOL     OW79799   6.135   0.071   6.795 -0.1413 -0.3921  0.0346
25636SOL    HW179800   6.211   0.022   6.763 -0.7203 -1.5286  0.3325
25636SOL    HW279801   6.148   0.076   6.890 -0.8709 -1.4194  0.2115
25637SOL     OW79802   6.374   1.236   2.872  0.2501 -0.5182  0.6699
25637SOL    HW179803   6.447   1.186   2.907  1.4971 -1.0628 -2.4256
25637SOL    HW279804   6.304   1.171   2.859  0.8188 -0.9039 -0.5494
25638SOL     OW79805   1.419   6.967   4.561  0.3144  0.2269  0.1085
25638SOL    HW179806   1.344   6.910   4.579 -0.6961  1.2838 -0.6001
25638SOL    HW279807   1.443   6.946   4.471 -0.3953  1.2599 -0.3352
25639SOL     OW79808   9.130   1.712   7.206  0.2468  0.6805 -0.5401
25639SOL    HW179809   9.071   1.780   7.239 -1.3375 -1.3882  1.2093
25639SOL    HW279810   9.157   1.744   7.120 -2.9160  2.1020 -1.1673
25640SOL     OW79811   2.451   4.465   3.989 -0.6362  0.0926  0.0166
25640SOL    HW179812   2.362   4.433   3.971 -0.7265  1.4570 -2.4994
25640SOL    HW279813   2.439   4.558   4.010  0.1967  0.4021 -0.8032
25641SOL     OW79814   0.216   4.731   3.175  0.2541 -0.1722  0.5934
25641SOL    HW179815   0.178   4.815   3.201 -0.6194 -0.5497  0.5776
25641SOL    HW279816   0.295   4.723   3.228  0.2574  0.5824  0.7141
25642SOL     OW79817   3.698   4.220   7.707 -0.0487 -0.0951 -0.0691
25642SOL    HW179818   3.677   4.293   7.765  1.7726  1.0180 -0.7366
25642SOL    HW279819   3.787   4.194   7.733 -1.3222 -3.5036  1.5456
25643SOL     OW79820   0.138   3.074   7.642 -0.1664 -0.4835 -0.4137
25643SOL    HW179821   0.099   3.030   7.718 -0.6409  0.8804  0.1515
25643SOL    HW279822   0.074   3.062   7.572 -2.1437  2.4156  0.7024
25644SOL     OW79823   6.124   1.678   5.303 -0.8697 -0.0960 -0.3182
25644SOL    HW179824   6.182   1.713   5.236 -0.5783 -1.2564 -0.6987
25644SOL    HW279825   6.044   1.653   5.256 -0.2083 -2.0540 -0.4986
25645SOL     OW79826   5.353   7.257   8.365 -0.1375  0.8598 -0.3749
25645SOL    HW179827   5.435   7.223   8.402 -1.2260 -1.4713  0.0635
25645SOL    HW279828   5.289   7.188   8.383 -2.2603  2.7106 -0.5167
25646SOL     OW79829   2.365   6.242   0.095  0.4512  0.2554 -0.5046
25646SOL    HW179830   2.438   6.303   0.084  0.7534  0.0078  0.1024
25646SOL    HW279831   2.402   6.155   0.082 -0.1188  0.2049 -2.0569
25647SOL     OW79832   4.119   5.481   6.391  0.5828 -0.0991 -0.8173
25647SOL    HW179833   4.187   5.415   6.384 -0.7090 -1.5290 -0.4889
25647SOL    HW279834   4.091   5.496   6.300  1.8265  1.0845 -1.0356
25648SOL     OW79835   8.995   9.490   9.577 -0.2365 -0.9234  0.1233
25648SOL    HW179836   9.042   9.437   9.513  1.6456  0.5947  0.1513
25648SOL    HW279837   8.981   9.431   9.651  0.6041 -1.7415 -0.3464
25649SOL     OW79838   6.998   0.340   2.844  0.4276 -0.5186 -0.0853
25649SOL    HW179839   7.090   0.341   2.817  0.6186 -0.9135  0.5269
25649SOL    HW279840   7.000   0.367   2.936  0.0280 -1.4172  0.1933
25650SOL     OW79841   7.474   0.740   8.701  0.3023  0.4887 -0.4023
25650SOL    HW179842   7.490   0.709   8.612  0.1624  0.8172 -0.5444
25650SOL    HW279843   7.426   0.669   8.743  1.4378 -0.1880 -0.2076
25651SOL     OW79844   1.564   8.518   7.458  0.0621 -0.2315 -0.2615
25651SOL    HW179845   1.520   8.595   7.422 -0.6377 -0.4864  0.0469
25651SOL    HW279846   1.635   8.500   7.396  0.6575  1.0684  0.0218
25652SOL     OW79847   2.345   4.202   3.758  0.3468  0.1997 -0.2141
25652SOL    HW179848   2.291   4.163   3.827  1.4703 -0.2019  0.4534
25652SOL    HW279849   2.336   4.296   3.772 -0.0495  0.1371 -0.0122
25653SOL     OW79850   3.149   3.539   3.546 -0.1933  0.1478  0.0316
25653SOL    HW179851   3.172   3.627   3.517 -1.5290  1.1147  1.6707
25653SOL    HW279852   3.156   3.543   3.642  0.2620 -1.7107  0.1093
25654SOL     OW79853   2.141   2.980   7.897  0.2280  0.4625 -0.3480
25654SOL    HW179854   2.110   2.965   7.986 -0.4321  0.8010 -0.5186
25654SOL    HW279855   2.077   2.937   7.841  0.4609  0.5360 -0.6766
25655SOL     OW79856   7.157   4.555   0.745 -0.3689 -0.2139  0.1364
25655SOL    HW179857   7.225   4.488   0.736 -1.6953 -1.7787  1.1413
25655SOL    HW279858   7.096   4.536   0.674  0.1704  1.1523 -0.7333
25656SOL     OW79859   8.816   2.799   1.007 -1.0866 -0.2500  0.3040
25656SOL    HW179860   8.895   2.753   1.034 -0.6565  0.5288  0.3840
25656SOL    HW279861   8.811   2.785   0.912 -0.6952 -0.0498  0.2547
25657SOL     OW79862   5.555   6.390   4.934  0.2176 -0.2852  0.4880
25657SOL    HW179863   5.583   6.355   4.850 -2.7899 -0.3228 -0.6300
25657SOL    HW279864   5.534   6.313   4.986 -1.8700 -0.2928 -0.2792
25658SOL     OW79865   3.837   3.004   3.706  0.1157 -0.1684 -0.1295
25658SOL    HW179866   3.768   3.044   3.653 -1.3893  1.2914  2.6746
25658SOL    HW279867   3.898   3.076   3.725  0.6116 -0.6501  0.1373
25659SOL     OW79868   2.070   9.430   6.554  0.5155 -0.5394 -0.2277
25659SOL    HW179869   2.061   9.401   6.464 -1.8222 -1.1200  0.1117
25659SOL    HW279870   2.001   9.382   6.601  0.3072  1.2661  1.4463
25660SOL     OW79871   8.856   1.627   5.718 -0.0704 -0.2325  0.2529
25660SOL    HW179872   8.886   1.567   5.650  1.4808 -1.0728  1.6035
25660SOL    HW279873   8.762   1.612   5.724 -0.2204 -0.2770 -1.5255
25661SOL     OW79874   7.365   8.375   2.976 -0.2098 -0.2669  0.3285
25661SOL    HW179875   7.448   8.327   2.980 -0.4462 -0.6119  1.2582
25661SOL    HW279876   7.315   8.344   3.052 -1.2809 -0.2241 -0.3318
25662SOL     OW79877   1.919   6.971   3.989  0.3764  0.1598 -0.4329
25662SOL    HW179878   1.829   6.996   4.009  0.6149  0.6659  0.0267
25662SOL    HW279879   1.966   6.977   4.072  0.8408 -0.0839 -0.6690
25663SOL     OW79880   3.132   8.790   0.523  0.0442  0.4750 -0.4149
25663SOL    HW179881   3.105   8.881   0.535 -2.0421 -0.1336  0.0118
25663SOL    HW279882   3.170   8.765   0.607  0.6202  0.9328 -0.5329
25664SOL     OW79883   4.190   5.937   5.767  0.0979 -0.7324 -0.1383
25664SOL    HW179884   4.117   5.955   5.707  0.7196  0.1248 -0.6565
25664SOL    HW279885   4.153   5.878   5.832 -0.8808 -0.8462 -0.7749
25665SOL     OW79886   7.677   4.847   4.368  0.6282  0.3985  0.3191
25665SOL    HW179887   7.770   4.830   4.382  1.1932  0.7776 -2.4827
25665SOL    HW279888   7.654   4.797   4.290 -1.5116  0.4001  0.8933
25666SOL     OW79889   2.266   8.784   2.859 -0.6774 -0.1632 -0.1169
25666SOL    HW179890   2.255   8.809   2.951 -0.2025 -1.0086  0.1792
25666SOL    HW279891   2.306   8.697   2.862  2.6005  1.1627 -1.1124
25667SOL     OW79892   6.315   4.097   7.189  0.7542 -0.5052  0.1385
25667SOL    HW179893   6.371   4.170   7.214 -1.5405  1.6550 -0.6125
25667SOL    HW279894   6.292   4.055   7.272  0.2174  1.1402  0.8686
25668SOL     OW79895   6.373   6.954   3.476  0.2551 -0.1863  0.0894
25668SOL    HW179896   6.368   6.947   3.381 -1.3754 -1.7382  0.2269
25668SOL    HW279897   6.327   7.035   3.497  1.2441  0.5348 -0.4617
25669SOL     OW79898   6.835   5.691   7.532  0.5779  0.2940 -0.0231
25669SOL    HW179899   6.760   5.741   7.500  0.3487  0.0312  0.0920
25669SOL    HW279900   6.808   5.599   7.522  0.9733  0.1930 -0.1899
25670SOL     OW79901   8.060   6.640   5.632 -0.1017 -0.6813 -0.3954
25670SOL    HW179902   8.063   6.728   5.670 -0.5570 -0.6563 -0.4155
25670SOL    HW279903   7.982   6.599   5.670 -0.0942 -0.9528 -0.6592
25671SOL     OW79904   7.665   6.244   1.983  0.2893 -0.4060 -0.1614
25671SOL    HW179905   7.598   6.237   2.051 -0.5639 -0.7044 -1.0201
25671SOL    HW279906   7.729   6.306   2.019 -0.6121  0.1493  0.5329
25672SOL     OW79907   9.058   3.360   5.143  0.3542  0.1843 -0.4841
25672SOL    HW179908   9.094   3.282   5.186  1.3422  1.5273  1.2411
25672SOL    HW279909   9.063   3.339   5.049  1.7547 -1.3457 -0.1333
25673SOL     OW79910   5.083   1.443   8.049 -0.0974  0.4682 -0.5057
25673SOL    HW179911   5.139   1.369   8.074  2.7931  3.0367  1.4031
25673SOL    HW279912   5.025   1.456   8.124 -1.4853 -0.5521 -1.3645
25674SOL     OW79913   3.977   0.789   5.370  0.1978  0.0083  0.5901
25674SOL    HW179914   3.977   0.810   5.277  0.5136 -0.2686  0.5288
25674SOL    HW279915   3.924   0.710   5.377 -0.2090  0.2841  0.7062
25675SOL     OW79916   2.191   7.466   8.712  0.1083  0.2068  0.1811
25675SOL    HW179917   2.232   7.546   8.744  0.5810 -0.2434  0.7279
25675SOL    HW279918   2.153   7.490   8.627  0.1142  1.0400  0.4079
25676SOL     OW79919   8.124   9.466   3.330 -0.5688 -0.2975  0.2029
25676SOL    HW179920   8.151   9.408   3.400  2.0323  0.9628  0.3342
25676SOL    HW279921   8.061   9.526   3.371  0.5567  0.1234  1.3460
25677SOL     OW79922   6.128   9.179   3.456 -0.1712 -0.8565  0.3659
25677SOL    HW179923   6.121   9.228   3.538 -2.0641 -1.0377  0.3472
25677SOL    HW279924   6.162   9.094   3.483 -2.1469 -1.4428  1.2400
25678SOL     OW79925   6.286   4.655   8.378 -0.4707 -0.7998 -0.4458
25678SOL    HW179926   6.300   4.696   8.292 -1.6867 -0.5952 -0.5582
25678SOL    HW279927   6.197   4.620   8.374 -0.7759 -0.2466  0.9536
25679SOL     OW79928   0.258   3.664   0.466 -0.2117 -0.5255  0.0238
25679SOL    HW179929   0.343   3.622   0.454  1.0597  1.7343  0.6631
25679SOL    HW279930   0.238   3.651   0.558  0.6033  0.9273  0.4330
25680SOL     OW79931   9.007   3.109   7.388 -0.2160 -0.3748 -0.4223
25680SOL    HW179932   9.095   3.085   7.357 -0.7543 -1.7687 -0.9378
25680SOL    HW279933   8.992   3.196   7.350 -0.2476 -1.3961 -2.9139
25681SOL     OW79934   6.223   2.872   1.725  0.0936 -0.3766  0.1954
25681SOL    HW179935   6.314   2.881   1.695  0.6258  0.9486  1.9796
25681SOL    HW279936   6.171   2.912   1.656  0.9043 -0.6098 -0.5835
25682SOL     OW79937   3.546   1.044   7.843 -0.0929 -0.0444 -0.1383
25682SOL    HW179938   3.628   1.065   7.798 -0.0620  1.2040  0.4903
25682SOL    HW279939   3.570   0.976   7.906  0.3626 -0.0161 -0.2768
25683SOL     OW79940   9.153   3.882   6.747  0.3496 -0.0825 -0.4181
25683SOL    HW179941   9.134   3.827   6.670  1.1563 -0.0379 -0.6579
25683SOL    HW279942   9.231   3.843   6.785  0.1244  0.0786  0.2144
25684SOL     OW79943   3.882   2.541   9.484  0.1420  0.1104 -0.0077
25684SOL    HW179944   3.885   2.539   9.389  0.2215  0.4891 -0.0131
25684SOL    HW279945   3.931   2.619   9.509  1.4700 -0.8070  0.4142
25685SOL     OW79946   8.661   9.353   3.407  0.4517 -0.2035  0.1480
25685SOL    HW179947   8.660   9.447   3.391  0.2500 -0.1061  0.7150
25685SOL    HW279948   8.750   9.326   3.386  0.6430  0.1937  0.4425
25686SOL     OW79949   7.590   1.579   4.438 -0.0564 -0.0249 -0.7574
25686SOL    HW179950   7.576   1.527   4.517  1.0499  1.0932  0.1969
25686SOL    HW279951   7.633   1.659   4.468  2.4546 -0.4956 -2.7070
25687SOL     OW79952   7.962   3.598   5.999  0.1145 -0.2448 -0.4730
25687SOL    HW179953   8.001   3.547   5.928  1.2600  0.7729 -0.6092
25687SOL    HW279954   7.947   3.534   6.069 -0.9015 -1.2283 -1.5620
25688SOL     OW79955   3.376   5.422   0.923 -0.1732  0.0174 -0.0237
25688SOL    HW179956   3.372   5.387   0.834  0.9404  1.2923 -0.6260
25688SOL    HW279957   3.415   5.509   0.912 -0.3843  0.3608  1.6780
25689SOL     OW79958   7.551   3.879   0.348 -0.3527 -0.2271 -0.4435
25689SOL    HW179959   7.537   3.794   0.391 -0.0461 -0.4373 -0.7466
25689SOL    HW279960   7.478   3.886   0.286 -1.2269  0.4274  0.6290
25690SOL     OW79961   6.229   2.213   9.369 -0.4488 -0.4353  0.0454
25690SOL    HW179962   6.220   2.139   9.429 -1.1307 -0.7623 -0.4376
25690SOL    HW279963   6.206   2.177   9.283 -0.9082  0.3631 -0.1774
25691SOL     OW79964   9.365   4.986   3.187 -0.8001  0.0010 -0.0863
25691SOL    HW179965   9.432   5.054   3.195 -0.9133 -0.0156  1.2100
25691SOL    HW279966   9.285   5.034   3.163 -0.5318  0.1174 -0.7806
25692SOL     OW79967   2.099   5.898   5.492 -0.1144  0.3149 -0.2999
25692SOL    HW179968   2.081   5.990   5.512  0.3484 -0.0010  1.8564
25692SOL    HW279969   2.026   5.850   5.530 -0.8510 -0.1961 -2.2483
25693SOL     OW79970   5.293   0.392   3.963 -0.1370  0.3509  0.4969
25693SOL    HW179971   5.288   0.486   3.984 -2.8481 -0.0649  2.3208
25693SOL    HW279972   5.227   0.352   4.020 -0.3901 -2.4355 -1.5617
25694SOL     OW79973   6.128   7.447   1.370  0.0924  0.2447 -0.2772
25694SOL    HW179974   6.136   7.455   1.465 -0.2269  3.6234 -0.4016
25694SOL    HW279975   6.127   7.537   1.338  2.8019 -0.7133 -3.7726
25695SOL     OW79976   1.569   2.463   5.769  0.6897 -0.6652 -0.2856
25695SOL    HW179977   1.642   2.477   5.710  1.0432  0.5522  0.4090
25695SOL    HW279978   1.542   2.372   5.754  2.0765 -0.9969 -0.8371
25696SOL     OW79979   4.520   7.786   5.255 -0.2681 -0.6731  0.2516
25696SOL    HW179980   4.488   7.696   5.259  0.5716 -1.0905 -1.6355
25696SOL    HW279981   4.616   7.777   5.258 -0.1994  0.2403  1.1125
25697SOL     OW79982   8.831   4.952   1.233 -0.2188 -0.2631  0.0160
25697SOL    HW179983   8.784   5.024   1.190  1.3950  0.2178 -1.0285
25697SOL    HW279984   8.770   4.920   1.300 -2.6013 -0.6507 -2.2000
25698SOL     OW79985   9.385   1.486   8.710  0.4861  0.1273  0.3366
25698SOL    HW179986   9.385   1.430   8.633  0.3913 -1.3241  1.3634
25698SOL    HW279987   9.475   1.483   8.742  0.2042 -0.4374  1.0963
25699SOL     OW79988   4.064   0.396   5.637  0.1289  0.2141  0.1872
25699SOL    HW179989   4.146   0.446   5.643 -0.4394  1.3021 -0.6621
25699SOL    HW279990   4.001   0.449   5.686 -0.8709  1.2482 -2.0497
25700SOL     OW79991   7.140   8.502   5.967 -0.6028  0.4496 -0.1364
25700SOL    HW179992   7.204   8.570   5.945  0.4287 -0.4876 -0.1531
25700SOL    HW279993   7.153   8.486   6.060 -0.7131  0.1685 -0.1672
25701SOL     OW79994   3.231   6.405   3.598  0.2330 -0.2400  0.3149
25701SOL    HW179995   3.285   6.391   3.520 -1.2695 -1.6580 -0.5263
25701SOL    HW279996   3.208   6.497   3.594  0.0808 -0.3071 -1.0178
25702SOL     OW79997   4.430   0.156   8.561 -0.7793  0.3623 -0.7915
25702SOL    HW179998   4.371   0.220   8.521 -0.2660  2.1830  1.2103
25702SOL    HW279999   4.456   0.099   8.488 -0.7075  2.8211 -2.8169
25703SOL     OW80000   8.561   0.681   5.839 -0.5055 -0.5056 -0.8746
25703SOL    HW180001   8.575   0.611   5.776  1.9073  0.3749 -1.4337
25703SOL    HW280002   8.609   0.654   5.917 -0.8454 -0.1615 -0.5393
25704SOL     OW80003   2.622   4.115   8.732 -0.1649 -0.2784 -0.7519
25704SOL    HW180004   2.646   4.200   8.768  2.6308 -0.6767 -1.3913
25704SOL    HW280005   2.608   4.131   8.639 -0.7521 -0.3305 -0.6722
25705SOL     OW80006   4.375   8.263   6.339  0.6576  0.2431 -0.4889
25705SOL    HW180007   4.295   8.291   6.295  0.6069  0.5350 -0.2177
25705SOL    HW280008   4.408   8.343   6.380 -0.1251 -0.3036  1.3135
25706SOL     OW80009   3.904   2.580   4.179  0.3776 -0.2701 -0.3030
25706SOL    HW180010   3.829   2.530   4.146  0.3278  0.5305 -1.4554
25706SOL    HW280011   3.871   2.668   4.192  0.8640 -0.1551  0.1985
25707SOL     OW80012   7.679   4.705   4.801  0.5720 -0.2368 -0.1226
25707SOL    HW180013   7.607   4.744   4.753  0.0673 -0.5677  0.3554
25707SOL    HW280014   7.757   4.727   4.750  0.2193  0.7353 -0.2735
25708SOL     OW80015   2.250   0.034   1.693 -0.0754  0.0919 -0.4948
25708SOL    HW180016   2.259   0.128   1.680 -2.9622  0.2563 -2.3221
25708SOL    HW280017   2.156   0.021   1.706  0.1525 -2.6126 -0.9957
25709SOL     OW80018   5.308   6.200   4.735 -0.0992 -0.0504 -0.5734
25709SOL    HW180019   5.253   6.149   4.795  0.0047 -1.1515 -1.3996
25709SOL    HW280020   5.350   6.135   4.679 -0.2018  0.9601 -1.8676
25710SOL     OW80021   5.249   2.062   3.886  0.0445 -0.0004  0.2449
25710SOL    HW180022   5.212   2.144   3.920 -1.2156  0.0751 -1.2070
25710SOL    HW280023   5.172   2.009   3.865  0.8076 -2.1158  2.3432
25711SOL     OW80024   7.797   6.280   6.840  0.2062 -0.1899 -0.2588
25711SOL    HW180025   7.881   6.234   6.837 -0.3518 -1.3235  0.8021
25711SOL    HW280026   7.763   6.262   6.928 -1.1896  0.1790 -0.7046
25712SOL     OW80027   6.569   8.346   1.334 -0.4119  0.2123 -0.1963
25712SOL    HW180028   6.505   8.275   1.343  1.0763 -1.2905 -0.7114
25712SOL    HW280029   6.587   8.374   1.423 -1.6888  0.6053 -0.0403
25713SOL     OW80030   6.401   8.931   8.707 -0.6075  0.2859 -0.7065
25713SOL    HW180031   6.367   8.955   8.793  1.5609  1.8918 -0.2169
25713SOL    HW280032   6.448   8.849   8.723  0.3031  0.8921 -0.2027
25714SOL     OW80033   9.362   6.390   0.358 -0.2655 -0.5500  0.2606
25714SOL    HW180034   9.275   6.360   0.333 -0.0482 -1.4490  0.5363
25714SOL    HW280035   9.352   6.422   0.448 -0.0367 -2.0249  0.8422
25715SOL     OW80036   1.191   8.176   2.694 -0.2962  0.4652 -0.5522
25715SOL    HW180037   1.190   8.253   2.636  0.5839 -0.2362 -1.5279
25715SOL    HW280038   1.110   8.129   2.673  0.4722 -0.2990 -1.9669
25716SOL     OW80039   7.027   2.416   5.351  0.3036 -0.1709 -0.1823
25716SOL    HW180040   6.963   2.379   5.412  1.0476  0.9712  1.3627
25716SOL    HW280041   6.976   2.468   5.290 -0.5320 -1.9137 -1.0664
25717SOL     OW80042   2.735   1.947   8.161  0.5657  0.0668  0.8183
25717SOL    HW180043   2.654   1.897   8.149  0.6554 -0.3692  1.9267
25717SOL    HW280044   2.739   1.964   8.255  1.9736 -0.2557  0.8325
25718SOL     OW80045   2.065   1.705   5.522  0.1831  0.7652  0.0008
25718SOL    HW180046   2.069   1.677   5.431 -2.1806  0.8061 -0.1696
25718SOL    HW280047   2.089   1.627   5.572  0.6532  0.5041 -0.6184
25719SOL     OW80048   9.222   4.991   9.214 -0.0620 -0.2732 -0.1224
25719SOL    HW180049   9.178   5.076   9.206 -0.2245 -0.3895 -0.5043
25719SOL    HW280050   9.312   5.009   9.186 -0.2828 -0.3789 -0.9387
25720SOL     OW80051   3.597   4.837   3.925  0.1459 -0.7224  0.1388
25720SOL    HW180052   3.655   4.903   3.962 -0.2814 -0.3448  0.1410
25720SOL    HW280053   3.598   4.854   3.831 -0.4194 -0.3399  0.1989
25721SOL     OW80054   4.308   4.799   2.085  0.5069 -0.3019 -0.6373
25721SOL    HW180055   4.360   4.720   2.101 -2.2020 -1.6755  2.9531
25721SOL    HW280056   4.334   4.859   2.155 -0.6028  0.1455 -0.5901
25722SOL     OW80057   7.149   1.360   2.461  0.1381  0.2965 -0.6183
25722SOL    HW180058   7.207   1.393   2.530 -0.9537 -1.5568  1.3020
25722SOL    HW280059   7.061   1.366   2.499 -0.6763  0.6585 -2.4717
25723SOL     OW80060   9.157   3.210   5.647  0.6963 -0.1557 -0.0892
25723SOL    HW180061   9.089   3.222   5.713  1.6166 -2.5749  1.4241
25723SOL    HW280062   9.185   3.299   5.625 -2.8768  0.9452 -0.8231
25724SOL     OW80063   0.655   4.723   7.393  0.3308  0.1404 -0.3324
25724SOL    HW180064   0.713   4.798   7.409 -1.5097  1.5649 -0.0672
25724SOL    HW280065   0.571   4.748   7.431 -0.7588 -1.4747 -1.5201
25725SOL     OW80066   7.236   0.649   8.025  0.4576 -0.1491 -0.1321
25725SOL    HW180067   7.153   0.616   7.990  0.8624 -1.7761  0.3450
25725SOL    HW280068   7.213   0.731   8.069 -0.3088  1.2109 -2.8651
25726SOL     OW80069   4.651   2.903   4.284  0.1239 -0.0648  0.6059
25726SOL    HW180070   4.560   2.913   4.311 -0.8880 -1.7105 -1.8965
25726SOL    HW280071   4.689   2.991   4.296 -2.1240  0.9952  0.4689
25727SOL     OW80072   3.942   1.040   8.394 -0.6712 -0.5229 -0.1203
25727SOL    HW180073   3.959   1.065   8.303 -3.0540  0.6308 -0.3122
25727SOL    HW280074   3.998   1.098   8.446  0.8847 -1.3429 -0.7948
25728SOL     OW80075   8.108   3.520   0.800 -0.6159 -0.3083  0.6232
25728SOL    HW180076   8.195   3.480   0.796 -0.7383 -0.7182  1.6655
25728SOL    HW280077   8.084   3.536   0.709 -1.4586 -4.6238 -0.1340
25729SOL     OW80078   5.317   8.155   0.289 -0.4065 -0.0184 -0.0338
25729SOL    HW180079   5.377   8.095   0.245 -1.1961 -0.4278 -0.5998
25729SOL    HW280080   5.234   8.106   0.294 -1.4164  1.4055 -1.5776
25730SOL     OW80081   4.657   6.864   8.678 -0.4329 -0.1442 -0.5484
25730SOL    HW180082   4.630   6.864   8.586  0.2922 -1.5912 -0.7859
25730SOL    HW280083   4.710   6.785   8.688  2.5377  1.7676  0.2404
25731SOL     OW80084   4.630   6.794   2.741 -0.2292  0.3452 -0.6975
25731SOL    HW180085   4.615   6.788   2.836  1.6559 -1.0607 -0.3964
25731SOL    HW280086   4.544   6.780   2.702 -0.8374 -0.4910  0.8154
25732SOL     OW80087   2.654   2.157   5.999 -0.0836  0.4163 -0.0812
25732SOL    HW180088   2.684   2.119   5.916 -2.6898 -2.9706  0.3028
25732SOL    HW280089   2.645   2.250   5.981  0.2988 -0.0467 -3.3115
25733SOL     OW80090   6.588   8.665   3.205  0.0367  0.0038  0.3486
25733SOL    HW180091   6.492   8.668   3.201  0.0733  0.3997 -1.7675
25733SOL    HW280092   6.611   8.585   3.157  0.7682 -0.2675  1.1367
25734SOL     OW80093   2.774   8.780   2.715  0.4700  0.0455 -0.1610
25734SOL    HW180094   2.821   8.743   2.640  2.3007  1.1620  0.3741
25734SOL    HW280095   2.829   8.852   2.744 -0.6951  0.2475  1.6767
25735SOL     OW80096   3.668   0.659   8.450 -0.3816 -0.2504  0.4184
25735SOL    HW180097   3.726   0.725   8.488  2.5853 -0.5198 -3.0697
25735SOL    HW280098   3.712   0.575   8.468 -1.4782 -0.8303  0.4967
25736SOL     OW80099   8.966   6.098   3.758 -0.2395  0.6244 -0.3570
25736SOL    HW180100   9.021   6.155   3.811 -0.6838  1.4898 -0.8118
25736SOL    HW280101   9.001   6.010   3.773 -1.2114  0.6300  2.4286
25737SOL     OW80102   3.587   6.501   5.512 -0.1013 -0.2544 -0.1266
25737SOL    HW180103   3.516   6.495   5.447 -1.0660  0.2442  0.8373
25737SOL    HW280104   3.667   6.510   5.460 -0.8896  0.6032 -1.2387
25738SOL     OW80105   2.102   2.164   6.589  0.0601 -0.1016 -0.0064
25738SOL    HW180106   2.185   2.193   6.628 -0.0574  1.4060 -0.7943
25738SOL    HW280107   2.035   2.199   6.647 -0.0612  0.6825 -0.5883
25739SOL     OW80108   7.771   7.988   9.035  0.3514 -0.1134  0.3071
25739SOL    HW180109   7.825   8.068   9.034 -0.0317  0.1523 -1.3235
25739SOL    HW280110   7.728   7.987   8.950  0.2437 -2.0049  0.3392
25740SOL     OW80111   7.004   6.363   0.940  1.0594 -0.3179 -0.2708
25740SOL    HW180112   7.000   6.397   1.030 -0.4687  1.7662 -1.0550
25740SOL    HW280113   7.095   6.375   0.914  1.2403  0.2688  0.5798
25741SOL     OW80114   6.495   8.009   8.610 -0.0195 -0.0393 -0.1277
25741SOL    HW180115   6.477   8.030   8.519  0.3657 -1.0757 -0.4619
25741SOL    HW280116   6.590   7.996   8.613  0.1495  1.2273  0.6987
25742SOL     OW80117   2.099   3.544   7.905  0.2439 -0.6910 -0.3780
25742SOL    HW180118   2.133   3.633   7.913 -1.0330 -0.1371 -0.8460
25742SOL    HW280119   2.176   3.491   7.884  0.9568  0.3753 -0.5405
25743SOL     OW80120   3.649   9.124   8.939 -0.6058 -0.5394  0.0381
25743SOL    HW180121   3.622   9.212   8.913 -2.6041 -1.7927 -2.5133
25743SOL    HW280122   3.671   9.132   9.032  1.7411  3.1437 -0.6428
25744SOL     OW80123   5.345   1.339   0.446  0.1796 -0.1352  0.2887
25744SOL    HW180124   5.322   1.407   0.382  0.8817 -1.0138 -0.9382
25744SOL    HW280125   5.274   1.341   0.510  0.7600  2.5376  0.9547
25745SOL     OW80126   3.951   2.457   5.652 -0.6238  0.3491  0.3418
25745SOL    HW180127   3.916   2.545   5.660  0.9696  1.3493 -2.3416
25745SOL    HW280128   4.037   2.461   5.694 -0.0831  0.4400 -0.7286
25746SOL     OW80129   8.695   5.860   3.029  0.3731  0.0728  0.0765
25746SOL    HW180130   8.609   5.893   3.052  1.0062  0.7752  1.5610
25746SOL    HW280131   8.755   5.906   3.088  1.6942 -0.8553 -0.4979
25747SOL     OW80132   6.840   5.529   3.739 -0.5226 -0.2856  0.9667
25747SOL    HW180133   6.871   5.524   3.829 -0.7433  0.8188  1.1131
25747SOL    HW280134   6.797   5.614   3.733 -0.4404 -0.3135 -0.2086
25748SOL     OW80135   2.919   1.079   5.321  0.0510 -0.2545  1.2731
25748SOL    HW180136   2.823   1.077   5.316  0.1083 -2.1328  0.0231
25748SOL    HW280137   2.937   1.109   5.410 -1.5821  4.1744  0.3798
25749SOL     OW80138   8.180   3.360   5.289  0.6537  0.1181  0.2248
25749SOL    HW180139   8.261   3.385   5.332  1.0946  1.0140 -1.0472
25749SOL    HW280140   8.151   3.281   5.334  2.0409 -0.0073  0.9302
25750SOL     OW80141   5.273   4.593   9.477  0.0980  0.6060 -0.6784
25750SOL    HW180142   5.340   4.659   9.458  0.4974  0.2025 -0.7150
25750SOL    HW280143   5.320   4.510   9.469  0.3803  0.3788  2.2919
25751SOL     OW80144   1.695   1.615   0.759 -0.2550  0.1027 -0.8801
25751SOL    HW180145   1.665   1.627   0.849 -0.5246 -0.0539 -0.9499
25751SOL    HW280146   1.642   1.543   0.725  1.9711 -2.0442 -0.1604
25752SOL     OW80147   3.215   8.147   4.971  0.6814  0.1291  0.4806
25752SOL    HW180148   3.222   8.078   5.036 -0.9518 -1.6442 -1.0893
25752SOL    HW280149   3.249   8.108   4.890  1.8118  1.9507  0.0198
25753SOL     OW80150   2.277   7.123   0.884 -0.1936  0.4629  0.2060
25753SOL    HW180151   2.317   7.173   0.813  2.0512 -2.1216 -0.5345
25753SOL    HW280152   2.299   7.172   0.964  2.0998  0.6404 -0.4636
25754SOL     OW80153   7.894   3.164   8.795 -0.1627 -0.0923  0.4651
25754SOL    HW180154   7.917   3.214   8.874  0.5390 -2.1526  1.6447
25754SOL    HW280155   7.978   3.140   8.756 -0.4374 -1.0598  0.4329
25755SOL     OW80156   2.051   4.472   4.337 -0.5762  0.4735  0.6730
25755SOL    HW180157   2.051   4.380   4.311  2.1208  0.6189 -0.1206
25755SOL    HW280158   1.959   4.493   4.351 -1.2264 -2.5339  1.6543
25756SOL     OW80159   6.122   6.541   3.876  0.4376 -0.2245  0.0531
25756SOL    HW180160   6.193   6.514   3.818  0.8231 -0.7046  0.7307
25756SOL    HW280161   6.051   6.480   3.857  0.5245 -0.3123  0.0107
25757SOL     OW80162   3.535   2.850   0.548  0.3514 -0.0738 -0.6409
25757SOL    HW180163   3.513   2.831   0.639 -2.2644  1.6394 -0.8294
25757SOL    HW280164   3.589   2.929   0.551 -1.2865  1.0900 -0.6046
25758SOL     OW80165   8.455   8.268   7.318  0.4748  0.0690  0.3753
25758SOL    HW180166   8.549   8.281   7.304  0.4248  0.5140  0.4366
25758SOL    HW280167   8.414   8.327   7.254  0.2373 -0.3313  0.1572
25759SOL     OW80168   3.908   3.876   4.376  0.1768 -0.3928 -0.3133
25759SOL    HW180169   3.948   3.950   4.421  0.6494 -1.2922  0.7792
25759SOL    HW280170   3.962   3.864   4.298  1.2857 -0.8108  0.5107
25760SOL     OW80171   5.952   4.685   2.121 -0.0267 -0.0719  0.4209
25760SOL    HW180172   6.001   4.761   2.152 -2.4889  1.7215  0.2419
25760SOL    HW280173   5.958   4.690   2.026  2.1446 -1.8153  0.4076
25761SOL     OW80174   9.489   1.901   4.901 -0.0168 -0.3587  0.7972
25761SOL    HW180175   9.522   1.812   4.889 -1.5446 -0.9349  0.6501
25761SOL    HW280176   9.405   1.891   4.945 -0.4207  0.9801  0.4073
25762SOL     OW80177   4.533   5.530   7.075 -0.5452  0.5448  0.1045
25762SOL    HW180178   4.627   5.519   7.058 -0.6777 -1.9444  0.5429
25762SOL    HW280179   4.528   5.554   7.167 -0.3169  1.3380 -0.0874
25763SOL     OW80180   8.307   4.394   6.611 -0.2922  0.7542  0.7761
25763SOL    HW180181   8.322   4.381   6.704 -0.3120  3.6741  1.2760
25763SOL    HW280182   8.339   4.483   6.593 -1.5855  0.8187 -1.7017
25764SOL     OW80183   9.491   4.361   3.461 -0.4722 -0.9020 -0.5397
25764SOL    HW180184   9.572   4.407   3.441  0.1626 -2.7553 -2.6515
25764SOL    HW280185   9.425   4.403   3.405 -0.9991  0.4690  1.0265
25765SOL     OW80186   1.912   6.534   0.902  0.2081 -0.8938  0.4024
25765SOL    HW180187   1.864   6.586   0.966  2.1617 -0.0457  1.2635
25765SOL    HW280188   1.937   6.596   0.834  1.2497 -0.9821  0.6771
25766SOL     OW80189   3.657   6.763   4.680  0.7062  0.3204  0.1952
25766SOL    HW180190   3.631   6.706   4.753  2.7529  0.8934  1.4622
25766SOL    HW280191   3.625   6.849   4.706  1.2064  0.4765  0.2977
25767SOL     OW80192   8.142   6.196   8.404  0.2719 -0.3192 -0.4500
25767SOL    HW180193   8.196   6.222   8.329 -1.1910  0.4768 -1.2578
25767SOL    HW280194   8.147   6.270   8.464 -0.0070 -0.2040 -0.5701
25768SOL     OW80195   5.369   7.065   1.575 -0.4739 -0.2184 -0.2658
25768SOL    HW180196   5.389   7.140   1.520 -2.2324  3.0626  3.0784
25768SOL    HW280197   5.275   7.052   1.563 -0.5422 -0.5938  0.6416
25769SOL     OW80198   9.380   9.062   6.836 -0.4544  0.1575  0.6523
25769SOL    HW180199   9.456   9.120   6.845 -0.0188 -0.5210  1.3776
25769SOL    HW280200   9.369   9.022   6.922 -1.5016  0.0720  0.4930
25770SOL     OW80201   6.592   5.337   2.384  0.2458  0.3577  0.4198
25770SOL    HW180202   6.509   5.380   2.405 -0.3448 -0.3619 -0.3626
25770SOL    HW280203   6.658   5.406   2.394 -0.6645  1.4306 -0.7365
25771SOL     OW80204   1.130   1.373   8.239  0.0329 -0.0512  0.2048
25771SOL    HW180205   1.077   1.439   8.194  2.6490  1.4273 -0.8796
25771SOL    HW280206   1.149   1.413   8.324  0.0964 -0.2270  0.2732
25772SOL     OW80207   3.894   3.863   3.193 -0.7492  0.0136  0.0633
25772SOL    HW180208   3.972   3.807   3.188 -2.2204 -2.2991  1.3349
25772SOL    HW280209   3.929   3.952   3.191  1.8079 -0.9008 -0.8074
25773SOL     OW80210   5.100   2.390   9.065  0.4307  0.6428 -0.8056
25773SOL    HW180211   5.055   2.381   8.980  0.8917 -0.1830 -0.9620
25773SOL    HW280212   5.188   2.420   9.042  0.8871 -0.5888 -0.6904
25774SOL     OW80213   9.472   3.048   6.986  0.2156  0.2546 -0.3994
25774SOL    HW180214   9.539   3.087   6.929  0.8524  1.2908  0.9750
25774SOL    HW280215   9.390   3.089   6.959  0.4130  0.3132 -0.9219
25775SOL     OW80216   4.069   4.717   2.180 -0.0611 -0.0494  0.0931
25775SOL    HW180217   4.145   4.763   2.145 -1.2131  1.3680 -0.6420
25775SOL    HW280218   4.055   4.756   2.266 -0.3210  0.1349 -0.0317
25776SOL     OW80219   1.444   5.035   8.442  0.6844  0.2317  0.3382
25776SOL    HW180220   1.448   5.086   8.523 -0.8028 -0.3611  0.7977
25776SOL    HW280221   1.487   4.952   8.463 -0.6869 -0.3664  0.8846
25777SOL     OW80222   7.614   6.419   7.906  0.2631 -0.1438  0.3874
25777SOL    HW180223   7.657   6.448   7.826 -1.0288  1.2399  0.1433
25777SOL    HW280224   7.579   6.332   7.885 -0.7104  0.5039 -0.8392
25778SOL     OW80225   0.376   0.789   0.569 -0.7742 -0.1995 -0.3533
25778SOL    HW180226   0.392   0.698   0.545 -1.8398 -0.6960  0.6596
25778SOL    HW280227   0.283   0.802   0.552 -1.3299 -0.2348  2.1738
25779SOL     OW80228   1.117   8.709   7.479  0.0479  0.1614  0.2167
25779SOL    HW180229   1.111   8.666   7.564  0.3244  1.1312  0.7342
25779SOL    HW280230   1.135   8.801   7.499  0.3895  0.3521 -0.8954
25780SOL     OW80231   9.323   5.925   6.057  0.3802  0.2113 -0.5046
25780SOL    HW180232   9.398   5.935   6.116 -1.1283  0.7972  1.4141
25780SOL    HW280233   9.302   6.015   6.029  0.6745  0.0007 -1.4496
25781SOL     OW80234   1.985   5.642   5.283 -0.6088  0.0176  0.7237
25781SOL    HW180235   2.041   5.587   5.337 -1.0762  0.8934  2.1586
25781SOL    HW280236   2.024   5.638   5.196  2.0528  1.0545  1.7789
25782SOL     OW80237   1.814   6.570   8.851 -0.4083  0.7690  0.2331
25782SOL    HW180238   1.740   6.532   8.898  0.2618  0.1564  0.8087
25782SOL    HW280239   1.891   6.537   8.897  0.2129  1.9656  0.0817
25783SOL     OW80240   9.524   5.624   0.164  0.1791  0.1124 -0.1026
25783SOL    HW180241   9.615   5.594   0.172  0.2056  0.3627  0.5477
25783SOL    HW280242   9.496   5.641   0.254 -1.3937 -2.5526  0.0201
25784SOL     OW80243   2.112   3.507   2.455  0.3446  0.4525 -0.0616
25784SOL    HW180244   2.031   3.469   2.491  0.3749 -0.5482 -1.0273
25784SOL    HW280245   2.104   3.600   2.474  0.3525  0.0231  2.5486
25785SOL     OW80246   3.702   6.201   8.285  0.4659 -0.2567  0.5877
25785SOL    HW180247   3.710   6.242   8.199  1.5379  1.5117  1.4465
25785SOL    HW280248   3.636   6.254   8.330  0.9291 -0.2639  1.2966
25786SOL     OW80249   5.315   0.607   6.095 -0.2206  0.4679 -0.3421
25786SOL    HW180250   5.400   0.603   6.139 -1.1599 -0.7346  1.5128
25786SOL    HW280251   5.268   0.677   6.140 -0.3222  0.9883 -1.2222
25787SOL     OW80252   0.038   3.811   9.407  0.3645 -0.1347  0.1523
25787SOL    HW180253   0.026   3.777   9.496 -1.4970  0.1735  0.0660
25787SOL    HW280254   0.002   3.742   9.351  0.8220  0.0085 -0.3159
25788SOL     OW80255   4.207   2.255   1.538  0.5393 -0.3576  0.2686
25788SOL    HW180256   4.237   2.345   1.532  0.5896 -0.3315  0.8777
25788SOL    HW280257   4.276   2.204   1.493  0.2182 -0.0446 -0.6020
25789SOL     OW80258   5.885   7.593   7.852 -0.4753  0.2303 -0.4345
25789SOL    HW180259   5.839   7.535   7.792  0.0937 -1.2652  0.5020
25789SOL    HW280260   5.861   7.560   7.939 -1.3314  2.3671  0.2101
25790SOL     OW80261   5.880   1.027   1.043  0.2936 -0.8025 -0.1137
25790SOL    HW180262   5.827   0.993   0.972 -0.8935  0.6913 -0.0060
25790SOL    HW280263   5.923   1.105   1.006 -0.7148  0.2740  0.8833
25791SOL     OW80264   8.706   5.538   8.424 -0.7822 -0.0791  0.2076
25791SOL    HW180265   8.655   5.604   8.378 -1.6614 -0.7026  0.2637
25791SOL    HW280266   8.649   5.510   8.496 -0.2137 -0.5376  0.4868
25792SOL     OW80267   4.701   7.109   1.617 -0.0602 -0.4226  0.0422
25792SOL    HW180268   4.658   7.187   1.581 -1.5229 -0.6400  1.2118
25792SOL    HW280269   4.752   7.142   1.691  0.5821 -0.3823 -0.4087
25793SOL     OW80270   6.636   7.970   6.402  0.2058  0.6887 -0.3191
25793SOL    HW180271   6.671   8.014   6.325 -0.8572  1.7167 -0.2484
25793SOL    HW280272   6.678   7.884   6.402  0.7224  0.9153 -1.6685
25794SOL     OW80273   1.395   6.205   8.339 -0.0650  0.0717  0.1471
25794SOL    HW180274   1.490   6.218   8.342 -0.2624  1.6993  0.2801
25794SOL    HW280275   1.360   6.290   8.312 -1.4719 -0.6012 -0.2412
25795SOL     OW80276   7.964   3.830   4.472 -0.8043  0.2722  0.7147
25795SOL    HW180277   8.042   3.785   4.441 -1.7250  0.2995 -1.9111
25795SOL    HW280278   7.970   3.826   4.567  1.5624 -1.1136  0.5829
25796SOL     OW80279   8.869   8.011   4.301 -0.3127 -0.2922 -0.5649
25796SOL    HW180280   8.857   7.922   4.336  1.4734 -0.0728  0.7820
25796SOL    HW280281   8.875   8.066   4.379 -2.2090  1.1974 -1.3825
25797SOL     OW80282   2.743   2.722   3.153  0.6914  0.2320 -0.0926
25797SOL    HW180283   2.830   2.687   3.136  1.2668  0.8718  1.4277
25797SOL    HW280284   2.737   2.800   3.099 -0.0797 -1.3344 -2.4385
25798SOL     OW80285   0.941   1.308   9.331 -0.0481 -0.2170  0.3438
25798SOL    HW180286   0.986   1.390   9.350  1.7549 -0.7746 -1.1392
25798SOL    HW280287   0.863   1.333   9.282  1.3006  0.5907 -1.4982
25799SOL     OW80288   2.999   0.447   5.075 -0.6397  0.6247 -0.2007
25799SOL    HW180289   3.055   0.469   5.150  0.3644  0.6828 -0.9381
25799SOL    HW280290   2.969   0.358   5.093  1.2627 -0.1631 -0.6712
25800SOL     OW80291   0.406   5.295   5.061  0.1470  0.6422 -0.1188
25800SOL    HW180292   0.392   5.389   5.071 -0.8421  0.5727 -0.6645
25800SOL    HW280293   0.405   5.280   4.966 -0.6006 -0.0202 -0.0254
25801SOL     OW80294   2.293   0.288   4.859 -0.3169  0.7054 -0.0024
25801SOL    HW180295   2.251   0.338   4.929 -1.8985 -1.0658  0.3873
25801SOL    HW280296   2.369   0.341   4.834  1.6072  0.4224  4.4563
25802SOL     OW80297   1.262   1.728   6.184 -0.4566 -0.3502  0.1589
25802SOL    HW180298   1.249   1.819   6.208 -1.4076 -0.0767 -1.2353
25802SOL    HW280299   1.357   1.717   6.179 -0.3285  0.4795  0.6024
25803SOL     OW80300   4.377   0.231   2.210 -0.8047  0.6068 -0.7610
25803SOL    HW180301   4.296   0.181   2.195  0.2564 -1.4776 -0.0374
25803SOL    HW280302   4.444   0.163   2.221  1.2424  2.2762 -2.2585
25804SOL     OW80303   7.326   1.808   6.968  0.0125  0.1943 -0.6722
25804SOL    HW180304   7.404   1.753   6.964 -0.8982 -1.0501 -1.9864
25804SOL    HW280305   7.361   1.897   6.979  1.5360 -0.5125  0.6387
25805SOL     OW80306   7.186   3.154   8.386 -0.0623  0.3102 -0.1214
25805SOL    HW180307   7.210   3.233   8.337 -1.0637 -0.1772 -1.4493
25805SOL    HW280308   7.165   3.186   8.474  0.7704  1.3466 -0.2772
25806SOL     OW80309   0.643   4.582   1.862 -0.3405 -0.5700  0.3843
25806SOL    HW180310   0.593   4.517   1.911 -0.8444 -0.5842 -0.1300
25806SOL    HW280311   0.658   4.540   1.777  1.1489 -0.8425  0.7546
25807SOL     OW80312   1.012   5.223   6.254 -0.1757 -0.0417 -0.5458
25807SOL    HW180313   0.997   5.150   6.315 -0.3504  0.4567  0.0138
25807SOL    HW280314   0.960   5.295   6.290  1.9334  1.1322  0.3131
25808SOL     OW80315   1.603   4.998   7.370  0.1373  0.2129 -0.5431
25808SOL    HW180316   1.534   4.982   7.306 -0.8545 -0.7910  0.7152
25808SOL    HW280317   1.614   4.915   7.415  2.4198  0.2584 -0.8841
25809SOL     OW80318   5.788   1.060   4.202 -0.3109 -0.0296 -0.0391
25809SOL    HW180319   5.845   1.007   4.259 -0.5178 -0.5641 -0.3224
25809SOL    HW280320   5.720   1.093   4.260  0.2197  0.5237  0.2832
25810SOL     OW80321   7.593   0.163   1.866 -0.3355  0.2493  0.4655
25810SOL    HW180322   7.622   0.204   1.785 -1.9940 -0.7952 -0.7194
25810SOL    HW280323   7.667   0.173   1.926  1.5105 -0.1738 -1.6184
25811SOL     OW80324   2.584   5.499   5.626  0.2330  0.6248 -0.0283
25811SOL    HW180325   2.537   5.415   5.620  2.0910 -0.3819 -1.9454
25811SOL    HW280326   2.523   5.557   5.671 -2.2202 -1.0191 -0.9970
25812SOL     OW80327   4.856   1.772   6.262 -0.5325 -0.3541  0.1322
25812SOL    HW180328   4.831   1.812   6.179  1.7464  2.2451  0.5579
25812SOL    HW280329   4.936   1.723   6.242  1.1411  1.8585  1.0352
25813SOL     OW80330   0.822   3.003   5.306  0.0524  0.9564  0.6712
25813SOL    HW180331   0.789   3.018   5.217 -1.4533  0.4361  1.1159
25813SOL    HW280332   0.747   3.019   5.363  1.1182  1.7366  1.9096
25814SOL     OW80333   2.233   4.005   9.427 -0.4217 -0.6046  0.0786
25814SOL    HW180334   2.293   4.009   9.353  1.0078 -0.3450  1.2027
25814SOL    HW280335   2.197   4.094   9.433  0.6120 -0.2025  0.5886
25815SOL     OW80336   2.983   6.206   1.507  0.4017 -0.0445  0.0414
25815SOL    HW180337   3.000   6.273   1.440  1.2051 -1.0994 -0.8578
25815SOL    HW280338   2.900   6.166   1.480 -0.0261  0.5167  0.5205
25816SOL     OW80339   8.579   5.343   3.932 -0.2953  0.3096 -0.1683
25816SOL    HW180340   8.523   5.399   3.879 -1.1695 -0.8064 -0.4803
25816SOL    HW280341   8.583   5.387   4.017  1.0657  2.0751 -1.0888
25817SOL     OW80342   0.975   8.474   6.349  0.2810  0.3625 -0.0389
25817SOL    HW180343   0.911   8.404   6.360 -0.6829  1.5857  3.3947
25817SOL    HW280344   0.931   8.537   6.291 -0.9472  0.3673  0.8615
25818SOL     OW80345   4.609   8.794   0.877  0.3405  0.2328 -0.4092
25818SOL    HW180346   4.599   8.761   0.967 -0.6467  1.4354 -0.0466
25818SOL    HW280347   4.655   8.724   0.831  3.8077  0.8341  1.7825
25819SOL     OW80348   0.024   6.943   9.315 -0.0916 -0.3657 -0.1031
25819SOL    HW180349  -0.061   6.984   9.322 -0.0527 -0.3622  0.3677
25819SOL    HW280350   0.084   7.014   9.293 -0.0404 -0.1864  0.6095
25820SOL     OW80351   4.651   4.117   1.048 -0.0386 -0.7216  0.3774
25820SOL    HW180352   4.732   4.070   1.070  0.5194  0.1883  0.3173
25820SOL    HW280353   4.627   4.162   1.129 -1.2718 -2.0851  0.8075
25821SOL     OW80354   7.156   1.459   6.639  0.3691 -0.0909  0.2825
25821SOL    HW180355   7.113   1.499   6.563  1.2933 -3.7010 -2.3976
25821SOL    HW280356   7.084   1.440   6.699 -0.6416  1.2028 -0.4550
25822SOL     OW80357   7.097   7.234   8.262 -0.2642  0.4275  0.0927
25822SOL    HW180358   7.076   7.303   8.325 -0.1680 -1.8838  2.8565
25822SOL    HW280359   7.014   7.190   8.247  0.1176 -0.4447  0.4571
25823SOL     OW80360   3.304   0.576   4.784  0.4308  0.2317 -0.2610
25823SOL    HW180361   3.225   0.600   4.833  0.3533  0.3573 -0.4490
25823SOL    HW280362   3.284   0.599   4.694 -1.5054 -4.6154 -1.4487
25824SOL     OW80363   4.934   1.681   8.525  0.5886  0.6819 -0.0020
25824SOL    HW180364   5.016   1.658   8.483  0.1681  2.3202 -1.8554
25824SOL    HW280365   4.937   1.637   8.610  2.4140 -1.0024 -0.8806
25825SOL     OW80366   6.415   9.374   5.027 -0.1137  0.3525  0.7631
25825SOL    HW180367   6.419   9.461   4.987  0.5937 -0.2858 -0.6085
25825SOL    HW280368   6.490   9.327   4.991 -1.1328 -1.2004  0.5770
25826SOL     OW80369   8.162   1.751   2.772  0.4857  0.6684  0.1257
25826SOL    HW180370   8.233   1.784   2.717 -0.4833  0.1996 -1.4797
25826SOL    HW280371   8.167   1.805   2.852  2.5267  0.7274  0.0183
25827SOL     OW80372   5.730   8.484   6.733  0.0393 -0.2868 -0.1562
25827SOL    HW180373   5.694   8.507   6.648 -1.6301  0.8259  0.7890
25827SOL    HW280374   5.808   8.538   6.742  0.2393 -0.4274 -0.9671
25828SOL     OW80375   5.507   5.121   0.037 -0.5107  0.3209  0.1844
25828SOL    HW180376   5.475   5.191  -0.019 -0.2445 -0.6147 -1.1925
25828SOL    HW280377   5.600   5.115   0.017 -0.4644 -0.2194  0.5356
25829SOL     OW80378   2.732   9.417   0.293 -0.3141 -0.6523  0.0815
25829SOL    HW180379   2.726   9.326   0.265 -0.6238 -0.3927 -0.7264
25829SOL    HW280380   2.641   9.448   0.294 -0.4873 -0.9811  2.6275
25830SOL     OW80381   5.418   0.952   8.184 -0.0954  0.7513 -0.0205
25830SOL    HW180382   5.444   0.892   8.114 -0.5276  1.5086 -0.8526
25830SOL    HW280383   5.331   0.921   8.211 -0.3980  1.1035 -0.5769
25831SOL     OW80384   5.796   1.658   2.656  0.2044  0.5928  0.0775
25831SOL    HW180385   5.800   1.573   2.700  0.2178  1.1892  1.2613
25831SOL    HW280386   5.833   1.642   2.569 -0.6970 -0.8209 -0.0764
25832SOL     OW80387   1.712   3.097   5.582  0.1836 -0.3106  0.4366
25832SOL    HW180388   1.621   3.127   5.588  0.8167  1.7136  0.8147
25832SOL    HW280389   1.710   3.007   5.615 -1.2984  0.5480  2.9698
25833SOL     OW80390   6.595   4.292   6.179 -0.0985  0.3887  0.4837
25833SOL    HW180391   6.680   4.329   6.203  0.2238  1.0474 -1.5226
25833SOL    HW280392   6.531   4.346   6.226  0.5487  0.1293  1.7010
25834SOL     OW80393   2.284   7.821   6.513 -0.3544 -0.1040  0.4833
25834SOL    HW180394   2.194   7.805   6.539 -0.5607 -1.8241 -1.0556
25834SOL    HW280395   2.279   7.839   6.419  1.0920 -3.4239 -0.3818
25835SOL     OW80396   2.214   5.431   4.663  0.2677  0.7368 -0.5991
25835SOL    HW180397   2.269   5.510   4.663  1.0171  0.2337 -1.1400
25835SOL    HW280398   2.247   5.379   4.589  0.2767 -0.4121  0.1801
25836SOL     OW80399   9.222   2.860   8.381 -0.4585  0.1148  0.3572
25836SOL    HW180400   9.203   2.770   8.357  0.1422 -0.8750  3.2818
25836SOL    HW280401   9.255   2.900   8.300 -1.1280 -2.1252 -1.0969
25837SOL     OW80402   5.421   2.059   4.190 -0.1644 -0.1366  0.2453
25837SOL    HW180403   5.355   1.995   4.163  1.1719 -1.2246 -0.5609
25837SOL    HW280404   5.388   2.142   4.157 -1.1096 -0.6641 -0.1839
25838SOL     OW80405   1.058   4.301   9.303  0.8908  0.1300 -0.1866
25838SOL    HW180406   0.992   4.259   9.357 -0.3154  1.5158 -0.5170
25838SOL    HW280407   1.128   4.236   9.295 -0.6175 -1.5755 -0.2118
25839SOL     OW80408   8.215   3.230   2.572  0.5817 -0.1634 -0.0540
25839SOL    HW180409   8.213   3.201   2.481 -0.2352 -0.9852  0.2067
25839SOL    HW280410   8.202   3.150   2.623  0.9920  0.2893  0.7921
25840SOL     OW80411   3.567   1.889   6.868  0.1969 -0.3677 -0.2271
25840SOL    HW180412   3.546   1.800   6.839  0.6096 -0.0230 -1.6899
25840SOL    HW280413   3.599   1.932   6.789  0.0653  1.0683  0.4835
25841SOL     OW80414   3.006   3.048   0.994  0.3536  0.2120 -0.7393
25841SOL    HW180415   2.936   3.101   1.032 -1.3897 -1.1248 -1.9086
25841SOL    HW280416   2.989   2.960   1.026  1.2936 -0.2088 -1.3555
25842SOL     OW80417   5.843   8.928   1.668 -0.5885  0.2562 -0.4558
25842SOL    HW180418   5.846   9.022   1.683 -1.1012  0.4291 -1.3530
25842SOL    HW280419   5.805   8.891   1.748  0.2974  0.7283  0.1904
25843SOL     OW80420   5.888   1.869   9.441 -0.0060 -0.2835  1.3273
25843SOL    HW180421   5.878   1.851   9.348  1.7811  0.1396  1.0039
25843SOL    HW280422   5.889   1.783   9.483 -1.2922 -0.4567  1.0375
25844SOL     OW80423   7.050   8.202   8.656  0.0045 -0.4141  0.5717
25844SOL    HW180424   7.017   8.150   8.730 -1.2743 -0.8606 -0.2729
25844SOL    HW280425   7.040   8.144   8.581  2.8023 -0.5785  0.2321
25845SOL     OW80426   3.656   6.577   3.533 -0.3073  0.2632  0.1880
25845SOL    HW180427   3.635   6.512   3.600  0.7302 -1.8508 -1.4075
25845SOL    HW280428   3.574   6.625   3.519 -1.3532 -1.2307  0.8943
25846SOL     OW80429   6.002   7.081   5.653  0.5812  0.4813  0.0279
25846SOL    HW180430   6.054   7.036   5.587 -0.5703 -1.5047  0.4115
25846SOL    HW280431   6.061   7.090   5.728  1.2140  0.7903 -0.4989
25847SOL     OW80432   7.952   4.400   8.010  0.4391  0.4099 -0.1653
25847SOL    HW180433   7.931   4.389   7.918 -1.4656  0.0691  0.2548
25847SOL    HW280434   7.995   4.486   8.015  1.1458  0.1515 -1.4184
25848SOL     OW80435   5.709   6.677   8.076 -0.1959 -0.5669  0.6594
25848SOL    HW180436   5.672   6.706   8.159 -3.4069  1.8056 -1.3512
25848SOL    HW280437   5.636   6.681   8.014  2.5103  0.2823 -2.8383
25849SOL     OW80438   6.480   5.770   0.476 -0.3779  0.3658 -0.1362
25849SOL    HW180439   6.491   5.855   0.520  0.3226  0.7167 -0.9509
25849SOL    HW280440   6.417   5.788   0.406 -0.3028  0.1936 -0.2480
25850SOL     OW80441   0.081   2.670   2.409 -0.6666 -0.3214 -0.1902
25850SOL    HW180442   0.011   2.634   2.463 -0.5119  0.6448  0.6967
25850SOL    HW280443   0.148   2.602   2.408 -1.0742 -0.7310  0.0347
25851SOL     OW80444   8.649   4.359   0.446 -0.1012  0.3056 -0.5374
25851SOL    HW180445   8.585   4.430   0.452  0.2540  0.6414 -0.6673
25851SOL    HW280446   8.733   4.401   0.462  0.1791  0.0299 -1.2650
25852SOL     OW80447   5.699   2.058   5.377 -1.1591 -0.1036  0.1270
25852SOL    HW180448   5.788   2.030   5.394  0.0463  2.2620 -1.5794
25852SOL    HW280449   5.674   2.012   5.297 -2.3200 -2.2902  1.6619
25853SOL     OW80450   5.289   1.158   8.616 -0.6568  0.1147 -0.7033
25853SOL    HW180451   5.242   1.242   8.615  1.0701  1.1404 -1.4060
25853SOL    HW280452   5.282   1.128   8.706 -0.6089  1.4605 -0.2215
25854SOL     OW80453   1.261   7.345   4.646 -0.0563 -0.1733  0.5840
25854SOL    HW180454   1.325   7.293   4.693  0.2667 -0.4403 -0.1381
25854SOL    HW280455   1.177   7.321   4.685  0.2982  0.4729  1.8050
25855SOL     OW80456   7.994   6.962   0.337  0.4259 -0.3805 -0.3525
25855SOL    HW180457   8.038   7.014   0.405 -1.4117  1.5371 -0.5349
25855SOL    HW280458   7.933   6.906   0.385 -0.9028  1.0049 -0.3395
25856SOL     OW80459   7.728   2.945   2.390  0.3494  0.4812 -0.5492
25856SOL    HW180460   7.748   2.867   2.339  1.2002  0.1804  0.2129
25856SOL    HW280461   7.693   2.912   2.473 -0.8009  0.9558 -0.8288
25857SOL     OW80462   4.992   1.031   1.734 -0.3564 -0.5327  0.2322
25857SOL    HW180463   5.038   1.114   1.751 -3.4878  1.1096  1.7390
25857SOL    HW280464   5.049   0.983   1.675  2.3172  2.0589  0.4618
25858SOL     OW80465   1.250   3.149   2.130  0.4160  0.5973  0.4303
25858SOL    HW180466   1.161   3.182   2.124 -0.4617 -1.2282  2.2659
25858SOL    HW280467   1.302   3.224   2.158 -0.6690  1.4666  0.1633
25859SOL     OW80468   0.844   5.111   1.887  0.1009  0.1987  0.2950
25859SOL    HW180469   0.848   5.021   1.853 -1.0582  0.4008 -0.4172
25859SOL    HW280470   0.884   5.105   1.974  0.8438 -0.8227 -0.0900
25860SOL     OW80471   2.355   7.422   9.576  0.3909  0.0799  0.0286
25860SOL    HW180472   2.427   7.361   9.561  1.0097  0.9570 -0.6741
25860SOL    HW280473   2.386   7.479   9.646 -0.8791 -1.4470  1.9629
25861SOL     OW80474   2.800   3.854   3.707 -0.5499 -0.0462 -0.4265
25861SOL    HW180475   2.815   3.775   3.758  1.9299  0.8797  0.4516
25861SOL    HW280476   2.706   3.870   3.714 -0.7804 -1.7633  1.1162
25862SOL     OW80477   9.585   5.419   7.020  0.1881 -0.0208 -0.0008
25862SOL    HW180478   9.561   5.446   6.931  0.5575  0.9073  0.1688
25862SOL    HW280479   9.511   5.447   7.074  1.4954  2.7913  0.5144
25863SOL     OW80480   0.764   3.292   5.475 -0.1774 -0.0259  0.5206
25863SOL    HW180481   0.714   3.215   5.502  0.0034 -1.0045 -1.7012
25863SOL    HW280482   0.700   3.350   5.436  0.1613 -0.6177 -0.9638
25864SOL     OW80483   0.834   4.122   1.192  0.0971  0.2905 -0.1312
25864SOL    HW180484   0.742   4.146   1.201 -0.0971  0.7419 -2.5818
25864SOL    HW280485   0.882   4.203   1.211 -0.1742  0.7254 -1.2166
25865SOL     OW80486   3.923   2.231   2.203  0.2353 -0.0909 -0.1354
25865SOL    HW180487   3.900   2.288   2.130 -2.3149 -0.7683  0.0351
25865SOL    HW280488   3.852   2.243   2.267  1.6233 -0.6157  1.5959
25866SOL     OW80489   2.625   3.534   9.203  0.1232  0.0267  0.6243
25866SOL    HW180490   2.719   3.533   9.182  0.6909 -0.3870  2.8999
25866SOL    HW280491   2.611   3.619   9.243  0.1472 -0.8624  2.6228
25867SOL     OW80492   8.763   2.767   1.408 -0.4379 -0.5858  0.1713
25867SOL    HW180493   8.708   2.769   1.330 -1.0685 -0.2844  0.6134
25867SOL    HW280494   8.810   2.684   1.403  0.3216 -0.0957 -1.0661
25868SOL     OW80495   2.678   9.512   0.013 -0.3806  0.4018 -1.2856
25868SOL    HW180496   2.629   9.594   0.006 -0.2376  0.8431  1.6721
25868SOL    HW280497   2.738   9.526   0.086 -0.5102 -2.4196 -0.5325
25869SOL     OW80498   6.110   4.258   9.444  0.4780  0.0925  0.5154
25869SOL    HW180499   6.039   4.200   9.415 -0.9550  1.1109  1.8296
25869SOL    HW280500   6.129   4.230   9.534 -0.5842  1.9133  1.3493
25870SOL     OW80501   4.495   7.019   8.840  0.1507 -0.2292  0.3305
25870SOL    HW180502   4.576   6.985   8.801  0.2057  2.0975 -1.8183
25870SOL    HW280503   4.432   6.947   8.832  0.2788 -0.0871 -3.8777
25871SOL     OW80504   3.027   7.189   6.068  0.2826 -0.1557 -0.3467
25871SOL    HW180505   2.995   7.103   6.040 -0.2530 -0.7705  1.9784
25871SOL    HW280506   3.063   7.174   6.155  0.6483  1.9040 -0.1043
25872SOL     OW80507   2.636   5.735   0.028 -0.0324  0.0703  0.4707
25872SOL    HW180508   2.551   5.699   0.002 -0.2104  1.2923 -0.7280
25872SOL    HW280509   2.686   5.659   0.059 -0.5482 -1.1696 -1.5451
25873SOL     OW80510   6.913   0.128   6.131 -0.0029  0.1421  0.1240
25873SOL    HW180511   7.002   0.122   6.164  0.5468  0.7148 -1.1751
25873SOL    HW280512   6.858   0.102   6.204  1.1859  0.6126  1.2133
25874SOL     OW80513   8.401   0.366   4.024  0.1793  1.0668 -0.1546
25874SOL    HW180514   8.349   0.337   3.949  0.5222  0.2323 -0.0746
25874SOL    HW280515   8.446   0.445   3.992 -0.0782  1.0175 -0.6551
25875SOL     OW80516   3.988   9.331   7.130 -0.5886 -0.4564  0.1789
25875SOL    HW180517   3.905   9.365   7.164  0.5438  1.0870  1.5296
25875SOL    HW280518   4.000   9.378   7.047  0.6264  2.1099  1.7032
25876SOL     OW80519   5.867   3.557   2.576  0.0745  0.1626 -0.3637
25876SOL    HW180520   5.907   3.480   2.617  0.0424 -0.7412 -1.9278
25876SOL    HW280521   5.933   3.589   2.515  0.3774  1.8820  0.7953
25877SOL     OW80522   7.195   3.563   9.507  0.6163  0.2736  0.5187
25877SOL    HW180523   7.243   3.482   9.488  1.9876  1.1503  0.1005
25877SOL    HW280524   7.163   3.551   9.596  1.3749 -0.4726  0.7062
25878SOL     OW80525   8.189   7.740   0.446  0.0265  0.0810 -0.8228
25878SOL    HW180526   8.103   7.733   0.404 -0.3598 -1.4621  0.1614
25878SOL    HW280527   8.226   7.652   0.442  0.2033 -0.0248  1.5639
25879SOL     OW80528   8.610   7.797   9.187  0.6560 -0.1648 -0.6174
25879SOL    HW180529   8.575   7.810   9.275  1.0266 -0.9225 -0.3521
25879SOL    HW280530   8.544   7.836   9.129  0.3577  0.2387 -0.0162
25880SOL     OW80531   9.330   7.910   9.542  0.2210 -0.3789  0.4884
25880SOL    HW180532   9.360   7.844   9.605 -0.5794 -0.4666  0.7968
25880SOL    HW280533   9.366   7.882   9.458  1.3780 -0.2174  0.9142
25881SOL     OW80534   6.827   7.107   3.709 -0.0327 -0.0098 -0.3811
25881SOL    HW180535   6.874   7.038   3.754  0.8028  0.7661 -0.0219
25881SOL    HW280536   6.758   7.062   3.660  1.6177 -1.3032 -1.6405
25882SOL     OW80537   2.856   4.058   5.034 -0.7681  0.0238  0.0595
25882SOL    HW180538   2.929   4.099   5.081 -0.0061 -1.0821 -0.1215
25882SOL    HW280539   2.817   3.999   5.099  0.1985 -1.4038 -0.5932
25883SOL     OW80540   8.536   7.581   8.084  0.7154 -0.1845 -0.3743
25883SOL    HW180541   8.535   7.551   8.175  0.8035  0.1936 -0.2462
25883SOL    HW280542   8.444   7.587   8.059  0.5890  1.6078  0.3335
25884SOL     OW80543   0.982   8.504   0.932 -0.0728 -0.2453  0.2592
25884SOL    HW180544   0.963   8.463   1.016 -1.3273 -0.1861  0.0268
25884SOL    HW280545   1.010   8.432   0.875  1.6053 -0.1727  0.9179
25885SOL     OW80546   7.459   0.508   0.793  0.2687  0.4685 -0.5214
25885SOL    HW180547   7.540   0.459   0.779  0.4685  0.5996  0.1440
25885SOL    HW280548   7.394   0.441   0.816  0.1760  0.3609 -1.0801
25886SOL     OW80549   8.557   4.864   6.792 -1.1104  0.0505  0.6465
25886SOL    HW180550   8.539   4.865   6.698 -0.3794  0.3481  0.5082
25886SOL    HW280551   8.470   4.858   6.832 -1.3383 -2.6731 -0.0636
25887SOL     OW80552   0.978   2.441   2.144 -0.1254 -0.1822 -0.2889
25887SOL    HW180553   1.005   2.526   2.111 -0.9566 -0.0385 -0.6279
25887SOL    HW280554   1.057   2.403   2.180  0.3867  0.4781 -0.6948
25888SOL     OW80555   3.096   4.299   8.455 -0.3757 -0.0964  0.1969
25888SOL    HW180556   3.065   4.270   8.541  1.2762  1.4414  1.3864
25888SOL    HW280557   3.169   4.240   8.435 -1.0288 -0.7221 -0.3666
25889SOL     OW80558   5.317   0.415   3.338  0.4015 -0.2021  0.6468
25889SOL    HW180559   5.225   0.406   3.364  0.9187  0.8971  3.1271
25889SOL    HW280560   5.315   0.410   3.242 -2.4502  1.5123  0.4900
25890SOL     OW80561   6.859   3.576   8.001 -0.0035 -0.3166  0.1153
25890SOL    HW180562   6.868   3.483   8.020 -1.9239 -1.1126 -2.2804
25890SOL    HW280563   6.834   3.579   7.909 -0.2465  2.5749  0.1864
25891SOL     OW80564   9.508   2.504   8.418  0.0388  0.0112 -0.1178
25891SOL    HW180565   9.431   2.480   8.365  0.2817 -2.1465  0.3949
25891SOL    HW280566   9.541   2.583   8.377 -2.5854  1.1770 -0.2031
25892SOL     OW80567   5.116   2.584   4.309  0.2863  0.1370 -0.2636
25892SOL    HW180568   5.025   2.598   4.283 -0.0464  1.1587  1.3569
25892SOL    HW280569   5.162   2.568   4.226 -1.1510  0.7179 -1.2116
25893SOL     OW80570   0.909   8.751   4.071  0.2416  0.3014  0.1597
25893SOL    HW180571   0.995   8.708   4.063  0.0487 -0.5080  1.9995
25893SOL    HW280572   0.846   8.681   4.061 -0.1892  0.7584 -0.3473
25894SOL     OW80573   3.537   0.655   3.256 -0.1707  0.5819  0.5556
25894SOL    HW180574   3.583   0.597   3.315  0.6680  1.4801  0.8111
25894SOL    HW280575   3.571   0.632   3.169  0.2173  0.7369  0.6632
25895SOL     OW80576   7.316   0.783   3.685 -0.4376 -0.2121  0.1859
25895SOL    HW180577   7.277   0.707   3.728 -0.5535 -0.1356  0.2129
25895SOL    HW280578   7.356   0.747   3.606  0.3270 -0.4635  0.6695
25896SOL     OW80579   3.969   7.008   0.560 -0.2380 -0.3076 -0.1731
25896SOL    HW180580   3.909   7.041   0.627 -0.5957  2.2998 -1.6568
25896SOL    HW280581   4.054   7.044   0.584 -0.0535 -0.6697 -0.2790
25897SOL     OW80582   4.126   4.652   8.748 -0.1910 -0.7867  0.0865
25897SOL    HW180583   4.034   4.638   8.767 -0.2817 -1.3754 -0.7292
25897SOL    HW280584   4.173   4.601   8.814 -0.3987  0.6278  1.3892
25898SOL     OW80585   3.224   1.787   3.178 -0.0627 -0.2278  0.4983
25898SOL    HW180586   3.157   1.850   3.203 -0.9524 -0.0149 -2.1525
25898SOL    HW280587   3.245   1.741   3.260 -3.1081 -0.0111  1.5441
25899SOL     OW80588   3.785   6.503   1.618  0.4345  0.6184  0.3102
25899SOL    HW180589   3.876   6.500   1.590  0.4123 -0.0056  0.3053
25899SOL    HW280590   3.737   6.452   1.552  0.0717  0.9922  0.2780
25900SOL     OW80591   1.556   6.092   6.114  0.7514  0.0419  0.1378
25900SOL    HW180592   1.563   5.999   6.092  1.2777  0.1553 -0.2056
25900SOL    HW280593   1.645   6.117   6.139  0.9234  0.7705 -1.0999
25901SOL     OW80594   8.955   0.363   8.764 -0.4569 -0.7700  0.1965
25901SOL    HW180595   9.007   0.391   8.688 -2.0310  0.5147 -0.4941
25901SOL    HW280596   8.935   0.271   8.747 -0.1571 -0.7045 -0.5767
25902SOL     OW80597   1.712   5.340   2.786  0.5055  0.1094  0.2482
25902SOL    HW180598   1.691   5.311   2.697  1.1763 -1.1286  0.4551
25902SOL    HW280599   1.807   5.350   2.785  0.6458 -0.9719  1.0967
25903SOL     OW80600   4.006   2.950   8.203 -0.0403  0.0585 -0.2752
25903SOL    HW180601   4.079   2.951   8.265 -0.2548  0.2495 -0.0246
25903SOL    HW280602   3.937   3.000   8.246 -0.6785 -0.9664 -0.0890
25904SOL     OW80603   0.296   5.832   0.030  0.4128 -0.5734  0.9426
25904SOL    HW180604   0.219   5.872   0.068 -2.1294 -2.9716 -1.2301
25904SOL    HW280605   0.306   5.876  -0.055 -2.3274 -3.9829 -1.4064
25905SOL     OW80606   2.801   4.629   7.738  0.2343  0.2396 -0.5061
25905SOL    HW180607   2.874   4.671   7.693  0.5311 -0.2137 -0.4466
25905SOL    HW280608   2.805   4.538   7.711 -1.2770  0.5081 -1.8029
25906SOL     OW80609   3.817   5.336   7.467  0.1250 -0.3583  0.1141
25906SOL    HW180610   3.817   5.430   7.448 -0.8326 -0.2510  0.5590
25906SOL    HW280611   3.897   5.303   7.427  0.5185  0.6634  0.0248
25907SOL     OW80612   6.410   7.562   8.411 -0.0215 -0.1912 -0.0194
25907SOL    HW180613   6.324   7.529   8.440 -1.9691  3.7999 -0.5480
25907SOL    HW280614   6.448   7.489   8.363 -2.3958 -2.6790  1.5454
25908SOL     OW80615   2.360   0.915   1.868  0.0934 -0.5242  0.2459
25908SOL    HW180616   2.380   0.894   1.777 -1.1425 -0.7306  0.0012
25908SOL    HW280617   2.435   0.883   1.918  2.5479  2.6962 -0.9756
25909SOL     OW80618   2.205   0.855   5.613 -1.0544  1.2079  0.3051
25909SOL    HW180619   2.275   0.914   5.641 -1.4060  1.3558  0.8962
25909SOL    HW280620   2.203   0.864   5.518 -0.9720  2.0111  0.3672
25910SOL     OW80621   6.727   3.816   5.559 -0.5668  0.0462 -0.0786
25910SOL    HW180622   6.672   3.868   5.618 -0.8841 -1.2911  0.8485
25910SOL    HW280623   6.681   3.733   5.550 -0.7844  0.3867 -2.6803
25911SOL     OW80624   7.775   3.682   5.132  0.0877 -0.2016 -0.5045
25911SOL    HW180625   7.756   3.734   5.055 -0.4762 -0.3725 -0.4886
25911SOL    HW280626   7.868   3.662   5.126  0.1866  0.3349 -0.7957
25912SOL     OW80627   7.615   7.373   4.340 -0.3682  0.0313 -0.0609
25912SOL    HW180628   7.669   7.405   4.412  0.4029  3.2192 -1.8554
25912SOL    HW280629   7.558   7.447   4.319 -0.5146 -0.7404 -2.7409
25913SOL     OW80630   4.030   7.729   6.764  0.1101  0.2801 -0.3055
25913SOL    HW180631   4.007   7.656   6.706  1.4184 -0.3136 -0.0895
25913SOL    HW280632   4.087   7.691   6.830 -1.3785  0.9517  1.4276
25914SOL     OW80633   6.990   8.471   2.464 -0.2760  0.3853  0.5030
25914SOL    HW180634   7.043   8.441   2.390 -0.4014  1.0978  0.1151
25914SOL    HW280635   6.905   8.492   2.425 -0.6890 -0.2668  1.0368
25915SOL     OW80636   4.360   6.554   7.447  0.0395  0.1222  0.3303
25915SOL    HW180637   4.444   6.572   7.404  0.7184 -0.8327  1.1892
25915SOL    HW280638   4.381   6.488   7.513 -0.9835  1.3349  1.9520
25916SOL     OW80639   8.376   1.855   1.349 -0.2925  0.3412 -0.1061
25916SOL    HW180640   8.460   1.856   1.303 -0.4032  1.3048 -0.2912
25916SOL    HW280641   8.377   1.932   1.405 -1.3811  0.8189 -0.7091
25917SOL     OW80642   4.568   2.026   4.317 -0.3881 -0.0804 -0.2220
25917SOL    HW180643   4.477   2.055   4.323  0.1808  1.9808 -0.7481
25917SOL    HW280644   4.571   1.948   4.372 -2.2038  0.4976  0.8106
25918SOL     OW80645   2.743   4.135   2.571 -0.2790  0.0163  0.1059
25918SOL    HW180646   2.759   4.209   2.512 -2.7419 -0.2572 -1.0226
25918SOL    HW280647   2.797   4.064   2.535 -2.2599 -0.3622 -2.3747
25919SOL     OW80648   7.732   7.559   5.593 -0.3004  0.2604 -0.0204
25919SOL    HW180649   7.819   7.539   5.560 -0.1891  0.7289 -0.0220
25919SOL    HW280650   7.745   7.577   5.687 -0.1958  1.5120 -0.2546
25920SOL     OW80651   9.558   9.449   0.733  0.2514  0.5249 -0.2431
25920SOL    HW180652   9.609   9.413   0.660  1.0179  2.3904 -0.6840
25920SOL    HW280653   9.577   9.543   0.730 -2.2443  1.0924  0.3758
25921SOL     OW80654   6.373   7.425   3.778  0.0488 -0.1047  0.2678
25921SOL    HW180655   6.348   7.473   3.857 -1.7847  0.7068 -0.7287
25921SOL    HW280656   6.395   7.337   3.809  1.8449  0.8763  1.9422
25922SOL     OW80657   6.671   7.739   4.225 -0.3890  0.0590 -0.5102
25922SOL    HW180658   6.764   7.749   4.245 -0.0739  1.3053 -2.3755
25922SOL    HW280659   6.665   7.653   4.184 -0.6500 -1.4256  2.3510
25923SOL     OW80660   2.770   3.496   0.652 -0.8523  0.2785 -0.1278
25923SOL    HW180661   2.831   3.517   0.581 -0.8483  2.8202  0.5175
25923SOL    HW280662   2.821   3.440   0.711  0.5855  1.5833 -0.0739
25924SOL     OW80663   8.515   6.268   6.442 -0.0988  0.4383 -0.1620
25924SOL    HW180664   8.432   6.313   6.459 -0.1826  0.1982  0.0666
25924SOL    HW280665   8.582   6.329   6.472 -0.2154  0.3863  0.2080
25925SOL     OW80666   3.517   7.113   0.837 -0.0116 -0.8463 -0.0646
25925SOL    HW180667   3.483   7.181   0.779  0.3360 -1.9780 -1.6802
25925SOL    HW280668   3.600   7.086   0.797 -0.0725 -2.1042  0.5999
25926SOL     OW80669   7.130   6.755   3.452  0.3524 -0.0152 -0.3180
25926SOL    HW180670   7.194   6.826   3.443 -0.9224  1.5562  2.1219
25926SOL    HW280671   7.109   6.730   3.362  2.5646  1.0513 -1.2111
25927SOL     OW80672   0.069   2.053   4.938  0.3941  0.3522 -0.0188
25927SOL    HW180673  -0.012   2.004   4.924  0.0010  0.4862  1.5874
25927SOL    HW280674   0.056   2.099   5.021  1.1341  2.4193 -0.9575
25928SOL     OW80675   7.490   1.237   0.952 -0.0132  0.1070 -0.4196
25928SOL    HW180676   7.516   1.269   1.038 -0.2976  1.9368 -0.9608
25928SOL    HW280677   7.454   1.314   0.908  0.6231 -0.6554 -2.3782
25929SOL     OW80678   7.384   2.814   8.986  0.7341 -0.2432  0.6106
25929SOL    HW180679   7.342   2.806   8.901  3.1553 -1.8461 -0.5395
25929SOL    HW280680   7.330   2.876   9.034 -2.2045 -1.2938 -1.1196
25930SOL     OW80681   6.542   3.729   3.432  0.0237  0.1148 -0.3123
25930SOL    HW180682   6.586   3.671   3.494  1.5252  0.4367 -1.0182
25930SOL    HW280683   6.588   3.813   3.441 -1.8368  1.1080  0.4064
25931SOL     OW80684   7.022   2.016   9.571 -0.0515 -0.4060  0.3147
25931SOL    HW180685   6.996   1.971   9.651 -1.7133 -2.4546 -1.2453
25931SOL    HW280686   6.955   2.083   9.558 -0.8137 -1.2701 -0.2699
25932SOL     OW80687   5.349   8.109   4.894 -0.0154  0.3633  0.7020
25932SOL    HW180688   5.255   8.120   4.910 -0.8018 -0.1460 -2.7897
25932SOL    HW280689   5.381   8.197   4.874 -0.2522  0.2610 -0.1750
25933SOL     OW80690   1.578   5.110   5.719 -0.1876 -0.2293  0.0832
25933SOL    HW180691   1.606   5.153   5.638  0.0277  0.4649  0.5193
25933SOL    HW280692   1.499   5.157   5.745 -0.5225 -0.7499  0.0422
25934SOL     OW80693   2.802   6.780   1.762 -0.6726  0.1010 -0.0184
25934SOL    HW180694   2.850   6.803   1.842 -0.4442 -0.0382 -0.1144
25934SOL    HW280695   2.781   6.865   1.723 -1.3372  0.1909  0.5042
25935SOL     OW80696   6.959   7.457   1.431 -0.1438 -0.5726 -0.3949
25935SOL    HW180697   6.974   7.496   1.345 -1.2838 -1.0377 -0.8416
25935SOL    HW280698   6.896   7.386   1.414 -1.6334  0.3181  1.0279
25936SOL     OW80699   6.156   0.349   2.955  0.5541 -0.0281  0.1879
25936SOL    HW180700   6.116   0.405   2.888 -0.6124  0.0022  0.8945
25936SOL    HW280701   6.248   0.376   2.957  0.6617 -0.1547 -1.5302
25937SOL     OW80702   4.072   2.469   1.135  0.0016  0.1582 -0.2751
25937SOL    HW180703   4.038   2.492   1.222  0.7778 -0.9385  0.3415
25937SOL    HW280704   4.166   2.456   1.149  0.3215  1.0006 -1.5035
25938SOL     OW80705   1.216   2.808   5.518 -0.1955  0.1331 -0.6881
25938SOL    HW180706   1.124   2.818   5.539  0.4135  1.4503  1.6638
25938SOL    HW280707   1.220   2.817   5.422 -2.2388  2.5176 -0.6417
25939SOL     OW80708   1.647   8.890   6.861 -0.1456 -0.3230 -0.3934
25939SOL    HW180709   1.685   8.969   6.899  1.3305  0.4577 -3.1776
25939SOL    HW280710   1.553   8.907   6.861 -0.0765  0.3122  1.2806
25940SOL     OW80711   4.379   0.418   2.417 -0.2646 -0.2084 -0.0136
25940SOL    HW180712   4.285   0.408   2.432 -0.1940 -0.0113  0.5882
25940SOL    HW280713   4.395   0.374   2.333 -1.2206  1.4290 -1.1209
25941SOL     OW80714   7.170   2.576   6.618  0.4284  0.1028 -0.2299
25941SOL    HW180715   7.129   2.494   6.646  2.2724 -1.4341 -1.6962
25941SOL    HW280716   7.101   2.641   6.626 -0.8493 -1.3854  1.8849
25942SOL     OW80717   1.848   9.179   7.612 -0.4126  0.3630 -0.0338
25942SOL    HW180718   1.840   9.090   7.577 -0.7612  0.3656  0.0312
25942SOL    HW280719   1.930   9.179   7.660 -1.2686 -0.4535  1.4922
25943SOL     OW80720   8.689   1.126   5.287  0.1180 -0.5814 -0.7155
25943SOL    HW180721   8.723   1.052   5.338 -1.3072 -1.8458 -1.5117
25943SOL    HW280722   8.704   1.102   5.196  0.8956  0.7854 -0.9839
25944SOL     OW80723   2.513   8.770   7.676 -0.4241 -0.0125  0.0503
25944SOL    HW180724   2.461   8.832   7.625 -0.8732  0.9517  1.6040
25944SOL    HW280725   2.597   8.765   7.629 -0.8924  0.6518 -0.8883
25945SOL     OW80726   4.209   0.694   6.490 -0.1854  0.1444  0.2525
25945SOL    HW180727   4.166   0.641   6.558 -0.6674  0.6929  0.3885
25945SOL    HW280728   4.139   0.750   6.456  0.1537  0.1803 -0.3981
25946SOL     OW80729   8.889   9.412   7.931  0.6905  0.7325  0.2150
25946SOL    HW180730   8.956   9.458   7.880  1.8168 -1.2212 -0.1847
25946SOL    HW280731   8.807   9.433   7.888  1.1684  2.2872  0.0194
25947SOL     OW80732   0.422   3.960   7.821  0.4039 -0.8525  0.5139
25947SOL    HW180733   0.506   3.984   7.784  0.7261 -2.2361  0.2938
25947SOL    HW280734   0.381   3.904   7.755 -0.1594 -1.1958  1.1375
25948SOL     OW80735   3.430   2.037   2.195  0.3741  0.4310  0.0871
25948SOL    HW180736   3.439   2.059   2.288 -0.2923 -1.6488  0.6960
25948SOL    HW280737   3.382   2.111   2.157  0.2763  1.1144  1.4731
25949SOL     OW80738   1.070   1.386   3.359 -0.4170 -0.0838 -0.0732
25949SOL    HW180739   1.110   1.325   3.297  1.6517  1.1553 -0.0567
25949SOL    HW280740   0.976   1.379   3.343  0.0057 -0.1634 -3.0317
25950SOL     OW80741   5.069   5.377   0.206 -0.0353 -0.2507 -0.4725
25950SOL    HW180742   5.112   5.462   0.216 -2.1411  0.7675  0.8006
25950SOL    HW280743   5.139   5.312   0.217  1.3702  1.2861  0.0354
25951SOL     OW80744   7.730   6.307   1.428  0.1097  0.0420 -0.3456
25951SOL    HW180745   7.745   6.399   1.448  1.6233  0.2925 -2.3360
25951SOL    HW280746   7.676   6.308   1.348  0.3008 -0.7966 -0.4956
25952SOL     OW80747   7.265   8.525   0.112 -0.2214 -0.4737 -0.4906
25952SOL    HW180748   7.334   8.540   0.177 -1.0167  0.9446  0.0760
25952SOL    HW280749   7.311   8.518   0.029  0.5583  1.7685 -0.3148
25953SOL     OW80750   5.138   3.467   7.802  0.0860  0.5015  0.3717
25953SOL    HW180751   5.191   3.506   7.732  0.2476  0.0219  0.2227
25953SOL    HW280752   5.059   3.520   7.804  0.8023  1.5900  0.9816
25954SOL     OW80753   1.622   8.507   4.031  0.3031  0.1653  0.4742
25954SOL    HW180754   1.563   8.578   4.008 -0.4132  0.2859  2.4564
25954SOL    HW280755   1.708   8.536   4.000 -0.6876 -0.5063 -3.5169
25955SOL     OW80756   5.605   4.027   2.307 -0.1672 -0.1860 -0.2216
25955SOL    HW180757   5.686   4.003   2.352 -0.3675  0.5001  0.5276
25955SOL    HW280758   5.539   3.970   2.345 -0.2065 -0.1031 -0.1661
25956SOL     OW80759   4.523   0.803   0.486 -0.3631 -0.6586 -0.0763
25956SOL    HW180760   4.470   0.875   0.520  2.0641  1.6544 -0.8379
25956SOL    HW280761   4.547   0.753   0.564 -1.4074 -0.1786  0.5858
25957SOL     OW80762   5.943   8.386   5.825 -0.4310  0.5089  0.5077
25957SOL    HW180763   5.916   8.361   5.737 -0.3474  0.4781  0.4905
25957SOL    HW280764   6.037   8.401   5.817 -0.9198  4.0834 -0.2827
25958SOL     OW80765   2.572   6.240   6.121  0.1635 -0.2587 -0.3968
25958SOL    HW180766   2.588   6.268   6.031 -0.1428  1.8103  0.1225
25958SOL    HW280767   2.476   6.244   6.131  0.1434 -1.1299 -0.1626
25959SOL     OW80768   4.217   8.385   6.752  0.0302 -0.0969  0.0435
25959SOL    HW180769   4.166   8.427   6.822 -0.7143  0.4570 -0.8132
25959SOL    HW280770   4.166   8.401   6.673  1.0135 -0.4656 -0.6736
25960SOL     OW80771   9.138   8.989   8.896 -0.4691 -0.0292 -0.0015
25960SOL    HW180772   9.053   9.032   8.888 -1.6645 -1.6993  2.3869
25960SOL    HW280773   9.169   9.013   8.983  0.4399 -1.2184  0.0318
25961SOL     OW80774   1.690   2.063   8.744 -0.4175  0.2122 -0.3500
25961SOL    HW180775   1.632   2.056   8.820 -0.0145  2.2256  0.2099
25961SOL    HW280776   1.778   2.051   8.780 -0.2013  1.4774 -0.3897
25962SOL     OW80777   7.587   4.963   8.018  0.0507 -0.6603 -0.2433
25962SOL    HW180778   7.553   4.934   7.934  0.2860 -1.8683  0.0562
25962SOL    HW280779   7.669   5.008   7.996 -0.6285  0.3564 -0.7698
25963SOL     OW80780   8.510   5.908   8.819  0.1859 -0.4053 -0.6371
25963SOL    HW180781   8.519   5.901   8.724  1.0077  0.4043 -0.6347
25963SOL    HW280782   8.599   5.892   8.853 -0.4439 -2.5716  0.1325
25964SOL     OW80783   7.078   8.120   6.815  0.2358 -0.0599 -0.1885
25964SOL    HW180784   7.110   8.033   6.788  0.5263 -0.6843  1.9502
25964SOL    HW280785   6.994   8.130   6.770  0.6707 -1.0044 -1.2577
25965SOL     OW80786   2.767   3.533   6.709  0.1199  0.3943 -0.0336
25965SOL    HW180787   2.707   3.540   6.784  0.8474 -0.3687  0.6417
25965SOL    HW280788   2.762   3.441   6.683  0.4973  0.4748 -0.3878
25966SOL     OW80789   8.274   0.051   6.679  0.7424 -0.0825  0.2805
25966SOL    HW180790   8.344   0.103   6.638  0.0118 -0.0761 -1.0134
25966SOL    HW280791   8.193   0.096   6.653  0.2371 -0.1530  1.6645
25967SOL     OW80792   4.772   3.418   2.428 -0.8113  0.3167 -0.3992
25967SOL    HW180793   4.813   3.434   2.343  1.3535  0.0764  0.5397
25967SOL    HW280794   4.784   3.325   2.444  0.2591  0.6268  0.8301
25968SOL     OW80795   1.647   7.616   4.723  0.2926  0.1051  0.1013
25968SOL    HW180796   1.591   7.683   4.761 -0.3020 -0.6198  0.5445
25968SOL    HW280797   1.620   7.610   4.631  0.7271  0.8429 -0.0804
25969SOL     OW80798   2.026   1.489   7.757 -0.1036  0.3510  0.5052
25969SOL    HW180799   2.009   1.411   7.810  0.5516 -0.9460 -1.1097
25969SOL    HW280800   2.121   1.495   7.754 -0.1102  2.3245  2.0944
25970SOL     OW80801   0.423   6.516   3.325 -0.0654  0.2140  0.1904
25970SOL    HW180802   0.423   6.457   3.401 -0.7380 -2.0616 -1.4619
25970SOL    HW280803   0.431   6.458   3.250 -0.8348  2.2694 -1.5753
25971SOL     OW80804   7.327   2.409   7.386 -0.3383  0.3114  0.1239
25971SOL    HW180805   7.343   2.329   7.435  0.8100  1.4135  1.6359
25971SOL    HW280806   7.293   2.471   7.450 -1.9244  0.8641 -1.1623
25972SOL     OW80807   3.406   8.964   4.426  0.3475 -0.1821 -0.5672
25972SOL    HW180808   3.334   8.929   4.374  1.0027  0.0045 -1.6304
25972SOL    HW280809   3.476   8.981   4.362  1.5220 -0.8581  0.4947
25973SOL     OW80810   7.561   8.979   1.191 -0.3147  0.4375  0.3145
25973SOL    HW180811   7.650   8.982   1.226 -0.3574 -0.0004  0.4754
25973SOL    HW280812   7.541   8.885   1.184 -0.4648  0.5205 -0.4891
25974SOL     OW80813   7.514   7.786   6.975  0.3638 -0.2577  0.2484
25974SOL    HW180814   7.488   7.856   6.915 -0.0675 -1.2082 -0.6988
25974SOL    HW280815   7.609   7.792   6.979  0.2786  1.0038  0.9666
25975SOL     OW80816   2.086   9.574   4.533  0.2745 -0.4833 -0.2012
25975SOL    HW180817   2.138   9.493   4.530 -0.7401 -1.1386 -0.5646
25975SOL    HW280818   2.001   9.549   4.498 -0.9721  0.0617  2.1885
25976SOL     OW80819   0.246   5.602   7.384 -0.1678 -0.4853  0.8971
25976SOL    HW180820   0.207   5.690   7.377 -1.8501 -1.1219  1.6657
25976SOL    HW280821   0.339   5.616   7.365 -0.3554  1.4812  1.1467
25977SOL     OW80822   1.934   3.497   9.586  0.1818 -0.2832 -0.4431
25977SOL    HW180823   1.874   3.487   9.512  1.0954 -1.4060 -1.0668
25977SOL    HW280824   1.903   3.434   9.651  1.0458 -1.3595 -1.0388
25978SOL     OW80825   1.721   4.461   2.871 -0.0824  0.1848 -0.3522
25978SOL    HW180826   1.770   4.379   2.861 -1.6910 -1.0298  1.1286
25978SOL    HW280827   1.665   4.464   2.793 -1.7109 -1.4061  0.6794
25979SOL     OW80828   4.730   6.491   3.466 -0.1543 -0.5265  0.7469
25979SOL    HW180829   4.726   6.580   3.502 -0.0546 -0.4424  0.5525
25979SOL    HW280830   4.658   6.488   3.402  0.4392 -0.2699  0.0549
25980SOL     OW80831   8.043   1.174   2.727 -0.9020 -0.1622  0.1992
25980SOL    HW180832   8.126   1.130   2.710 -0.6154  1.2282 -2.4637
25980SOL    HW280833   7.983   1.103   2.751 -0.0001 -1.8214 -2.0810
25981SOL     OW80834   9.218   8.101   2.696  0.3395  0.2487  0.0830
25981SOL    HW180835   9.203   8.169   2.630 -0.4645 -0.7891 -0.8471
25981SOL    HW280836   9.234   8.022   2.645 -0.5971 -0.6434  1.1192
25982SOL     OW80837   8.254   1.481   2.738 -0.3804 -0.5472 -0.8295
25982SOL    HW180838   8.210   1.564   2.755 -2.0296 -0.7775 -3.4439
25982SOL    HW280839   8.251   1.435   2.821  0.7777  2.0173  0.7777
25983SOL     OW80840   0.445   5.666   6.216 -0.0409  0.1497 -0.0626
25983SOL    HW180841   0.466   5.577   6.187  0.7219  0.1462  0.4757
25983SOL    HW280842   0.361   5.657   6.262  0.2713 -0.3897  0.4204
25984SOL     OW80843   8.935   8.770   6.886  0.6082 -0.0920 -0.1674
25984SOL    HW180844   8.953   8.835   6.818  0.4647  0.5618  0.4121
25984SOL    HW280845   8.850   8.734   6.863  0.6558 -0.0264 -0.4500
25985SOL     OW80846   0.987   3.968   1.525  0.2039 -0.0813  0.5812
25985SOL    HW180847   0.962   3.898   1.586 -0.0751  0.7328  1.4377
25985SOL    HW280848   0.926   4.039   1.546  2.4531  1.5718  1.9353
25986SOL     OW80849   8.934   9.417   4.868 -0.0844 -0.4298  0.8286
25986SOL    HW180850   8.846   9.435   4.903 -0.6657 -0.4610 -0.5680
25986SOL    HW280851   8.989   9.410   4.946 -1.4456 -1.1014  1.7869
25987SOL     OW80852   0.296   1.238   2.196 -0.0123 -0.5925  0.3480
25987SOL    HW180853   0.345   1.221   2.277  2.1794 -1.3692 -1.0415
25987SOL    HW280854   0.204   1.240   2.223  0.6584 -0.4340  2.8934
25988SOL     OW80855   4.090   6.419   4.042  0.8168 -0.0203 -0.4166
25988SOL    HW180856   4.146   6.400   3.967  0.2399  1.6323 -1.3104
25988SOL    HW280857   4.041   6.497   4.017  0.8506  0.8056  1.8240
25989SOL     OW80858   5.368   8.801   5.674  0.1481  0.1514 -0.1586
25989SOL    HW180859   5.376   8.732   5.740 -0.0763 -0.4816 -0.7923
25989SOL    HW280860   5.285   8.783   5.630 -0.1611  1.1176 -0.0027
25990SOL     OW80861   7.549   4.851   2.498  0.2901  0.1566  0.4457
25990SOL    HW180862   7.538   4.819   2.409  2.1685  2.5422 -0.7454
25990SOL    HW280863   7.516   4.941   2.496 -1.2104 -0.2657  2.6383
25991SOL     OW80864   6.458   6.239   9.466  0.5642 -0.1571  0.7724
25991SOL    HW180865   6.522   6.286   9.520  0.0643  0.1286  1.1324
25991SOL    HW280866   6.388   6.303   9.452 -0.3886 -0.9630  1.7232
25992SOL     OW80867   6.671   7.884   2.729 -0.0952 -0.1776  0.1318
25992SOL    HW180868   6.614   7.817   2.765  1.7611 -2.6109 -1.1994
25992SOL    HW280869   6.733   7.903   2.800  0.0334 -0.6672  0.1515
25993SOL     OW80870   5.719   5.715   2.406  0.1481 -0.2861  0.1399
25993SOL    HW180871   5.766   5.672   2.477  0.8517  1.5280  0.8510
25993SOL    HW280872   5.759   5.680   2.326  1.4693 -0.1338  0.7108
25994SOL     OW80873   1.247   2.008   7.491  0.0851  0.4057 -0.6133
25994SOL    HW180874   1.170   1.977   7.444  1.0538 -0.2252 -1.8498
25994SOL    HW280875   1.276   2.085   7.441 -1.1174  2.2009  1.2572
25995SOL     OW80876   6.901   3.280   7.438 -1.0064  0.3279  0.3081
25995SOL    HW180877   6.835   3.336   7.396  0.1513  1.2160 -0.3666
25995SOL    HW280878   6.910   3.205   7.380  0.4853  1.4819 -1.0505
25996SOL     OW80879   0.246   1.075   5.428 -0.1918 -0.0048  0.3945
25996SOL    HW180880   0.226   1.074   5.334  0.1010 -1.3531  0.3207
25996SOL    HW280881   0.242   0.983   5.454 -0.2986  0.3531  1.7228
25997SOL     OW80882   6.898   1.380   8.476  0.4840 -0.3625 -0.1256
25997SOL    HW180883   6.849   1.377   8.558 -0.3638  0.2231 -0.5981
25997SOL    HW280884   6.987   1.354   8.501  0.2634 -0.1235  0.9906
25998SOL     OW80885   7.682   9.593   2.171 -0.1340 -0.0002 -0.7675
25998SOL    HW180886   7.714   9.622   2.256  0.3573  0.8623 -1.2275
25998SOL    HW280887   7.724   9.508   2.157 -1.5558 -0.9924  0.5819
25999SOL     OW80888   0.541   9.531   1.109  0.3565 -0.1290  0.6062
25999SOL    HW180889   0.619   9.586   1.102  0.5802 -0.5967 -0.7105
25999SOL    HW280890   0.570   9.445   1.078  0.0707 -1.1037  2.7933
26000SOL     OW80891   3.062   1.126   4.572  0.1185 -0.0631 -0.5509
26000SOL    HW180892   3.049   1.068   4.647  0.4427 -1.3989 -1.5004
26000SOL    HW280893   2.984   1.181   4.571  0.3335  0.3230  1.0416
26001SOL     OW80894   0.399   1.027   3.024  0.3080 -0.0160 -0.4414
26001SOL    HW180895   0.494   1.035   3.019  0.1969  1.2961 -0.7207
26001SOL    HW280896   0.377   1.056   3.112  0.1355  0.0618 -0.5092
26002SOL     OW80897   9.285   4.563   3.589 -0.0144  0.0574 -0.9522
26002SOL    HW180898   9.309   4.654   3.571 -2.3031  0.9973  0.3330
26002SOL    HW280899   9.281   4.522   3.503 -0.6602  1.6566 -1.7428
26003SOL     OW80900   7.585   1.745   2.830 -0.0995  0.1615 -0.3023
26003SOL    HW180901   7.604   1.652   2.823 -0.7410  0.0652 -0.8338
26003SOL    HW280902   7.627   1.772   2.912 -2.1701 -1.1893  1.3140
26004SOL     OW80903   4.739   6.956   7.697  0.7314  0.2589 -0.1998
26004SOL    HW180904   4.827   6.949   7.660  0.6996  0.5158 -0.3273
26004SOL    HW280905   4.696   7.023   7.644  1.0330  1.4174  0.9503
26005SOL     OW80906   2.959   3.966   5.656  0.0691  0.0440  0.3130
26005SOL    HW180907   3.014   4.040   5.679  1.0654 -0.3534 -0.6829
26005SOL    HW280908   2.977   3.900   5.723  1.1275 -0.2257 -0.2156
26006SOL     OW80909   9.490   6.888   8.346 -0.6945  0.5996  0.0535
26006SOL    HW180910   9.452   6.801   8.359  1.4682 -0.7463 -1.8693
26006SOL    HW280911   9.539   6.905   8.427 -0.6287 -0.2707  0.2008
26007SOL     OW80912   3.997   7.116   4.787 -0.0432  0.1152 -0.5512
26007SOL    HW180913   4.000   7.033   4.834  0.6400  0.3901 -0.1006
26007SOL    HW280914   3.938   7.171   4.840  1.0668  0.5703  0.2473
26008SOL     OW80915   3.814   5.088   7.796  0.3300  0.0764 -0.8325
26008SOL    HW180916   3.774   5.075   7.881  1.7625  1.4233  0.1077
26008SOL    HW280917   3.752   5.141   7.747 -0.3807 -0.4700 -0.5278
26009SOL     OW80918   6.874   8.067   4.332 -0.0732 -0.5573 -0.3644
26009SOL    HW180919   6.959   8.109   4.347 -0.6989  0.9066 -0.7541
26009SOL    HW280920   6.833   8.063   4.419  0.6060 -1.8426 -0.0660
26010SOL     OW80921   2.539   8.822   4.635  0.2213  0.5355 -0.3606
26010SOL    HW180922   2.608   8.846   4.697  1.7882 -2.0544 -0.9343
26010SOL    HW280923   2.583   8.823   4.550 -0.6381 -0.4095 -0.8412
26011SOL     OW80924   8.612   6.044   6.643  0.2590  0.2189 -0.3039
26011SOL    HW180925   8.679   6.038   6.575  1.3543  1.6193  0.5965
26011SOL    HW280926   8.648   6.106   6.707 -0.1477 -1.9429  2.1986
26012SOL     OW80927   1.712   6.116   3.018  0.1121 -0.5449 -0.1670
26012SOL    HW180928   1.696   6.157   3.103 -0.9363 -2.0448  0.3982
26012SOL    HW280929   1.628   6.078   2.993  0.5098 -0.4713 -1.7030
26013SOL     OW80930   0.293   3.622   8.326  0.4919  0.2495 -0.2828
26013SOL    HW180931   0.229   3.573   8.274 -0.9141  1.5873  0.1073
26013SOL    HW280932   0.330   3.686   8.266  0.5626  0.2797 -0.2081
26014SOL     OW80933   6.279   3.893   6.797 -0.2293 -0.6537 -0.1413
26014SOL    HW180934   6.247   3.957   6.733 -1.2589 -1.5112 -0.5054
26014SOL    HW280935   6.267   3.808   6.755 -1.4661 -1.2792  1.3999
26015SOL     OW80936   6.697   9.200   2.955 -0.4569  0.0616 -0.0408
26015SOL    HW180937   6.750   9.280   2.951  1.2368 -1.0457 -1.3723
26015SOL    HW280938   6.742   9.139   2.896 -3.4611 -0.8483 -1.5684
26016SOL     OW80939   6.487   9.528   9.115 -0.1488  0.0239 -0.2422
26016SOL    HW180940   6.474   9.623   9.116 -0.0406  0.0426 -0.4224
26016SOL    HW280941   6.487   9.502   9.207  2.3787  0.5624  0.0026
26017SOL     OW80942   5.855   6.720   4.554  0.0138  0.4420  0.2262
26017SOL    HW180943   5.858   6.639   4.604  1.4068 -0.0825 -0.6455
26017SOL    HW280944   5.779   6.767   4.588 -1.1734 -1.4859  0.3505
26018SOL     OW80945   7.981   3.882   1.064 -0.2606  0.0657 -0.2472
26018SOL    HW180946   8.074   3.871   1.085 -0.0316 -0.7760 -1.6138
26018SOL    HW280947   7.935   3.829   1.129  0.1745  0.8780  0.7399
26019SOL     OW80948   3.892   1.098   8.790  0.7059 -0.5863 -0.5340
26019SOL    HW180949   3.903   1.004   8.800  0.1504 -0.7090 -1.0033
26019SOL    HW280950   3.798   1.114   8.802  0.4531 -0.3810 -2.4015
26020SOL     OW80951   2.134   7.551   4.450 -0.1784 -0.5023  0.6756
26020SOL    HW180952   2.202   7.485   4.462  0.9877  0.5391  0.0649
26020SOL    HW280953   2.074   7.513   4.386  0.2494 -1.1261  0.6447
26021SOL     OW80954   4.360   1.213   1.222 -0.2310 -0.5697 -0.0289
26021SOL    HW180955   4.290   1.277   1.239 -1.1823 -1.4775 -0.4672
26021SOL    HW280956   4.429   1.264   1.180 -0.8846  0.2154 -0.1740
26022SOL     OW80957   4.852   0.190   1.437 -0.0132  0.5290 -0.3337
26022SOL    HW180958   4.802   0.109   1.449  2.8979 -1.3951 -0.1435
26022SOL    HW280959   4.896   0.203   1.520  1.7319  0.6759 -1.2419
26023SOL     OW80960   0.676   8.656   2.765  0.0333  0.1199  0.3153
26023SOL    HW180961   0.658   8.602   2.688  0.9886  0.6300 -0.2835
26023SOL    HW280962   0.599   8.644   2.821 -0.2257 -1.0585 -0.2521
26024SOL     OW80963   6.371   7.123   7.204 -0.5371 -0.2065  0.1978
26024SOL    HW180964   6.460   7.095   7.182 -1.0345 -0.1588 -2.0892
26024SOL    HW280965   6.356   7.087   7.292  1.1538 -1.6056 -0.0244
26025SOL     OW80966   7.274   8.973   6.504  0.0020  0.3735  0.3275
26025SOL    HW180967   7.213   8.971   6.430  0.8536  0.0532 -0.3767
26025SOL    HW280968   7.223   9.011   6.576 -1.8989 -2.2904  0.5423
26026SOL     OW80969   0.942   6.074   3.619  0.1916 -0.3387  0.1554
26026SOL    HW180970   0.873   6.054   3.683  0.6383 -1.6201  0.2633
26026SOL    HW280971   1.020   6.088   3.673  0.4973 -1.1047 -0.0757
26027SOL     OW80972   9.610   5.580   2.903 -0.5264  0.0046 -0.6120
26027SOL    HW180973   9.639   5.547   2.988 -0.5901  0.3015 -0.4761
26027SOL    HW280974   9.515   5.590   2.913 -0.2026  3.1147  0.3575
26028SOL     OW80975   4.626   5.406   9.333 -0.2645 -0.4695 -0.4335
26028SOL    HW180976   4.564   5.478   9.338  0.0211 -0.1803 -0.9791
26028SOL    HW280977   4.674   5.421   9.252  1.2697 -0.0930  0.5201
26029SOL     OW80978   0.429   1.022   5.685  0.2832 -0.5429  0.6785
26029SOL    HW180979   0.427   1.108   5.727  2.9749 -1.4573  3.0042
26029SOL    HW280980   0.339   1.008   5.655 -0.3483  2.8623  0.5215
26030SOL     OW80981   2.416   4.233   4.174  0.2448 -0.1082  0.3723
26030SOL    HW180982   2.413   4.295   4.101 -0.0459  0.3816  0.7853
26030SOL    HW280983   2.506   4.236   4.205  0.1095  0.5393  0.7365
26031SOL     OW80984   9.505   4.273   8.827 -0.8939 -0.5087 -0.0571
26031SOL    HW180985   9.516   4.197   8.884 -0.0634 -0.7351 -0.5046
26031SOL    HW280986   9.581   4.271   8.769 -1.4261  0.0435 -0.7962
26032SOL     OW80987   8.531   4.188   2.452  0.9576  0.2211  0.1658
26032SOL    HW180988   8.498   4.211   2.365  2.1125  0.5681 -0.1960
26032SOL    HW280989   8.537   4.092   2.449  2.7202  0.3276 -0.8135
26033SOL     OW80990   3.668   4.939   2.468  1.0596 -0.7526 -0.2900
26033SOL    HW180991   3.754   4.927   2.509  0.7938  1.3751  1.0663
26033SOL    HW280992   3.667   5.032   2.443 -0.8908 -0.6849 -0.1045
26034SOL     OW80993   0.879   4.488   6.374  0.7037  0.6049 -0.2161
26034SOL    HW180994   0.839   4.521   6.293 -2.1919 -1.1038  0.3619
26034SOL    HW280995   0.858   4.555   6.439  0.4476  0.5998 -0.2928
26035SOL     OW80996   9.283   2.533   6.749  0.0147 -0.2911 -0.6031
26035SOL    HW180997   9.334   2.606   6.785  0.1846 -1.1444  0.9608
26035SOL    HW280998   9.201   2.573   6.720 -0.1720  0.4345  0.8651
26036SOL     OW80999   1.512   9.057   5.935  0.1844 -0.1684  0.2236
26036SOL    HW181000   1.475   9.050   6.023 -2.3013  0.8418 -0.6473
26036SOL    HW281001   1.606   9.071   5.949  0.5003 -3.4510  2.5980
26037SOL     OW81002   7.133   1.553   6.042  0.0311 -0.0892 -0.0421
26037SOL    HW181003   7.155   1.508   6.124 -0.2064 -1.8952 -0.9084
26037SOL    HW281004   7.037   1.554   6.041  0.0206  1.4278  0.4458
26038SOL     OW81005   4.256   0.682   5.707 -0.4654  1.0561 -0.7483
26038SOL    HW181006   4.177   0.650   5.751 -0.5992 -0.1388 -1.8020
26038SOL    HW281007   4.324   0.675   5.774 -0.3568 -2.0778 -1.0178
26039SOL     OW81008   0.347   4.319   8.460 -0.1489  0.4794 -0.0920
26039SOL    HW181009   0.394   4.271   8.392 -0.5349  1.7180 -1.2651
26039SOL    HW281010   0.410   4.383   8.492 -0.5158  1.0547 -0.5146
26040SOL     OW81011   2.016   8.235   0.154 -0.0764 -0.1424  0.3503
26040SOL    HW181012   1.966   8.286   0.089  1.8803  0.3099 -0.8932
26040SOL    HW281013   2.045   8.300   0.218 -0.0070 -0.1929  0.3693
26041SOL     OW81014   6.501   2.910   4.029  0.0201  0.0408 -0.7167
26041SOL    HW181015   6.414   2.917   4.068  0.1114 -2.7621  0.2565
26041SOL    HW281016   6.546   2.990   4.056 -1.7631  0.8226  0.0783
26042SOL     OW81017   2.258   5.282   8.807  0.6025  0.4139  0.7126
26042SOL    HW181018   2.275   5.351   8.742  0.9243  0.7175  1.1134
26042SOL    HW281019   2.345   5.255   8.836  0.4607  1.4801  2.2620
26043SOL     OW81020   4.980   6.488   5.053  0.0942  0.2944 -0.2095
26043SOL    HW181021   5.075   6.494   5.045  0.2110 -0.9350  0.0714
26043SOL    HW281022   4.965   6.477   5.147 -0.3638  0.9322 -0.2010
26044SOL     OW81023   2.181   6.144   4.956 -0.5393 -0.1774  0.8400
26044SOL    HW181024   2.166   6.082   5.028  0.0968 -1.3553 -0.0116
26044SOL    HW281025   2.184   6.229   4.999  0.5949 -0.9163  2.3513
26045SOL     OW81026   6.754   6.578   4.365  0.0956  0.6098  0.1974
26045SOL    HW181027   6.705   6.520   4.424  2.2155 -1.1651  0.3577
26045SOL    HW281028   6.839   6.535   4.355  1.3297  3.0783 -0.7549
26046SOL     OW81029   6.988   6.216   5.605  0.2860 -0.2549  0.4060
26046SOL    HW181030   7.053   6.165   5.653  1.2371  1.5935  1.1949
26046SOL    HW281031   6.915   6.156   5.593  1.7049 -2.0718  0.4298
26047SOL     OW81032   5.169   5.032   7.637 -0.1680  0.0229  0.2376
26047SOL    HW181033   5.080   5.050   7.667 -0.3979 -0.5477 -0.0971
26047SOL    HW281034   5.181   4.938   7.649 -0.1578 -0.1726 -1.1456
26048SOL     OW81035   7.626   3.374   0.399  0.5151  0.4459 -0.1147
26048SOL    HW181036   7.586   3.290   0.423  1.8315  0.0314  0.7150
26048SOL    HW281037   7.720   3.359   0.406  0.7683  2.2517  0.9662
26049SOL     OW81038   6.793   7.382   6.969  0.3352 -0.0067 -0.0642
26049SOL    HW181039   6.836   7.343   6.893 -0.5960 -3.0755  0.8266
26049SOL    HW281040   6.716   7.425   6.934  1.0014  0.4087 -1.0500
26050SOL     OW81041   3.828   2.745   5.505 -0.3895  0.0608  0.2190
26050SOL    HW181042   3.829   2.670   5.446  2.5509  0.0038  0.1986
26050SOL    HW281043   3.919   2.756   5.531 -1.1636  1.8675  2.5125
26051SOL     OW81044   7.287   6.688   1.868 -0.3170  0.4588  0.5294
26051SOL    HW181045   7.354   6.675   1.801 -1.1837  0.0283 -0.2794
26051SOL    HW281046   7.309   6.772   1.908  0.3311  0.6303 -0.1702
26052SOL     OW81047   5.504   3.361   0.005 -0.0985  0.2998 -1.0691
26052SOL    HW181048   5.490   3.396   0.094  0.8445 -0.6795 -0.5131
26052SOL    HW281049   5.415   3.347  -0.029 -0.4938 -0.7820  0.3272
26053SOL     OW81050   9.087   3.601   2.649  0.0196 -0.4003  0.0544
26053SOL    HW181051   9.067   3.668   2.584 -0.1666  0.0810  0.6009
26053SOL    HW281052   9.159   3.551   2.611 -0.7690 -0.7978 -0.9907
26054SOL     OW81053   2.692   9.083   5.678 -0.1311 -0.1474 -0.3239
26054SOL    HW181054   2.757   9.013   5.688 -0.8804 -0.7422  0.5407
26054SOL    HW281055   2.723   9.153   5.735 -0.7714 -0.8339  0.8963
26055SOL     OW81056   5.409   6.991   9.540 -0.0398  0.5216  0.1252
26055SOL    HW181057   5.402   7.056   9.610 -1.5287  0.3645  0.1515
26055SOL    HW281058   5.353   6.919   9.568 -0.8179  0.5316 -1.3076
26056SOL     OW81059   8.591   7.631   6.718 -0.2530 -0.4157  0.1335
26056SOL    HW181060   8.615   7.721   6.695 -0.3328 -0.9088 -2.1365
26056SOL    HW281061   8.615   7.623   6.810 -1.2613  2.2487  0.7183
26057SOL     OW81062   0.688   0.566   8.152  0.2640 -0.0773 -0.4703
26057SOL    HW181063   0.776   0.598   8.134 -0.4671  3.0596  0.8593
26057SOL    HW281064   0.696   0.521   8.236  0.5546  0.5455 -0.1566
26058SOL     OW81065   0.004   5.610   1.017 -0.2735  0.1883 -0.0954
26058SOL    HW181066   0.085   5.662   1.019 -0.4567  0.4914  1.9109
26058SOL    HW281067  -0.058   5.663   0.968  0.6452  0.0650 -1.4470
26059SOL     OW81068   4.643   6.776   0.464 -0.1405 -0.0742  0.5183
26059SOL    HW181069   4.687   6.693   0.482 -0.5034 -0.5176 -0.5459
26059SOL    HW281070   4.713   6.836   0.441 -0.0239 -0.7457 -1.0570
26060SOL     OW81071   4.467   2.899   1.181  0.0803 -0.2049 -0.0094
26060SOL    HW181072   4.407   2.954   1.131  0.3946  0.7992  0.7019
26060SOL    HW281073   4.536   2.876   1.118 -0.0308  0.2426 -0.2986
26061SOL     OW81074   5.111   3.400   6.761 -0.4776 -0.1366 -0.2565
26061SOL    HW181075   5.135   3.471   6.821  0.0234 -2.0925  2.0159
26061SOL    HW281076   5.149   3.426   6.677 -0.0130  2.1013  0.5688
26062SOL     OW81077   0.232   2.673   5.661 -0.0735 -0.2311  0.3648
26062SOL    HW181078   0.206   2.582   5.672 -0.0982 -0.7643 -2.9438
26062SOL    HW281079   0.272   2.676   5.574  1.7255  2.5630  1.1488
26063SOL     OW81080   1.571   7.649   1.986 -0.3998 -0.3705 -0.0620
26063SOL    HW181081   1.630   7.583   2.021 -0.9391 -0.4033  0.8253
26063SOL    HW281082   1.483   7.616   2.006 -0.7557 -0.6833 -2.0025
26064SOL     OW81083   9.524   8.521   6.489  0.4654 -0.0312 -0.2588
26064SOL    HW181084   9.607   8.519   6.442  0.9037  2.6730  0.2995
26064SOL    HW281085   9.474   8.592   6.448 -0.4564  0.2185  1.2076
26065SOL     OW81086   0.611   3.219   1.019 -0.2894 -0.0360 -0.0083
26065SOL    HW181087   0.556   3.259   0.953 -0.3590  0.1987  0.1902
26065SOL    HW281088   0.700   3.240   0.993 -0.3184  0.0819 -0.0107
26066SOL     OW81089   6.473   0.680   8.213  0.1105  0.2432  0.1258
26066SOL    HW181090   6.432   0.635   8.287 -0.6779 -0.9648 -1.0028
26066SOL    HW281091   6.448   0.772   8.224 -0.5149 -0.0251  1.0238
26067SOL     OW81092   3.412   8.474   6.783 -0.1143 -0.2656 -0.2945
26067SOL    HW181093   3.354   8.481   6.707  0.5895  0.4231 -0.7802
26067SOL    HW281094   3.438   8.382   6.784 -1.6034 -0.7056  0.2318
26068SOL     OW81095   1.023   8.914   5.861 -0.3401  0.2210  0.3594
26068SOL    HW181096   0.966   8.847   5.898 -1.4047 -0.9473 -3.0920
26068SOL    HW281097   1.109   8.874   5.860 -0.3549  0.1385  1.1231
26069SOL     OW81098   4.610   4.831   2.509 -0.2210  0.4718  0.4505
26069SOL    HW181099   4.664   4.760   2.545 -0.2414 -0.4912 -1.3317
26069SOL    HW281100   4.522   4.794   2.503  0.1788 -0.2407 -2.5978
26070SOL     OW81101   8.055   4.701   7.741  0.5928  0.5106  0.1814
26070SOL    HW181102   7.964   4.697   7.709  1.2529 -0.1477 -1.7593
26070SOL    HW281103   8.087   4.786   7.709  1.2436 -0.1252 -0.9107
26071SOL     OW81104   1.093   2.540   2.599 -0.1134  0.7247  0.2840
26071SOL    HW181105   1.056   2.598   2.665  0.1159  1.0143  0.1615
26071SOL    HW281106   1.184   2.529   2.625  0.0235  0.9821 -0.0788
26072SOL     OW81107   1.182   0.305   0.640 -0.0355  0.0539 -0.0334
26072SOL    HW181108   1.089   0.324   0.654  0.1284 -0.2710  1.7223
26072SOL    HW281109   1.198   0.225   0.690  1.4620  0.7871  0.7216
26073SOL     OW81110   1.070   5.360   4.101  0.3069  0.4215 -0.5217
26073SOL    HW181111   1.076   5.338   4.008  0.5606  1.6521 -0.8093
26073SOL    HW281112   0.987   5.408   4.109  1.0294  1.6902 -0.4230
26074SOL     OW81113   5.813   5.987   6.243 -0.0541 -0.8794  0.0537
26074SOL    HW181114   5.764   5.964   6.164 -0.1616  0.7525 -0.3804
26074SOL    HW281115   5.903   6.000   6.212  0.1284 -1.3060  0.3978
26075SOL     OW81116   0.197   2.142   5.368 -0.2623  0.9469  0.6848
26075SOL    HW181117   0.261   2.072   5.373 -1.2680 -0.0549 -0.0056
26075SOL    HW281118   0.249   2.222   5.357  0.8426  0.1243 -0.3029
26076SOL     OW81119   6.450   9.288   4.685  0.2853  0.2855 -0.0157
26076SOL    HW181120   6.504   9.318   4.759 -1.7520 -0.4104  1.8688
26076SOL    HW281121   6.363   9.322   4.704 -1.3081 -3.4114  0.2506
26077SOL     OW81122   6.946   5.596   2.686 -0.0402  0.0458  0.1575
26077SOL    HW181123   6.905   5.662   2.741 -0.4586  0.8349 -1.0864
26077SOL    HW281124   6.916   5.513   2.723 -1.2275  0.5744  0.4218
26078SOL     OW81125   4.632   1.685   6.378  0.4437 -0.4146 -0.5235
26078SOL    HW181126   4.705   1.736   6.344  0.1836 -0.7433 -1.6294
26078SOL    HW281127   4.671   1.626   6.442  1.2625 -1.0199 -1.5510
26079SOL     OW81128   8.850   1.037   7.652  0.1534 -0.2962  0.1109
26079SOL    HW181129   8.932   1.016   7.608  0.2754  0.6320 -0.1206
26079SOL    HW281130   8.862   1.008   7.742  1.3813  1.3472  0.5210
26080SOL     OW81131   5.485   3.171   1.442  0.7584  0.3905  1.0602
26080SOL    HW181132   5.435   3.092   1.425 -0.3895  1.5681 -1.5043
26080SOL    HW281133   5.420   3.236   1.469  1.3094  1.1643  0.5699
26081SOL     OW81134   8.625   2.975   2.815  0.1071  0.0791 -0.3263
26081SOL    HW181135   8.716   3.001   2.824  0.4112 -0.8680 -0.5082
26081SOL    HW281136   8.581   3.012   2.892  0.6143  0.6536 -0.3121
26082SOL     OW81137   4.682   7.288   3.784 -0.5629 -0.1585 -1.3373
26082SOL    HW181138   4.688   7.349   3.710  1.8187 -1.4864 -2.3439
26082SOL    HW281139   4.702   7.203   3.746 -2.8604 -1.4912  0.2110
26083SOL     OW81140   0.023   7.690   8.167 -0.0703 -0.4230  0.5073
26083SOL    HW181141  -0.059   7.726   8.202 -1.7507 -2.9691 -0.5325
26083SOL    HW281142   0.006   7.596   8.157  3.0326 -1.0604  0.3063
26084SOL     OW81143   4.485   7.714   6.582  0.1748 -0.7067  0.1790
26084SOL    HW181144   4.394   7.743   6.586  0.7705  1.2187  0.6184
26084SOL    HW281145   4.507   7.692   6.673  0.6942  0.6666  0.3991
26085SOL     OW81146   5.973   0.113   0.306  0.0577 -0.1436 -0.3330
26085SOL    HW181147   5.922   0.130   0.385 -0.4003 -0.1988 -0.6165
26085SOL    HW281148   6.057   0.080   0.339  0.8575  2.2359  0.2238
26086SOL     OW81149   2.213   7.628   2.252  0.1734 -0.0252  0.0764
26086SOL    HW181150   2.240   7.635   2.160 -0.9396 -1.1997 -0.3889
26086SOL    HW281151   2.129   7.675   2.255  1.2439  1.9207  1.0381
26087SOL     OW81152   7.926   8.436   0.469  0.3574  0.1256  0.4787
26087SOL    HW181153   7.904   8.344   0.477 -0.3892  0.3045  0.5499
26087SOL    HW281154   7.909   8.458   0.377  0.8530  0.1133  0.3819
26088SOL     OW81155   7.291   4.722   2.468 -0.2745 -0.2394  0.3043
26088SOL    HW181156   7.355   4.656   2.440 -0.5812 -0.5407  0.3158
26088SOL    HW281157   7.345   4.797   2.493  0.0598 -0.3568 -0.0454
26089SOL     OW81158   3.247   4.923   1.006 -0.4610  0.2659 -0.2237
26089SOL    HW181159   3.232   4.888   0.918 -0.1983  3.1657 -1.5122
26089SOL    HW281160   3.333   4.964   1.001  0.1071 -0.5332  1.8007
26090SOL     OW81161   9.472   0.158   1.625 -0.0099 -0.2971 -0.3109
26090SOL    HW181162   9.418   0.227   1.664 -1.4540 -0.8056 -1.3376
26090SOL    HW281163   9.562   0.181   1.649 -0.6669  0.4678  1.6306
26091SOL     OW81164   1.543   9.294   0.309  0.0424  0.4883 -0.1810
26091SOL    HW181165   1.624   9.282   0.259 -0.1106  1.9273 -0.8195
26091SOL    HW281166   1.501   9.370   0.269 -1.4291  0.0313  0.4152
26092SOL     OW81167   7.713   4.219   8.752  0.4638 -0.1124  0.3702
26092SOL    HW181168   7.654   4.162   8.702  0.8632 -1.8573  1.7700
26092SOL    HW281169   7.801   4.193   8.723  0.6449  2.2548 -1.4724
26093SOL     OW81170   4.697   9.585   0.268  0.7153  0.1467 -0.0015
26093SOL    HW181171   4.645   9.533   0.207  0.2954 -0.0675  0.5281
26093SOL    HW281172   4.777   9.535   0.280  1.5445  0.9867 -1.6407
26094SOL     OW81173   2.957   7.886   8.660 -0.8353 -0.0650  0.3199
26094SOL    HW181174   2.898   7.913   8.590  1.8239  0.9011 -1.7343
26094SOL    HW281175   2.975   7.794   8.641 -0.9356 -0.0949  0.3690
26095SOL     OW81176   5.544   2.579   7.601  0.2454  0.4395 -0.1865
26095SOL    HW181177   5.519   2.666   7.568  1.1466 -0.0042 -2.2059
26095SOL    HW281178   5.514   2.518   7.533 -1.2599 -0.9702  1.6508
26096SOL     OW81179   0.847   8.943   4.264  0.1050  0.3808  0.1669
26096SOL    HW181180   0.839   8.884   4.189 -3.1828  0.0129  0.6748
26096SOL    HW281181   0.840   9.031   4.227 -1.1089  0.2154 -0.0215
26097SOL     OW81182   3.924   1.607   2.104 -0.3568  0.7200 -0.3677
26097SOL    HW181183   3.871   1.632   2.180  1.4902  0.2354  1.1482
26097SOL    HW281184   3.985   1.680   2.093 -0.8384  0.9573 -1.6619
26098SOL     OW81185   5.320   6.542   6.011  0.1195 -0.4740  0.0047
26098SOL    HW181186   5.254   6.495   6.064  0.7445 -2.4142 -0.8584
26098SOL    HW281187   5.362   6.474   5.960  0.8781  1.1142 -1.5741
26099SOL     OW81188   7.382   1.368   7.317  0.3886  0.2271 -0.2002
26099SOL    HW181189   7.324   1.315   7.371  0.0623  0.5069 -0.2698
26099SOL    HW281190   7.436   1.305   7.270  1.9341 -0.0289  1.7651
26100SOL     OW81191   0.610   4.515   2.719 -0.1620 -0.5859 -0.7088
26100SOL    HW181192   0.653   4.484   2.798 -0.9131  2.3866  1.0435
26100SOL    HW281193   0.673   4.576   2.680 -0.9594  0.2781 -0.6817
26101SOL     OW81194   7.643   5.183   3.595  0.0141  0.0806  0.8226
26101SOL    HW181195   7.671   5.099   3.558 -0.5347  0.1468  0.2389
26101SOL    HW281196   7.567   5.161   3.650  1.5737 -0.2075  2.9974
26102SOL     OW81197   0.992   2.248   8.705  0.1584 -0.0294 -0.5622
26102SOL    HW181198   0.968   2.307   8.634  0.6333  0.9383  0.0582
26102SOL    HW281199   1.005   2.305   8.781 -0.3986 -1.0399  0.3275
26103SOL     OW81200   3.971   3.597   0.065 -0.5761 -0.6943  0.1211
26103SOL    HW181201   3.990   3.632   0.152  0.3256 -1.6534  0.3349
26103SOL    HW281202   3.889   3.550   0.075 -0.4379 -0.8642  0.4776
26104SOL     OW81203   1.493   3.570   6.587  0.5497 -0.4558 -0.1619
26104SOL    HW181204   1.552   3.526   6.525  1.3969  2.4703 -1.6321
26104SOL    HW281205   1.415   3.590   6.535 -0.4508 -1.4660  0.8995
26105SOL     OW81206   4.581   1.604   6.954 -0.1441  0.1661  0.2638
26105SOL    HW181207   4.511   1.585   7.016  0.5315 -0.0775  0.9502
26105SOL    HW281208   4.590   1.700   6.957  0.3591  0.0943  1.0528
26106SOL     OW81209   3.820   1.016   2.813 -0.3104 -0.0927  0.3092
26106SOL    HW181210   3.730   0.988   2.801  0.2301 -1.1952 -1.4859
26106SOL    HW281211   3.813   1.099   2.861 -2.2053 -0.5957  0.9986
26107SOL     OW81212   3.565   7.538   3.764 -0.4209  0.2839 -0.3497
26107SOL    HW181213   3.494   7.565   3.707 -0.4543 -1.3722 -1.1578
26107SOL    HW281214   3.633   7.603   3.751 -0.7665  0.4082 -1.6330
26108SOL     OW81215   6.376   8.097   1.311 -0.4882 -0.0479 -0.1537
26108SOL    HW181216   6.323   8.033   1.263  1.3960 -2.5786  0.9049
26108SOL    HW281217   6.327   8.112   1.392 -0.1889 -1.4850  0.3202
26109SOL     OW81218   0.402   3.188   3.477 -0.2844  0.5216  0.4107
26109SOL    HW181219   0.351   3.117   3.438  1.9331 -0.9505  0.0319
26109SOL    HW281220   0.380   3.183   3.571 -0.3505 -0.5079  0.3567
26110SOL     OW81221   6.381   5.453   0.103  0.3086  0.3254  0.0984
26110SOL    HW181222   6.395   5.381   0.164 -1.5661 -0.5230 -0.3720
26110SOL    HW281223   6.460   5.455   0.049  0.4095 -1.3992  0.1243
26111SOL     OW81224   1.810   8.239   2.175  0.4486  0.4466 -0.2460
26111SOL    HW181225   1.819   8.180   2.250  0.1093  0.2741 -0.3398
26111SOL    HW281226   1.798   8.182   2.100 -0.0120  0.6362 -0.3201
26112SOL     OW81227   7.708   8.148   2.697  0.1036  0.2476 -0.1577
26112SOL    HW181228   7.669   8.067   2.732  3.0436 -1.8820 -1.4150
26112SOL    HW281229   7.802   8.136   2.707  0.9647  1.3517 -4.6856
26113SOL     OW81230   6.665   5.832   1.694  0.3258  0.0753 -0.0696
26113SOL    HW181231   6.688   5.918   1.730  1.4364  0.3808 -1.4432
26113SOL    HW281232   6.735   5.774   1.724 -0.4236 -0.3829  0.8570
26114SOL     OW81233   1.587   7.514   4.447  0.1016 -0.1052  0.0886
26114SOL    HW181234   1.627   7.458   4.381 -1.9020 -2.7273  0.9068
26114SOL    HW281235   1.511   7.464   4.477 -0.6568  2.2217  2.3810
26115SOL     OW81236   8.112   2.174   3.969 -0.4626 -0.8423  0.4553
26115SOL    HW181237   8.168   2.107   4.008 -0.2862 -0.1090  1.5347
26115SOL    HW281238   8.027   2.162   4.011  0.1738  1.0408  2.4844
26116SOL     OW81239   6.769   2.987   6.538  0.0613 -0.4400  0.4561
26116SOL    HW181240   6.707   3.056   6.514 -1.3068 -0.3551  3.7811
26116SOL    HW281241   6.848   3.034   6.565  0.1485 -0.3373  0.0280
26117SOL     OW81242   5.883   2.889   6.254  0.0464 -0.2839 -0.3677
26117SOL    HW181243   5.948   2.848   6.311  0.2385  0.1790 -0.2443
26117SOL    HW281244   5.801   2.881   6.301 -0.0564 -1.1804 -0.6794
26118SOL     OW81245   1.201   2.920   6.372 -0.0596  0.4361 -0.6426
26118SOL    HW181246   1.297   2.919   6.373 -0.0454  0.4565 -1.3504
26118SOL    HW281247   1.176   2.827   6.378 -0.0215  0.4951  0.5839
26119SOL     OW81248   9.188   0.114   0.956  0.6882  0.4209  0.1948
26119SOL    HW181249   9.175   0.036   1.010 -0.1851 -0.1647 -0.8270
26119SOL    HW281250   9.282   0.131   0.962  1.1623 -1.5877 -0.7013
26120SOL     OW81251   3.369   4.486   0.619  0.1432  0.2908  0.1335
26120SOL    HW181252   3.437   4.533   0.570 -1.4001  0.7055 -1.7280
26120SOL    HW281253   3.386   4.509   0.710  1.3243  1.9680 -0.4404
26121SOL     OW81254   6.018   3.695   4.143  0.6867  0.1996  0.3823
26121SOL    HW181255   6.031   3.630   4.074 -0.3675 -3.2164  3.0814
26121SOL    HW281256   5.924   3.714   4.140  0.5649 -0.2503  1.0258
26122SOL     OW81257   2.571   1.660   1.205 -0.3731 -0.4214 -0.1254
26122SOL    HW181258   2.593   1.613   1.285 -2.2916  0.6584  1.1308
26122SOL    HW281259   2.566   1.592   1.137 -0.7237 -1.6720  1.1100
26123SOL     OW81260   3.968   7.991   4.776 -0.0146  0.0398  0.4745
26123SOL    HW181261   4.009   8.072   4.806 -0.0794 -0.8128  3.1350
26123SOL    HW281262   3.898   7.975   4.839 -0.2024 -1.9174 -0.1531
26124SOL     OW81263   9.468   1.320   0.484 -0.5546  0.0693  0.1719
26124SOL    HW181264   9.517   1.401   0.498 -0.6407  0.1587 -0.0369
26124SOL    HW281265   9.525   1.251   0.516 -1.1970  0.3533  2.0368
26125SOL     OW81266   9.479   4.646   9.233  0.0538  0.1847 -0.1054
26125SOL    HW181267   9.536   4.589   9.286  0.2763  0.7555  0.2728
26125SOL    HW281268   9.537   4.684   9.168 -0.3884 -1.2545 -1.4122
26126SOL     OW81269   6.628   5.092   6.333 -0.5622  0.0361  0.5551
26126SOL    HW181270   6.662   5.044   6.257 -2.5358 -3.1266  1.4694
26126SOL    HW281271   6.561   5.150   6.296  1.4633  1.8323 -0.5216
26127SOL     OW81272   2.720   0.975   1.730  0.3861 -0.2265  0.1686
26127SOL    HW181273   2.752   1.054   1.687  0.4202 -0.8011 -0.8885
26127SOL    HW281274   2.712   0.999   1.822  0.0249  1.1229 -0.2007
26128SOL     OW81275   6.612   6.942   4.968 -0.5533 -0.6342  0.3633
26128SOL    HW181276   6.520   6.963   4.950 -0.2537 -0.4125 -1.0148
26128SOL    HW281277   6.610   6.896   5.052 -1.6042  1.9747  1.9045
26129SOL     OW81278   4.949   3.009   4.865  0.4109 -0.6859 -0.7978
26129SOL    HW181279   5.031   2.962   4.853 -0.3718 -2.1266 -0.7994
26129SOL    HW281280   4.943   3.025   4.959  0.8713 -0.2218 -0.8449
26130SOL     OW81281   3.297   9.305   4.335  0.3118 -0.2480  0.2903
26130SOL    HW181282   3.224   9.272   4.281  0.2946 -1.9720  1.2930
26130SOL    HW281283   3.289   9.400   4.330 -0.6631 -0.3698 -1.4186
26131SOL     OW81284   8.499   7.456   9.560  0.3844  0.2767 -0.6162
26131SOL    HW181285   8.528   7.384   9.615 -0.2884  1.1092  0.9028
26131SOL    HW281286   8.579   7.506   9.542  0.6539 -0.1524 -0.6027
26132SOL     OW81287   7.220   0.252   7.066  0.0398  0.0996 -0.3043
26132SOL    HW181288   7.160   0.248   6.992 -1.2031  0.8372  0.6129
26132SOL    HW281289   7.220   0.164   7.103 -0.5176  0.1095 -0.2814
26133SOL     OW81290   4.965   9.483   8.199 -0.6583  0.3959  0.1380
26133SOL    HW181291   4.980   9.416   8.266  1.2503 -0.7445 -1.3294
26133SOL    HW281292   4.897   9.445   8.143  0.0823 -0.1391 -0.4178
26134SOL     OW81293   1.873   3.264   6.455  0.1673 -0.0957  0.6784
26134SOL    HW181294   1.875   3.359   6.469 -0.1054 -0.2701  1.9871
26134SOL    HW281295   1.903   3.226   6.537  0.6966 -1.1516  0.0274
26135SOL     OW81296   1.443   9.280   2.308 -0.2342 -0.0833  0.3173
26135SOL    HW181297   1.487   9.291   2.392  0.6054 -1.9868  0.1756
26135SOL    HW281298   1.351   9.295   2.327  0.0538  0.4474  1.3649
26136SOL     OW81299   2.612   0.509   7.764 -0.4561  0.5309  0.1020
26136SOL    HW181300   2.586   0.601   7.755 -0.5273  0.3569 -1.9113
26136SOL    HW281301   2.596   0.488   7.856 -0.8277  2.4119  0.4962
26137SOL     OW81302   4.140   7.445   2.050 -0.2164  0.7862 -0.1068
26137SOL    HW181303   4.063   7.389   2.044 -0.0666  0.6936 -1.4618
26137SOL    HW281304   4.211   7.386   2.076 -0.1155  0.3886 -1.2475
26138SOL     OW81305   8.780   8.434   1.642  0.7333 -0.2446 -0.0899
26138SOL    HW181306   8.703   8.467   1.594  0.8832  0.0836 -0.1094
26138SOL    HW281307   8.744   8.377   1.709  0.4811 -0.2302 -0.2105
26139SOL     OW81308   6.804   3.565   5.763  0.0192 -0.6973  0.5622
26139SOL    HW181309   6.788   3.648   5.809  2.4440  0.4318 -0.4430
26139SOL    HW281310   6.730   3.557   5.702 -1.3710 -0.4182  2.1479
26140SOL     OW81311   5.060   3.022   8.896 -0.6417 -0.4523  0.2503
26140SOL    HW181312   5.128   2.982   8.949  0.5504 -1.3768 -1.8302
26140SOL    HW281313   4.980   3.014   8.948  0.3193 -1.8873  1.5921
26141SOL     OW81314   8.746   4.550   1.201 -0.6050 -0.3152  0.2598
26141SOL    HW181315   8.721   4.506   1.282  1.0487 -1.0808  0.3855
26141SOL    HW281316   8.664   4.558   1.152 -1.1428 -2.5508  0.7142
26142SOL     OW81317   0.813   0.514   5.657  0.2516 -0.1203 -0.5510
26142SOL    HW181318   0.734   0.512   5.603  0.7893 -0.7466 -1.3509
26142SOL    HW281319   0.837   0.421   5.666 -0.3381 -0.1034  1.5540
26143SOL     OW81320   0.075   2.477   5.117 -0.1454  0.1868  0.2701
26143SOL    HW181321   0.096   2.565   5.086 -0.5569  0.8754  1.8598
26143SOL    HW281322   0.042   2.431   5.039 -0.2213  1.5234 -0.5144
26144SOL     OW81323   1.158   2.152   5.494  0.3112 -0.0901  0.2754
26144SOL    HW181324   1.160   2.057   5.486 -0.4450 -0.1901  1.1941
26144SOL    HW281325   1.250   2.177   5.506  0.5999 -0.6199 -0.7498
26145SOL     OW81326   7.511   5.361   4.825 -0.0199 -0.0929  0.0143
26145SOL    HW181327   7.544   5.281   4.785  1.3239  0.7928 -0.7396
26145SOL    HW281328   7.453   5.398   4.759  0.3852  0.1999 -0.1831
26146SOL     OW81329   5.442   0.084   8.236 -0.3544  0.3546 -0.0478
26146SOL    HW181330   5.474   0.008   8.285  0.3317  0.2759 -0.6020
26146SOL    HW281331   5.348   0.088   8.256 -0.4528 -0.8039 -0.2351
26147SOL     OW81332   2.081   7.141   3.465  0.2640  0.5019 -0.4123
26147SOL    HW181333   2.109   7.229   3.443 -1.0243  0.9554 -0.3549
26147SOL    HW281334   1.994   7.133   3.426 -0.0873 -0.3522  0.4941
26148SOL     OW81335   4.389   4.826   6.541 -0.0900 -0.6804 -0.1967
26148SOL    HW181336   4.414   4.746   6.587 -0.8613 -2.0494 -2.0456
26148SOL    HW281337   4.367   4.888   6.611  0.2192 -2.1658  1.2718
26149SOL     OW81338   9.141   6.006   3.545  0.2701 -0.0239  0.0488
26149SOL    HW181339   9.184   6.020   3.461  0.2402 -0.7928 -0.1024
26149SOL    HW281340   9.049   6.026   3.528  0.6044  2.0626  0.4863
26150SOL     OW81341   2.916   4.830   4.845 -0.1330  0.0134  0.7382
26150SOL    HW181342   2.847   4.763   4.852 -0.3853  0.0723 -0.8954
26150SOL    HW281343   2.997   4.783   4.866 -0.5441 -0.3081  1.6271
26151SOL     OW81344   1.647   2.742   8.706  0.4179  0.6530  0.2957
26151SOL    HW181345   1.574   2.680   8.707 -1.1411  2.2671 -1.6891
26151SOL    HW281346   1.606   2.828   8.720  2.2317  1.4389  1.1475
26152SOL     OW81347   5.282   8.341   8.451  0.1106 -0.3832  0.7542
26152SOL    HW181348   5.206   8.330   8.395  0.2441  0.1387  0.4561
26152SOL    HW281349   5.320   8.254   8.459  0.1960 -0.4424 -0.1353
26153SOL     OW81350   6.854   4.598   0.010  0.0553 -0.7540 -0.0265
26153SOL    HW181351   6.890   4.651  -0.061 -0.2411  0.5975  0.7788
26153SOL    HW281352   6.887   4.510  -0.005  0.1646 -0.4548 -1.7090
26154SOL     OW81353   6.755   6.112   3.451 -0.2766 -0.2830  0.2722
26154SOL    HW181354   6.788   6.051   3.517 -0.7350 -1.2510 -0.3703
26154SOL    HW281355   6.701   6.174   3.501 -0.9467 -1.2354  0.7646
26155SOL     OW81356   4.397   1.647   7.136  0.8875 -0.0288  0.1832
26155SOL    HW181357   4.362   1.735   7.144  0.8813  0.3225 -2.6969
26155SOL    HW281358   4.320   1.590   7.144  0.5961  0.3438  0.0597
26156SOL     OW81359   7.169   4.222   7.932  0.2775 -0.7306 -0.1597
26156SOL    HW181360   7.134   4.267   8.009 -0.8501  1.3750 -1.7735
26156SOL    HW281361   7.108   4.151   7.916 -0.9450  0.3514 -0.5004
26157SOL     OW81362   2.811   2.932   2.007  0.6256  0.1518 -0.6040
26157SOL    HW181363   2.742   2.867   2.020  2.2508 -1.3079  1.5037
26157SOL    HW281364   2.822   2.936   1.912 -0.5861 -1.5306 -0.8675
26158SOL     OW81365   7.629   9.006   7.131 -0.6813 -0.0216  0.1276
26158SOL    HW181366   7.673   9.080   7.173 -1.4110 -0.2397  1.3119
26158SOL    HW281367   7.547   9.041   7.098 -1.3550 -0.4087  1.3056
26159SOL     OW81368   3.923   6.897   4.951 -0.3776  0.1004  0.1781
26159SOL    HW181369   3.837   6.877   4.986 -0.0762 -1.6071  0.0659
26159SOL    HW281370   3.984   6.878   5.023  0.1339 -2.1479 -0.7479
26160SOL     OW81371   0.343   6.171   1.785  0.2098  0.0146 -0.1197
26160SOL    HW181372   0.277   6.240   1.781  0.6283  0.3905 -0.7216
26160SOL    HW281373   0.425   6.215   1.759  1.0158 -0.0652  2.0826
26161SOL     OW81374   2.197   3.374   2.225 -0.1374  0.7125 -0.9854
26161SOL    HW181375   2.161   3.419   2.302  1.3018  1.5882 -0.7933
26161SOL    HW281376   2.217   3.285   2.256 -1.8403  0.2755 -1.0366
26162SOL     OW81377   4.196   8.623   5.206  0.0642  0.1501  0.2661
26162SOL    HW181378   4.169   8.574   5.284  0.0812  1.2418  0.9811
26162SOL    HW281379   4.291   8.618   5.207  0.1362  1.3068  1.1059
26163SOL     OW81380   2.896   8.849   2.102 -0.5661 -0.4240  0.0484
26163SOL    HW181381   2.818   8.903   2.117 -0.2746 -0.2802  1.1581
26163SOL    HW281382   2.901   8.793   2.180  0.1859 -0.7378 -0.2231
26164SOL     OW81383   0.396   2.872   1.890  0.1732  0.9048 -0.0414
26164SOL    HW181384   0.488   2.901   1.886  0.4050  1.3331  3.8915
26164SOL    HW281385   0.348   2.952   1.912 -0.9666  0.4296 -0.7638
26165SOL     OW81386   6.839   8.515   5.819  0.1910 -0.0523 -0.6137
26165SOL    HW181387   6.925   8.551   5.841  0.5661 -2.3355  2.2084
26165SOL    HW281388   6.857   8.451   5.751  0.5860  0.0721 -0.6307
26166SOL     OW81389   8.007   1.537   6.068  0.5171 -0.1664 -0.9772
26166SOL    HW181390   8.014   1.627   6.036 -0.2806  0.1768 -0.2341
26166SOL    HW281391   8.046   1.484   5.999  0.8775  0.7384 -1.4877
26167SOL     OW81392   6.677   4.329   5.406  0.2629  0.2763 -0.9104
26167SOL    HW181393   6.655   4.262   5.471 -3.4115  0.2141 -1.9518
26167SOL    HW281394   6.726   4.395   5.455 -0.8259 -0.5908  1.5270
26168SOL     OW81395   5.788   5.551   5.911 -0.3723  0.1212 -0.2685
26168SOL    HW181396   5.853   5.594   5.967  2.0347 -1.2502 -1.8333
26168SOL    HW281397   5.839   5.510   5.841 -2.8885 -1.5853 -1.2770
26169SOL     OW81398   4.496   4.723   5.766  0.3169  0.2368 -0.2234
26169SOL    HW181399   4.587   4.701   5.783  0.5425  1.6513  0.6144
26169SOL    HW281400   4.456   4.728   5.853  0.2630  2.7745 -0.3027
26170SOL     OW81401   1.351   9.296   7.102 -0.4111 -0.1238  0.2295
26170SOL    HW181402   1.340   9.342   7.018  0.8460  0.3781  0.3336
26170SOL    HW281403   1.261   9.281   7.132 -0.8801  2.7625  0.4785
26171SOL     OW81404   3.696   0.390   9.067  0.2401  0.3067 -0.2787
26171SOL    HW181405   3.721   0.461   9.126  2.7062 -0.8945  0.2265
26171SOL    HW281406   3.741   0.313   9.101 -1.4854 -1.3076 -1.4467
26172SOL     OW81407   1.366   6.770   1.927  0.5417 -0.1263  0.1663
26172SOL    HW181408   1.379   6.827   2.002 -0.6574  0.6427 -0.1782
26172SOL    HW281409   1.281   6.728   1.943  1.2694 -1.6256  0.2746
26173SOL     OW81410   5.270   8.099   5.856  0.3733 -0.4502 -0.1516
26173SOL    HW181411   5.329   8.090   5.931  0.7091  0.7062 -0.2570
26173SOL    HW281412   5.193   8.144   5.890  0.2231 -0.5576 -0.3483
26174SOL     OW81413   2.954   6.060   6.269 -0.3009  0.5579  0.1125
26174SOL    HW181414   3.030   6.118   6.269 -1.2959  1.8931 -0.3266
26174SOL    HW281415   2.992   5.972   6.277  1.4796  0.9745 -2.3312
26175SOL     OW81416   4.191   6.158   1.021 -0.0974 -0.4555  0.3738
26175SOL    HW181417   4.181   6.253   1.014  0.2983 -0.3775  0.8448
26175SOL    HW281418   4.106   6.128   1.055 -0.7336 -0.4386 -1.0966
26176SOL     OW81419   3.304   2.294   4.251  0.0494  0.0830  0.0749
26176SOL    HW181420   3.298   2.348   4.173  1.1672 -0.3656 -0.3408
26176SOL    HW281421   3.381   2.327   4.298  0.9398 -1.3117 -0.3416
26177SOL     OW81422   9.487   3.159   2.529 -0.4153 -0.0623  0.4055
26177SOL    HW181423   9.496   3.066   2.505 -3.6956 -0.4181  0.1715
26177SOL    HW281424   9.522   3.206   2.453 -2.1451 -1.1768 -1.1655
26178SOL     OW81425   8.189   2.993   8.595  0.2348  0.3060 -0.3076
26178SOL    HW181426   8.123   3.055   8.565 -0.2412 -0.0193  0.0456
26178SOL    HW281427   8.213   3.026   8.682 -0.0576 -0.0249 -0.0972
26179SOL     OW81428   9.016   9.151   5.377  0.3194 -0.3675 -0.5057
26179SOL    HW181429   8.980   9.132   5.290  0.4963 -0.1714 -0.6219
26179SOL    HW281430   8.994   9.074   5.429 -2.1759  0.5903  0.0206
26180SOL     OW81431   8.177   2.239   3.175 -0.1368 -0.3749 -0.6753
26180SOL    HW181432   8.266   2.231   3.210 -0.5367  0.3383  0.5962
26180SOL    HW281433   8.125   2.181   3.231 -0.3236 -1.6751 -2.1308
26181SOL     OW81434   0.919   3.105   7.819  0.7608  0.7140 -0.0441
26181SOL    HW181435   0.902   3.165   7.746 -0.3190  1.2612  0.6253
26181SOL    HW281436   0.879   3.148   7.895 -0.2755 -0.9732  0.4180
26182SOL     OW81437   9.616   2.059   3.737  0.0926 -0.1705  0.4047
26182SOL    HW181438   9.639   2.150   3.716  0.1573 -0.6231 -1.6331
26182SOL    HW281439   9.537   2.067   3.791 -0.1505  1.0846 -0.0876
26183SOL     OW81440   4.319   7.090   6.131  0.1612 -0.6372  0.0084
26183SOL    HW181441   4.384   7.032   6.169  0.2778 -0.3309  0.2854
26183SOL    HW281442   4.240   7.075   6.182  0.1634 -0.6271  0.0147
26184SOL     OW81443   5.048   1.059   9.153 -0.4994  0.2421 -0.0548
26184SOL    HW181444   5.022   0.975   9.193  0.1118 -1.1071 -2.3116
26184SOL    HW281445   5.140   1.068   9.176 -0.9352  1.1655  1.5154
26185SOL     OW81446   7.803   0.164   2.038  0.2977  0.3279 -0.2164
26185SOL    HW181447   7.750   0.092   2.072  0.0981 -0.6247 -2.3375
26185SOL    HW281448   7.880   0.167   2.095  1.6124 -3.3335 -1.4740
26186SOL     OW81449   6.345   5.032   9.629 -0.8448  0.4310 -0.2220
26186SOL    HW181450   6.307   5.099   9.573  1.1328 -0.2209 -2.4907
26186SOL    HW281451   6.438   5.054   9.634 -0.6226 -0.6560  1.1963
26187SOL     OW81452   3.527   3.722   6.668 -0.1156 -0.3363  0.2901
26187SOL    HW181453   3.461   3.788   6.690 -1.2246 -1.2500 -0.1947
26187SOL    HW281454   3.478   3.640   6.666  0.5903 -0.7756 -2.1121
26188SOL     OW81455   5.131   1.711   2.877  0.6672 -0.2550  0.0870
26188SOL    HW181456   5.145   1.620   2.851  0.6223  0.0007 -0.8449
26188SOL    HW281457   5.039   1.715   2.902  0.4339 -0.2519 -0.7631
26189SOL     OW81458   7.721   2.640   2.441 -0.0651 -0.2084 -0.2499
26189SOL    HW181459   7.710   2.596   2.525  0.0312 -3.0219 -1.5874
26189SOL    HW281460   7.815   2.658   2.434 -0.0093 -0.3923  0.0462
26190SOL     OW81461   4.423   3.542   3.109 -0.1933  0.4045 -0.6884
26190SOL    HW181462   4.334   3.519   3.081 -0.5146  1.5530 -0.6664
26190SOL    HW281463   4.432   3.503   3.196 -0.8882  0.7623 -0.4531
26191SOL     OW81464   5.103   1.348   7.604  0.5171  0.0760 -0.1649
26191SOL    HW181465   5.160   1.376   7.533 -2.8215 -0.5198 -3.4149
26191SOL    HW281466   5.106   1.252   7.601 -0.0464  0.0412  0.1428
26192SOL     OW81467   7.600   0.495   9.264  0.0453  0.0886 -0.6317
26192SOL    HW181468   7.507   0.481   9.246 -0.7108  3.0539  0.3284
26192SOL    HW281469   7.620   0.577   9.218  1.8066  0.2601  0.3733
26193SOL     OW81470   1.637   7.877   2.186  0.5734 -0.1584  0.4286
26193SOL    HW181471   1.595   7.794   2.162 -2.5755  0.9496  1.7165
26193SOL    HW281472   1.715   7.850   2.235  0.7530 -2.3269 -0.8944
26194SOL     OW81473   2.099   1.429   1.683 -0.1417  0.5202 -0.1744
26194SOL    HW181474   2.183   1.390   1.705 -0.7764 -0.3025  0.8750
26194SOL    HW281475   2.093   1.419   1.588 -1.1473 -3.9884  0.1379
26195SOL     OW81476   5.848   2.722   3.488  0.8511 -0.2747  0.1724
26195SOL    HW181477   5.846   2.663   3.413 -0.8632 -0.7112  0.5320
26195SOL    HW281478   5.835   2.809   3.450  0.7897 -0.4003 -0.0963
26196SOL     OW81479   1.651   7.259   2.281 -0.1231  0.4028 -0.4237
26196SOL    HW181480   1.665   7.206   2.360 -0.1168 -0.9889 -1.3130
26196SOL    HW281481   1.739   7.276   2.247 -0.1268  0.9774 -0.1525
26197SOL     OW81482   8.378   4.417   3.793 -0.3887  0.1303 -0.5470
26197SOL    HW181483   8.406   4.329   3.815 -0.5219 -0.2723 -1.9006
26197SOL    HW281484   8.459   4.469   3.792 -0.0318 -0.4141 -1.6571
26198SOL     OW81485   0.331   3.536   4.167 -0.2251  0.1772  1.2522
26198SOL    HW181486   0.320   3.446   4.199  0.0079  0.3180  1.7420
26198SOL    HW281487   0.425   3.546   4.156 -0.3717 -0.3580 -0.9740
26199SOL     OW81488   5.373   5.296   8.145 -0.1585  0.2508  0.2600
26199SOL    HW181489   5.367   5.322   8.237  2.0775 -0.3439  0.6537
26199SOL    HW281490   5.359   5.377   8.096 -1.4700  0.5564  1.1058
26200SOL     OW81491   8.571   5.641   6.409 -0.6396  0.6353 -0.5248
26200SOL    HW181492   8.624   5.634   6.330  0.1725  1.5599 -0.0780
26200SOL    HW281493   8.483   5.616   6.381  0.1024 -1.5107 -1.1627
26201SOL     OW81494   5.360   6.721   1.800  0.3065  0.1035 -0.5578
26201SOL    HW181495   5.372   6.626   1.811  0.2730  0.1983  0.3292
26201SOL    HW281496   5.355   6.755   1.889  3.2470  1.3292 -0.7590
26202SOL     OW81497   4.536   2.767   3.775 -0.0021 -0.4216 -0.6465
26202SOL    HW181498   4.546   2.703   3.846  0.1907  0.7378  0.3920
26202SOL    HW281499   4.626   2.796   3.756 -0.0743 -0.5542 -1.2302
26203SOL     OW81500   4.607   3.116   4.486 -0.6327  0.5444 -0.3474
26203SOL    HW181501   4.609   3.044   4.549 -3.3852  0.8234  0.2165
26203SOL    HW281502   4.590   3.193   4.539 -3.0224  0.7864 -1.3234
26204SOL     OW81503   8.586   9.590   0.192 -0.3061  0.4362 -0.0457
26204SOL    HW181504   8.578   9.639   0.111  0.8401  0.5319 -0.1253
26204SOL    HW281505   8.596   9.656   0.260  0.0765  0.3430 -0.0063
26205SOL     OW81506   8.036   4.884   3.171  0.4904  0.4133 -0.6282
26205SOL    HW181507   7.975   4.849   3.107  0.0533  0.8868 -0.4776
26205SOL    HW281508   7.981   4.930   3.234  0.6986 -1.6304  1.1741
26206SOL     OW81509   3.479   3.338   7.660 -0.8220  0.4649  0.4873
26206SOL    HW181510   3.464   3.422   7.617  0.1847  0.4165 -0.0101
26206SOL    HW281511   3.392   3.303   7.676 -1.2755  0.0221 -2.4713
26207SOL     OW81512   1.279   1.432   7.877  0.4169 -0.4377 -0.3828
26207SOL    HW181513   1.283   1.527   7.888  0.0441 -0.3733 -0.7601
26207SOL    HW281514   1.334   1.397   7.947 -0.0282  0.0312  0.2171
26208SOL     OW81515   2.082   2.830   4.523 -0.6122 -0.2419 -0.1619
26208SOL    HW181516   2.056   2.765   4.588  0.5030 -0.6880 -0.1426
26208SOL    HW281517   2.058   2.792   4.439  1.9566 -1.7149 -0.3339
26209SOL     OW81518   8.765   3.809   5.273  0.3132  0.0494  0.4641
26209SOL    HW181519   8.793   3.718   5.264  0.0601  0.0391 -0.2926
26209SOL    HW281520   8.669   3.805   5.271  0.2852  0.2573  1.2261
26210SOL     OW81521   8.519   2.391   0.369 -0.4529  0.2892 -0.2588
26210SOL    HW181522   8.547   2.476   0.334  1.7755  0.2160  1.1066
26210SOL    HW281523   8.489   2.342   0.292 -0.5884  1.8483 -1.2580
26211SOL     OW81524   5.644   2.332   8.730 -0.6749 -0.1725  0.1664
26211SOL    HW181525   5.549   2.321   8.730 -0.7331  0.3019 -0.2237
26211SOL    HW281526   5.659   2.413   8.681 -0.0901 -0.0567  0.5261
26212SOL     OW81527   0.031   2.316   8.497  0.3279 -0.0640 -0.2975
26212SOL    HW181528  -0.008   2.393   8.455  1.0814 -0.3042 -1.5049
26212SOL    HW281529  -0.041   2.277   8.546 -0.0188  1.5024  0.5024
26213SOL     OW81530   6.300   8.034   9.384  0.2200 -0.3160  0.5204
26213SOL    HW181531   6.385   8.010   9.419 -0.0022 -0.3948  1.0154
26213SOL    HW281532   6.310   8.027   9.289  1.7897  2.9295  0.2867
26214SOL     OW81533   6.375   6.516   8.686  0.2332 -0.4146 -0.5289
26214SOL    HW181534   6.410   6.427   8.678  0.4042 -0.3164 -0.8704
26214SOL    HW281535   6.335   6.534   8.601 -3.6615 -1.7742  0.8173
26215SOL     OW81536   6.996   0.699   5.349 -0.6297 -0.2631  0.6166
26215SOL    HW181537   7.053   0.653   5.411  0.0743  1.4138  1.2558
26215SOL    HW281538   6.907   0.686   5.383 -0.4048 -0.7913  1.0145
26216SOL     OW81539   6.201   4.771   1.936  0.4254  0.3360 -0.0805
26216SOL    HW181540   6.118   4.748   1.894  0.2771 -0.9604  0.8428
26216SOL    HW281541   6.184   4.764   2.030  2.0634 -2.0427  0.1388
26217SOL     OW81542   0.381   1.254   4.877 -0.0774  0.4333 -0.2935
26217SOL    HW181543   0.365   1.348   4.869  0.7072  0.6758  0.7596
26217SOL    HW281544   0.474   1.247   4.898 -0.0939 -0.5968 -0.4998
26218SOL     OW81545   3.569   6.674   4.095 -0.4769 -0.1010 -0.1119
26218SOL    HW181546   3.619   6.693   4.016  0.4143 -2.7751 -0.2934
26218SOL    HW281547   3.608   6.730   4.163  2.2586 -1.4461 -0.4414
26219SOL     OW81548   7.683   1.301   4.346 -0.0958 -0.2025  0.3992
26219SOL    HW181549   7.702   1.386   4.387 -1.8647  0.0185  0.8075
26219SOL    HW281550   7.768   1.274   4.310  0.8382  1.0386  1.5216
26220SOL     OW81551   4.032   2.782   9.592  0.4430 -0.1304  0.1423
26220SOL    HW181552   4.127   2.778   9.580  0.9208  2.6512  2.0860
26220SOL    HW281553   4.017   2.742   9.678 -0.4589 -2.2626 -0.9395
26221SOL     OW81554   8.673   4.591   8.726 -0.2960  0.2432  0.2389
26221SOL    HW181555   8.760   4.630   8.723  0.4686 -1.3586  0.7268
26221SOL    HW281556   8.618   4.657   8.768  1.0179  0.6646  1.3417
26222SOL     OW81557   3.370   4.172   1.426 -0.6267 -0.3177  0.4870
26222SOL    HW181558   3.372   4.147   1.334  0.1776  1.1134  0.0814
26222SOL    HW281559   3.446   4.229   1.436 -1.7864  1.0789  1.5870
26223SOL     OW81560   3.518   1.994   0.340  0.3964  0.0723 -0.0112
26223SOL    HW181561   3.505   1.972   0.432  1.4006  0.0672  0.1412
26223SOL    HW281562   3.539   2.087   0.341  1.9676 -0.2446 -0.0491
26224SOL     OW81563   6.106   6.876   5.135  0.4320  0.2740 -0.2585
26224SOL    HW181564   6.014   6.896   5.122  0.2298 -2.2637 -4.6842
26224SOL    HW281565   6.111   6.839   5.223 -2.5177  1.3513  0.4574
26225SOL     OW81566   8.903   8.405   4.232 -0.4800 -0.4078 -0.2227
26225SOL    HW181567   8.827   8.365   4.276  0.0168 -0.3816  0.6758
26225SOL    HW281568   8.944   8.460   4.299 -1.8580  2.7243 -1.7031
26226SOL     OW81569   2.331   7.680   8.817 -0.2919  0.3265 -0.1602
26226SOL    HW181570   2.423   7.652   8.813  0.2855  2.1051 -0.9666
26226SOL    HW281571   2.334   7.771   8.786 -2.2669  0.5906  0.3353
26227SOL     OW81572   4.182   8.081   6.803  0.4639  0.3324 -0.4754
26227SOL    HW181573   4.092   8.076   6.771 -1.0628  0.7462  3.2126
26227SOL    HW281574   4.218   8.159   6.763 -1.2696  0.8840 -1.0526
26228SOL     OW81575   8.062   2.785   4.730 -0.2136 -0.0997  0.0506
26228SOL    HW181576   7.986   2.761   4.676 -0.8791  0.9060  0.5170
26228SOL    HW281577   8.132   2.728   4.698 -0.4728  0.6677 -2.1240
26229SOL     OW81578   5.597   5.957   9.409  0.0844  0.2875  0.3891
26229SOL    HW181579   5.612   5.863   9.420  1.1725  0.5132  1.0184
26229SOL    HW281580   5.670   5.998   9.455 -0.8305  1.4617  0.8388
26230SOL     OW81581   1.179   4.301   2.204 -0.6927 -0.1874  0.5702
26230SOL    HW181582   1.106   4.262   2.252 -0.8960 -1.1056 -0.4543
26230SOL    HW281583   1.192   4.386   2.246 -1.6642 -0.4434  1.4412
26231SOL     OW81584   5.348   4.819   7.483 -0.0504 -0.0090  0.8588
26231SOL    HW181585   5.258   4.810   7.514 -0.4852 -1.1976 -0.6329
26231SOL    HW281586   5.401   4.775   7.550 -0.8792 -1.6841  0.4667
26232SOL     OW81587   4.534   0.462   1.495 -0.2330  0.3473  0.1558
26232SOL    HW181588   4.499   0.549   1.514 -1.8127 -0.3156  0.3683
26232SOL    HW281589   4.458   0.410   1.469  0.4234 -1.3742  1.4479
26233SOL     OW81590   6.236   2.609   7.992 -0.2767 -0.0858  0.3838
26233SOL    HW181591   6.319   2.655   8.006 -0.6083  0.7492 -0.2647
26233SOL    HW281592   6.209   2.581   8.079  0.6495 -0.3015  0.6122
26234SOL     OW81593   6.206   1.724   0.794  0.1215  0.1867 -0.1787
26234SOL    HW181594   6.298   1.747   0.780  0.0743  1.6716  1.5333
26234SOL    HW281595   6.163   1.808   0.813 -0.8543 -0.8060  2.6024
26235SOL     OW81596   1.911   4.008   7.772  0.0973  0.3980 -0.5525
26235SOL    HW181597   1.869   3.972   7.850 -0.6121  0.8392 -0.7229
26235SOL    HW281598   1.891   3.945   7.703  0.5068  0.1397 -0.4409
26236SOL     OW81599   8.150   4.939   7.602  0.1461  0.3041 -0.1619
26236SOL    HW181600   8.149   5.029   7.633 -1.0704  0.9711 -1.9357
26236SOL    HW281601   8.098   4.941   7.521  0.3976 -1.9153 -0.4508
26237SOL     OW81602   1.031   0.229   4.691 -0.0334  0.2547 -0.1406
26237SOL    HW181603   1.098   0.272   4.743  0.1129 -1.1551  0.9173
26237SOL    HW281604   1.042   0.136   4.710 -0.5655 -0.2452 -2.0332
26238SOL     OW81605   7.414   4.718   4.191 -0.4455  0.0525 -0.9698
26238SOL    HW181606   7.353   4.732   4.118 -2.2826 -2.0264  0.0427
26238SOL    HW281607   7.463   4.640   4.167 -2.0157 -1.4770  0.4900
26239SOL     OW81608   1.954   1.570   8.142 -0.1769 -0.3188  0.0696
26239SOL    HW181609   1.897   1.547   8.068 -1.6299 -0.4653  1.1805
26239SOL    HW281610   2.016   1.633   8.106 -0.6796 -0.6021 -1.3364
26240SOL     OW81611   7.380   4.461   9.057  0.3679  0.6810  0.5284
26240SOL    HW181612   7.416   4.426   8.975  3.1211  3.0720  0.5559
26240SOL    HW281613   7.395   4.392   9.121 -0.7750 -0.7709 -0.6813
26241SOL     OW81614   9.085   2.931   4.043 -0.0644 -0.1540  0.5848
26241SOL    HW181615   9.129   3.015   4.050 -0.1388  0.0211 -0.7526
26241SOL    HW281616   9.156   2.866   4.045  0.0056 -0.0618  1.4325
26242SOL     OW81617   6.768   2.698   1.339  0.2698 -0.2310  0.1738
26242SOL    HW181618   6.682   2.661   1.319 -0.1024 -0.0509  1.3793
26242SOL    HW281619   6.817   2.691   1.257 -1.1272  0.3323 -0.7288
26243SOL     OW81620   3.485   6.787   7.633 -0.2813 -0.2595 -0.3175
26243SOL    HW181621   3.572   6.820   7.658 -1.2900  1.5689  1.0932
26243SOL    HW281622   3.446   6.860   7.585 -0.1812 -1.9936 -3.2686
26244SOL     OW81623   4.446   7.509   5.265  0.4766 -0.2048  0.2192
26244SOL    HW181624   4.404   7.447   5.205 -0.6752  0.4809  0.2843
26244SOL    HW281625   4.386   7.514   5.340  0.7016  0.7713  0.3419
26245SOL     OW81626   3.371   3.532   6.172 -0.2103 -0.4990  0.0722
26245SOL    HW181627   3.341   3.468   6.107  0.4543  0.8366 -1.6397
26245SOL    HW281628   3.424   3.594   6.122  0.9995  0.1716  2.0604
26246SOL     OW81629   2.087   1.023   9.435  0.2209 -0.2375 -0.3731
26246SOL    HW181630   2.002   1.014   9.392  0.8335 -1.8977 -1.3626
26246SOL    HW281631   2.067   1.057   9.522 -1.3207  0.5740 -1.0045
26247SOL     OW81632   2.718   9.520   7.178 -0.3707  0.5070 -0.1291
26247SOL    HW181633   2.793   9.494   7.232  0.0357 -0.6218 -1.2141
26247SOL    HW281634   2.648   9.459   7.203  0.2335 -0.9393 -1.8371
26248SOL     OW81635   4.585   5.202   5.139 -0.0484 -0.2521 -0.1713
26248SOL    HW181636   4.596   5.157   5.055 -2.6173  1.2604 -1.4559
26248SOL    HW281637   4.491   5.218   5.145  0.3614  2.0548  1.7228
26249SOL     OW81638   0.549   7.299   2.049  0.1198 -0.5570  0.5477
26249SOL    HW181639   0.565   7.286   1.956 -1.0799  0.7518  0.1231
26249SOL    HW281640   0.492   7.227   2.074  0.0388 -0.6291  0.1536
26250SOL     OW81641   1.170   3.579   5.072 -0.4413  0.2326 -0.8959
26250SOL    HW181642   1.154   3.670   5.098 -0.1432  0.3952 -1.2700
26250SOL    HW281643   1.259   3.561   5.101 -0.2291  0.3067 -1.4840
26251SOL     OW81644   5.969   8.167   7.508  0.0931  0.5483 -0.1842
26251SOL    HW181645   5.988   8.194   7.418  0.7064 -0.1213 -0.2695
26251SOL    HW281646   5.989   8.244   7.561 -0.3530  0.9759 -0.6267
26252SOL     OW81647   8.690   2.025   0.379 -0.0510 -0.0863  0.6316
26252SOL    HW181648   8.644   2.024   0.462  0.3051 -1.3682  0.8294
26252SOL    HW281649   8.641   1.965   0.323  0.6742 -0.5401  0.4648
26253SOL     OW81650   6.339   1.905   7.586 -0.6993  0.3468  0.1943
26253SOL    HW181651   6.304   1.924   7.499  0.1491  0.8534 -0.0444
26253SOL    HW281652   6.434   1.904   7.574 -0.5015  1.7917  1.3846
26254SOL     OW81653   1.529   3.294   1.984 -0.4565 -0.4152 -0.6838
26254SOL    HW181654   1.527   3.198   1.993  2.8598 -0.5005  0.6269
26254SOL    HW281655   1.589   3.310   1.912 -0.1824  0.6588 -0.2337
26255SOL     OW81656   3.465   0.907   3.028 -0.2520 -0.2173 -0.2659
26255SOL    HW181657   3.400   0.877   3.091 -3.2812  0.6298 -2.7200
26255SOL    HW281658   3.469   1.002   3.041  1.2079 -0.3460  0.4164
26256SOL     OW81659   8.799   5.235   2.835  0.7588 -0.1456  0.0394
26256SOL    HW181660   8.820   5.327   2.853 -0.4152  0.2092 -0.3701
26256SOL    HW281661   8.847   5.215   2.754  0.0150  0.4904 -0.5723
26257SOL     OW81662   3.126   3.335   3.151  0.1039  0.0387 -0.1634
26257SOL    HW181663   3.080   3.251   3.161 -3.1618  1.6179 -0.6889
26257SOL    HW281664   3.072   3.385   3.090  1.7585  2.6610  0.3729
26258SOL     OW81665   2.551   2.895   0.528 -0.3793 -0.0248 -0.2233
26258SOL    HW181666   2.474   2.837   0.532  1.2469 -2.4440 -1.5384
26258SOL    HW281667   2.596   2.870   0.448  0.9360  2.5142 -0.3744
26259SOL     OW81668   1.830   8.318   0.900 -0.3031 -0.2849 -0.1819
26259SOL    HW181669   1.782   8.393   0.865  0.2821  0.9037  1.4115
26259SOL    HW281670   1.804   8.314   0.992  0.9856 -0.9461  0.1843
26260SOL     OW81671   6.117   4.835   5.010  0.6866 -0.4962  0.1937
26260SOL    HW181672   6.048   4.778   5.045  1.9798 -1.1493  1.7630
26260SOL    HW281673   6.182   4.841   5.079  1.2364  1.8701 -0.4334
26261SOL     OW81674   8.108   8.121   3.067  0.4928 -0.2532 -0.3865
26261SOL    HW181675   8.068   8.133   3.153 -0.2735  0.2374 -0.7998
26261SOL    HW281676   8.129   8.027   3.064  0.5805 -0.2662  0.3510
26262SOL     OW81677   4.128   3.160   7.594 -0.2656 -0.3686  0.2590
26262SOL    HW181678   4.067   3.231   7.615 -0.7348 -0.9937  1.0435
26262SOL    HW281679   4.096   3.085   7.644 -0.2142 -1.3538 -1.1324
26263SOL     OW81680   1.288   6.337   4.547  0.2406 -0.5226  0.2801
26263SOL    HW181681   1.270   6.397   4.475 -0.1202 -0.2943  0.5577
26263SOL    HW281682   1.314   6.255   4.504 -0.3450 -0.5051 -0.1130
26264SOL     OW81683   2.418   2.265   4.700 -0.2480 -0.1839  0.2006
26264SOL    HW181684   2.328   2.242   4.675  0.1835  0.8215 -2.5720
26264SOL    HW281685   2.411   2.353   4.737 -0.3892 -0.0130 -0.2236
26265SOL     OW81686   8.284   3.622   6.989  0.3660 -0.4143  0.0243
26265SOL    HW181687   8.309   3.668   6.909 -0.6477 -0.5948 -0.4159
26265SOL    HW281688   8.268   3.532   6.962 -2.5508  0.0528 -0.1599
26266SOL     OW81689   5.472   5.352   9.573  0.2364  0.0556  0.0298
26266SOL    HW181690   5.506   5.435   9.605  1.2821 -0.2675 -0.1927
26266SOL    HW281691   5.498   5.349   9.481 -0.4874 -0.1639 -0.1698
26267SOL     OW81692   6.643   3.476   1.322  0.6224 -0.2798  0.1465
26267SOL    HW181693   6.640   3.400   1.380  0.1900 -0.0317  0.4566
26267SOL    HW281694   6.729   3.472   1.280  1.4961  0.2821  1.8168
26268SOL     OW81695   8.139   2.024   4.580 -0.5163 -0.2130 -0.2897
26268SOL    HW181696   8.060   2.027   4.527 -1.5506  1.5830  1.2209
26268SOL    HW281697   8.209   2.053   4.522 -1.2428 -0.2916 -1.2167
26269SOL     OW81698   5.994   1.863   5.118  0.3636 -0.6115 -0.1796
26269SOL    HW181699   5.985   1.922   5.043  0.9668 -0.9215 -0.5092
26269SOL    HW281700   6.084   1.831   5.112  0.8454  0.3503  1.4381
26270SOL     OW81701   7.271   7.605   6.004 -0.0449 -0.1984  0.0589
26270SOL    HW181702   7.223   7.522   6.004  0.6016 -0.6455  2.0893
26270SOL    HW281703   7.353   7.584   6.051 -0.0902  1.6839  1.0572
26271SOL     OW81704   5.397   6.440   8.826  0.6067  0.0406  0.1827
26271SOL    HW181705   5.428   6.368   8.771  0.9464  1.2035 -1.1930
26271SOL    HW281706   5.464   6.448   8.894  1.2464 -0.1031 -0.4142
26272SOL     OW81707   6.904   3.454   5.409  0.5163  0.1931  0.2476
26272SOL    HW181708   6.986   3.458   5.458  0.5688  2.4744  0.0573
26272SOL    HW281709   6.887   3.360   5.400  3.9612 -0.4607 -1.1646
26273SOL     OW81710   0.683   1.997   2.013  0.1295 -0.6840  0.4640
26273SOL    HW181711   0.653   2.029   2.098 -3.5223  2.9934 -1.8729
26273SOL    HW281712   0.753   2.057   1.988 -1.1653  0.4849 -0.4858
26274SOL     OW81713   4.915   5.599   8.760  0.5134  0.3675 -0.0423
26274SOL    HW181714   4.918   5.674   8.819  2.3984 -1.1832  2.0389
26274SOL    HW281715   4.997   5.604   8.711  0.7706 -0.4253  0.2884
26275SOL     OW81716   5.186   3.494   9.486  0.6637 -0.2088  0.3278
26275SOL    HW181717   5.212   3.402   9.495  1.0538 -0.0780  0.5852
26275SOL    HW281718   5.122   3.508   9.556  1.5595  0.0478  1.1209
26276SOL     OW81719   9.176   7.875   8.673 -0.5372 -0.3227  0.0374
26276SOL    HW181720   9.155   7.805   8.736  0.5259 -0.3516  0.3700
26276SOL    HW281721   9.214   7.829   8.599  0.5107 -0.0724  0.4095
26277SOL     OW81722   3.769   7.422   0.125 -0.6117 -0.1286 -0.2093
26277SOL    HW181723   3.738   7.331   0.133  2.0473 -1.1473 -0.4483
26277SOL    HW281724   3.804   7.444   0.211  0.5581 -0.1079 -0.6616
26278SOL     OW81725   1.818   4.746   5.847 -0.6489  0.1025  0.1700
26278SOL    HW181726   1.841   4.803   5.773 -0.9119 -1.4123 -1.1357
26278SOL    HW281727   1.722   4.752   5.852 -0.5233  1.6300  1.6302
26279SOL     OW81728   7.670   2.451   9.131  0.1750 -0.3214 -0.4793
26279SOL    HW181729   7.645   2.424   9.043  1.3705 -1.6400 -0.4435
26279SOL    HW281730   7.665   2.371   9.183 -0.5728  0.4428  0.6854
26280SOL     OW81731   8.120   0.310   5.324  0.1873 -0.0666  0.2882
26280SOL    HW181732   8.044   0.341   5.274 -0.3994 -1.6531  0.1354
26280SOL    HW281733   8.084   0.241   5.380  1.5007 -0.7681  0.2891
26281SOL     OW81734   4.706   6.532   2.422 -0.0533  0.2689  0.3277
26281SOL    HW181735   4.795   6.500   2.409 -0.6950 -1.1555 -0.8116
26281SOL    HW281736   4.687   6.513   2.514  0.4527 -0.4066  0.2996
26282SOL     OW81737   5.754   1.374   4.322  0.2228 -0.2261  0.7857
26282SOL    HW181738   5.755   1.468   4.339  1.9070 -0.5910  3.1613
26282SOL    HW281739   5.678   1.341   4.371 -0.2430 -0.1656  0.1236
26283SOL     OW81740   2.491   7.456   7.625 -0.1478  0.0836  0.1929
26283SOL    HW181741   2.450   7.514   7.560 -1.9323  1.1730  2.1695
26283SOL    HW281742   2.445   7.475   7.707  1.8414 -1.3948  1.7656
26284SOL     OW81743   0.852   9.483   1.474 -0.2362 -0.2280  0.2222
26284SOL    HW181744   0.772   9.492   1.525 -0.3591  0.6781 -0.1061
26284SOL    HW281745   0.922   9.509   1.534 -0.3750  0.7809 -0.0299
26285SOL     OW81746   9.031   7.582   4.150 -0.0873 -0.0251  0.1944
26285SOL    HW181747   9.000   7.493   4.168 -0.9083 -0.2684 -2.0837
26285SOL    HW281748   8.953   7.637   4.156  0.0692  0.2407 -0.1390
26286SOL     OW81749   7.280   4.210   0.863  0.3852  0.2960  0.2637
26286SOL    HW181750   7.308   4.186   0.951  0.9444  0.6521  0.1911
26286SOL    HW281751   7.189   4.237   0.873  0.0252 -0.9556  0.4929
26287SOL     OW81752   4.023   8.031   7.914 -0.2710 -0.2252  0.0418
26287SOL    HW181753   4.071   8.007   7.993 -0.8210  1.3137  0.8811
26287SOL    HW281754   4.068   8.109   7.880 -0.7573 -0.1587 -0.4764
26288SOL     OW81755   6.010   0.092   7.488  0.2535  0.1528 -0.6894
26288SOL    HW181756   6.042   0.037   7.559 -1.5540  0.0369  0.0889
26288SOL    HW281757   6.038   0.180   7.512  1.1913 -0.1177 -0.7647
26289SOL     OW81758   2.564   3.286   1.534  0.1235 -0.0819 -0.4139
26289SOL    HW181759   2.545   3.269   1.626 -1.6038 -0.1888 -0.7583
26289SOL    HW281760   2.575   3.381   1.529 -1.1018  0.0819 -0.2970
26290SOL     OW81761   1.321   1.837   0.235 -0.2675 -0.4232 -0.8792
26290SOL    HW181762   1.254   1.780   0.273 -0.3946 -0.3655 -1.0196
26290SOL    HW281763   1.278   1.922   0.226 -0.3992 -0.5591 -1.6242
26291SOL     OW81764   1.180   8.330   7.250 -0.6581 -0.2179  0.5606
26291SOL    HW181765   1.156   8.322   7.157 -1.9544  0.3883  0.8169
26291SOL    HW281766   1.125   8.266   7.295 -0.5394 -0.0252  0.9835
26292SOL     OW81767   3.580   9.269   2.112  0.0913 -0.1146  0.1476
26292SOL    HW181768   3.527   9.335   2.157  0.4310  0.2521  0.0201
26292SOL    HW281769   3.596   9.306   2.025 -0.0515 -0.5472 -0.0670
26293SOL     OW81770   1.468   2.452   1.564 -0.3529 -0.1147 -0.4267
26293SOL    HW181771   1.466   2.423   1.473  3.1387 -2.8982  0.1209
26293SOL    HW281772   1.396   2.405   1.606 -0.9845 -0.0947 -1.4662
26294SOL     OW81773   9.380   9.496   3.454  0.1455  0.1463  0.4211
26294SOL    HW181774   9.473   9.508   3.470  0.4505  0.7783 -1.4869
26294SOL    HW281775   9.342   9.584   3.461  0.1966  0.3597 -1.3516
26295SOL     OW81776   3.020   7.605   5.461 -0.5070 -0.0941 -0.4030
26295SOL    HW181777   3.100   7.652   5.482 -1.4724  3.2148 -3.1594
26295SOL    HW281778   3.035   7.569   5.373 -1.0690 -1.9870  0.2317
26296SOL     OW81779   2.980   8.838   9.614 -0.1809 -0.0203 -0.1286
26296SOL    HW181780   2.957   8.752   9.649 -0.6593  0.3310  0.4329
26296SOL    HW281781   3.068   8.855   9.648 -0.9318  0.6476  1.5652
26297SOL     OW81782   9.129   0.744   6.791  0.5249 -0.4776  0.0709
26297SOL    HW181783   9.212   0.724   6.832 -0.5659 -2.1898  1.5993
26297SOL    HW281784   9.069   0.677   6.824 -1.7835  1.4409  0.0644
26298SOL     OW81785   0.079   6.508   3.192  0.5297 -0.1772  0.0209
26298SOL    HW181786  -0.014   6.487   3.186 -0.5282  4.0561 -1.8407
26298SOL    HW281787   0.121   6.447   3.131 -1.5058 -0.0218 -1.6442
26299SOL     OW81788   9.349   0.808   0.974  0.2029 -0.1134  0.4226
26299SOL    HW181789   9.293   0.798   1.051 -0.3674 -0.5978 -0.0429
26299SOL    HW281790   9.418   0.743   0.985  1.2790  1.1435  1.4881
26300SOL     OW81791   0.873   8.545   8.522  0.4471 -0.1701  0.6504
26300SOL    HW181792   0.781   8.521   8.532  0.6330 -1.5595 -0.4903
26300SOL    HW281793   0.871   8.626   8.471 -0.1547 -0.2850  0.4727
26301SOL     OW81794   2.530   3.887   8.640  0.2248 -0.0462 -0.1366
26301SOL    HW181795   2.449   3.873   8.591  0.0963 -0.6383  0.2434
26301SOL    HW281796   2.515   3.969   8.688 -0.2633 -0.3064  0.1631
26302SOL     OW81797   0.868   1.227   5.962 -0.0836 -0.0216 -0.0824
26302SOL    HW181798   0.924   1.231   5.884  2.7091  1.8675  1.7828
26302SOL    HW281799   0.847   1.319   5.981  1.0567 -0.1936  2.4292
26303SOL     OW81800   4.459   4.380   4.705 -0.2062 -0.0977 -0.1210
26303SOL    HW181801   4.402   4.307   4.680  0.4925 -0.3976 -0.8588
26303SOL    HW281802   4.538   4.368   4.653  0.1800  0.8214  0.2367
26304SOL     OW81803   5.416   4.418   2.672  0.2884 -0.3665  0.1079
26304SOL    HW181804   5.504   4.451   2.657  0.2754 -0.0183  0.7813
26304SOL    HW281805   5.425   4.359   2.747 -0.5888  2.1496  2.3119
26305SOL     OW81806   0.676   8.359   5.339  0.3051  0.6018  0.0949
26305SOL    HW181807   0.631   8.279   5.366 -0.0087  0.3395 -1.1200
26305SOL    HW281808   0.631   8.386   5.259  0.0161  2.3520  0.8091
26306SOL     OW81809   0.429   9.363   2.638 -0.5383 -0.5234  0.3980
26306SOL    HW181810   0.509   9.326   2.601  0.5796  0.5818  1.5994
26306SOL    HW281811   0.370   9.373   2.563  2.1051  2.9302 -1.5153
26307SOL     OW81812   8.287   8.465   8.249  0.3365  0.3765 -0.1930
26307SOL    HW181813   8.202   8.459   8.205  0.3323  1.7030 -0.4072
26307SOL    HW281814   8.351   8.450   8.179  0.2990  1.0907 -0.3939
26308SOL     OW81815   9.000   5.310   3.585 -0.6432  0.4572 -0.4373
26308SOL    HW181816   8.934   5.347   3.644 -0.2645  0.4234  0.0124
26308SOL    HW281817   9.022   5.226   3.625  2.0902  1.8609  1.2755
26309SOL     OW81818   2.005   3.417   5.619 -0.1012 -0.0401  0.4911
26309SOL    HW181819   2.046   3.399   5.704  0.5418  1.8142  0.6186
26309SOL    HW281820   2.033   3.345   5.563  1.7979  0.1771  1.0989
26310SOL     OW81821   5.837   9.447   0.803  0.1584 -0.6643 -0.1125
26310SOL    HW181822   5.883   9.364   0.819 -0.5745 -1.4157 -1.6950
26310SOL    HW281823   5.860   9.502   0.878  0.7552 -2.2587  0.9254
26311SOL     OW81824   3.300   1.058   0.632 -0.2373  0.5168 -0.0504
26311SOL    HW181825   3.352   1.093   0.559 -1.1040  0.8867 -0.5092
26311SOL    HW281826   3.362   1.050   0.704  0.5185  0.6650 -0.6717
26312SOL     OW81827   1.086   3.744   4.746  0.4999  0.3481  0.0762
26312SOL    HW181828   1.067   3.651   4.734 -1.1460  0.8753 -1.9298
26312SOL    HW281829   1.161   3.761   4.690  0.0673  0.4513 -0.4787
26313SOL     OW81830   1.849   9.137   2.034  0.1974  0.6597 -0.1701
26313SOL    HW181831   1.768   9.136   2.085 -0.0404  0.0178 -0.5529
26313SOL    HW281832   1.904   9.202   2.077  0.1722 -0.1878  1.1774
26314SOL     OW81833   8.805   9.482   1.820  0.4610 -0.5322 -0.3341
26314SOL    HW181834   8.791   9.388   1.827 -0.2778 -0.3690  0.6856
26314SOL    HW281835   8.897   9.492   1.798  0.6177 -1.4827 -0.1293
26315SOL     OW81836   7.369   3.893   8.451 -0.1289  0.2645  0.1352
26315SOL    HW181837   7.277   3.911   8.471  0.2194  0.5174  1.6268
26315SOL    HW281838   7.368   3.866   8.359 -1.6510  0.5374  0.0341
26316SOL     OW81839   5.899   4.185   7.105 -0.1991 -0.4259 -0.2110
26316SOL    HW181840   5.917   4.189   7.011  1.0203  0.8346  0.0501
26316SOL    HW281841   5.823   4.127   7.112 -0.5230 -0.2788 -1.9928
26317SOL     OW81842   6.009   3.550   8.021 -0.2581 -0.4617  0.8090
26317SOL    HW181843   6.041   3.606   8.092 -0.4144  1.0719 -0.2748
26317SOL    HW281844   5.961   3.610   7.963  1.7266 -1.1583 -1.7538
26318SOL     OW81845   7.932   0.667   3.203  0.1115  0.5467  0.0405
26318SOL    HW181846   7.937   0.589   3.258  0.4527  0.1233 -0.5810
26318SOL    HW281847   7.848   0.661   3.159 -0.8678  1.6629  1.6203
26319SOL     OW81848   7.293   0.362   2.442  0.3667  0.0766  0.7570
26319SOL    HW181849   7.314   0.278   2.485 -0.9420 -0.4431  0.4425
26319SOL    HW281850   7.342   0.360   2.360  0.3220 -0.4072  0.7359
26320SOL     OW81851   5.803   8.779   5.261 -0.7108 -0.1395 -0.1077
26320SOL    HW181852   5.786   8.695   5.218 -0.3181  0.0982 -0.7291
26320SOL    HW281853   5.891   8.770   5.298 -0.8857 -0.1957  0.3073
26321SOL     OW81854   8.968   9.098   8.368  0.1442  0.2349  0.2613
26321SOL    HW181855   8.943   9.190   8.379  2.8422  1.1105 -0.0315
26321SOL    HW281856   8.917   9.068   8.293 -1.0611  1.3707  0.5957
26322SOL     OW81857   8.308   5.276   1.297  0.0230  0.2106  0.7432
26322SOL    HW181858   8.294   5.184   1.274  2.9886 -0.7385  2.1752
26322SOL    HW281859   8.278   5.325   1.221  0.6659 -2.1221 -1.1216
26323SOL     OW81860   1.352   1.916   2.770  0.1074  0.1256  0.4904
26323SOL    HW181861   1.301   1.905   2.690  0.3551 -0.8811  0.4556
26323SOL    HW281862   1.295   1.966   2.828  0.0228  1.0930 -0.3886
26324SOL     OW81863   8.609   7.845   2.512  0.1681 -0.1970  0.0608
26324SOL    HW181864   8.684   7.896   2.481  0.5335 -1.4452 -1.2302
26324SOL    HW281865   8.533   7.901   2.495  0.7043  0.6648  0.4334
26325SOL     OW81866   6.791   5.918   1.924 -0.1282 -0.0006 -0.2866
26325SOL    HW181867   6.846   5.981   1.877 -1.0297  1.5535  0.6483
26325SOL    HW281868   6.833   5.910   2.010  0.5934 -1.5537 -0.7607
26326SOL     OW81869   9.426   3.761   8.356 -0.5486 -0.4346  0.1498
26326SOL    HW181870   9.360   3.709   8.309 -0.9788  0.2584 -0.0176
26326SOL    HW281871   9.390   3.772   8.443 -0.6929  0.0119  0.0347
26327SOL     OW81872   1.229   2.880   2.332 -0.2239 -0.1112  0.0809
26327SOL    HW181873   1.230   2.958   2.277 -0.4546 -0.5293 -0.5356
26327SOL    HW281874   1.176   2.904   2.408  0.4819  0.6220  0.3658
26328SOL     OW81875   3.366   3.545   8.779 -0.5270 -0.5199  0.1794
26328SOL    HW181876   3.372   3.542   8.875 -0.8517  2.1505  0.3632
26328SOL    HW281877   3.436   3.605   8.753 -1.3304 -0.1042 -1.1201
26329SOL     OW81878   4.270   1.095   9.581  0.0764  0.0222 -0.1430
26329SOL    HW181879   4.303   1.125   9.496  0.9687  0.2035  0.2584
26329SOL    HW281880   4.336   1.031   9.610  0.2127  0.5751  0.7909
26330SOL     OW81881   2.132   6.272   7.711  0.3362  0.0509  0.5701
26330SOL    HW181882   2.199   6.204   7.710 -1.2758 -1.6925 -2.3711
26330SOL    HW281883   2.060   6.235   7.763 -1.2258 -1.4470 -2.3855
26331SOL     OW81884   6.214   8.338   6.248  0.6149  0.0342 -0.0399
26331SOL    HW181885   6.259   8.376   6.173 -0.5087  0.3144 -0.6019
26331SOL    HW281886   6.125   8.374   6.243  0.6217  0.3724  1.6639
26332SOL     OW81887   9.410   7.745   7.316 -0.4719  0.1237  0.0556
26332SOL    HW181888   9.474   7.763   7.247 -1.5391  1.0916 -0.7123
26332SOL    HW281889   9.437   7.801   7.389  0.3017 -0.4462  0.2203
26333SOL     OW81890   3.742   4.484   7.290 -0.2889 -0.1888 -0.0526
26333SOL    HW181891   3.736   4.408   7.347 -1.3694 -0.1599 -0.1073
26333SOL    HW281892   3.679   4.546   7.325 -0.9182 -0.1315 -1.2197
26334SOL     OW81893   1.867   8.618   3.661 -0.2784 -0.1740  0.3950
26334SOL    HW181894   1.788   8.565   3.675 -0.1842 -0.7543 -1.1368
26334SOL    HW281895   1.848   8.671   3.584 -0.2193  1.8243  1.6742
26335SOL     OW81896   2.188   7.918   2.446 -0.2203  0.6873 -0.0384
26335SOL    HW181897   2.137   7.844   2.412  0.0802  0.8215 -0.8023
26335SOL    HW281898   2.128   7.993   2.440 -0.1660  0.7119 -0.2785
26336SOL     OW81899   9.624   7.550   6.055  0.2151  0.3085  0.2120
26336SOL    HW181900   9.683   7.501   6.112 -1.0094 -1.2149  0.2462
26336SOL    HW281901   9.632   7.641   6.084  0.1726 -0.3204  2.3658
26337SOL     OW81902   4.556   8.693   1.132  0.2651  0.1954 -0.2912
26337SOL    HW181903   4.506   8.736   1.201 -0.4455  0.1112 -0.7493
26337SOL    HW281904   4.540   8.600   1.145  2.7048 -0.1129  1.4107
26338SOL     OW81905   2.247   2.091   7.975  0.1371  0.2311  0.7205
26338SOL    HW181906   2.307   2.059   7.907  1.4928  0.1208  1.9155
26338SOL    HW281907   2.279   2.179   7.995 -0.6817  0.5324  0.7449
26339SOL     OW81908   9.443   2.268   1.348 -0.2106 -0.1022 -0.4830
26339SOL    HW181909   9.474   2.357   1.365 -0.9537 -0.0517  0.6992
26339SOL    HW281910   9.422   2.268   1.255 -0.2741  0.9889 -0.4871
26340SOL     OW81911   1.727   0.568   4.838 -0.0491  0.1123  0.4483
26340SOL    HW181912   1.802   0.619   4.806  0.9171 -1.0505  0.7616
26340SOL    HW281913   1.686   0.532   4.760  1.0282 -0.9816  0.3486
26341SOL     OW81914   8.364   1.172   4.701 -0.2190 -0.1946 -0.4504
26341SOL    HW181915   8.269   1.170   4.692 -0.1743 -1.0791 -0.8083
26341SOL    HW281916   8.382   1.257   4.741 -1.4713 -1.4963  3.3387
26342SOL     OW81917   8.446   8.628   3.111  0.2344  0.3445 -0.1897
26342SOL    HW181918   8.447   8.577   3.192 -0.8257  0.4510 -0.0954
26342SOL    HW281919   8.405   8.571   3.047 -1.0230  1.0645 -0.0699
26343SOL     OW81920   7.857   3.873   0.456  0.3636 -0.0200  0.4891
26343SOL    HW181921   7.932   3.922   0.424  1.0460 -1.7436 -0.7343
26343SOL    HW281922   7.813   3.932   0.516  2.2994  1.2925  0.7007
26344SOL     OW81923   4.901   0.510   6.986 -0.4318 -0.0726  0.2415
26344SOL    HW181924   4.903   0.485   7.078 -1.4494 -0.4545  0.1705
26344SOL    HW281925   4.809   0.503   6.961 -0.4382  1.6945 -0.3527
26345SOL     OW81926   1.342   1.605   1.983 -0.2585  0.4273  0.3556
26345SOL    HW181927   1.321   1.613   1.890 -0.0281 -0.4964  0.2100
26345SOL    HW281928   1.426   1.651   1.993 -1.4269  2.6100  0.5988
26346SOL     OW81929   6.081   6.176   4.299 -0.0233 -0.1583 -0.4902
26346SOL    HW181930   6.128   6.137   4.226  1.4980  0.8897 -0.1191
26346SOL    HW281931   6.090   6.113   4.371 -1.0635 -0.9378 -1.0088
26347SOL     OW81932   8.303   6.678   0.227  0.1738  0.1867  0.4043
26347SOL    HW181933   8.313   6.586   0.248  2.5395  0.3086  0.0234
26347SOL    HW281934   8.278   6.719   0.310  1.6399 -0.4584  1.2010
26348SOL     OW81935   0.912   6.331   1.926 -0.2596  0.0406 -0.6360
26348SOL    HW181936   0.909   6.241   1.956 -1.6441  0.9816  2.4437
26348SOL    HW281937   0.826   6.346   1.886 -1.5931  0.9296  2.3047
26349SOL     OW81938   8.344   7.199   8.365 -0.0710  0.5117  0.3552
26349SOL    HW181939   8.375   7.195   8.456  0.1088  0.6193  0.2980
26349SOL    HW281940   8.300   7.284   8.359 -1.1058  0.0202  0.6677
26350SOL     OW81941   8.180   0.147   8.496  0.1203 -0.1643 -0.7169
26350SOL    HW181942   8.110   0.083   8.503  0.2682 -0.1655  1.2711
26350SOL    HW281943   8.253   0.108   8.545 -0.1769  1.9692  1.6455
26351SOL     OW81944   0.208   8.659   5.071 -0.0928  0.4224 -0.0378
26351SOL    HW181945   0.138   8.596   5.052  0.1252  0.6269 -1.6132
26351SOL    HW281946   0.162   8.736   5.105 -0.6375  0.5479 -1.0337
26352SOL     OW81947   1.972   5.830   0.427 -0.6728  0.2945 -0.4532
26352SOL    HW181948   1.973   5.920   0.458  0.0106  0.3229 -0.5529
26352SOL    HW281949   1.881   5.802   0.439 -0.3429  0.0923  2.1648
26353SOL     OW81950   7.768   2.174   1.663  0.0065  0.1375 -0.0248
26353SOL    HW181951   7.681   2.189   1.699  0.1609  1.4344 -0.1523
26353SOL    HW281952   7.796   2.090   1.701 -1.0481 -0.0005  0.4706
26354SOL     OW81953   4.555   4.321   3.388  0.5270  0.2261 -0.0688
26354SOL    HW181954   4.618   4.391   3.407  0.2943  0.4958 -0.2698
26354SOL    HW281955   4.501   4.316   3.466  2.7004 -2.1482  1.4438
26355SOL     OW81956   5.365   7.336   4.925 -0.2669  0.4663  0.2148
26355SOL    HW181957   5.278   7.314   4.891  0.2910  0.3283 -1.1967
26355SOL    HW281958   5.381   7.271   4.994 -1.4176  0.7126  0.7310
26356SOL     OW81959   6.037   3.159   5.443  0.7922 -0.1782 -0.6050
26356SOL    HW181960   6.011   3.068   5.457 -0.2184  0.0952 -0.6424
26356SOL    HW281961   6.032   3.199   5.530 -0.0749  0.1635 -0.8047
26357SOL     OW81962   7.116   1.830   8.398  0.6482  0.6964  0.0194
26357SOL    HW181963   7.108   1.910   8.450  0.5288  2.7098 -2.8833
26357SOL    HW281964   7.031   1.787   8.407 -0.1199  2.1202 -0.1763
26358SOL     OW81965   2.871   2.173   8.364  0.4031 -0.0386  0.3565
26358SOL    HW181966   2.777   2.164   8.382  0.8156 -2.8115  1.5690
26358SOL    HW281967   2.879   2.260   8.324 -2.5440  0.6345  0.9777
26359SOL     OW81968   7.049   1.218   5.643  0.4209 -0.2335  0.4839
26359SOL    HW181969   7.143   1.214   5.626  0.7264  1.2192  1.6005
26359SOL    HW281970   7.042   1.211   5.739 -0.5547  0.3476  0.4681
26360SOL     OW81971   0.604   7.978   3.109 -0.1926  0.5012 -0.2070
26360SOL    HW181972   0.618   8.022   3.025 -0.4892  0.7069 -0.1501
26360SOL    HW281973   0.688   7.938   3.130 -0.6525 -1.3373 -1.6223
26361SOL     OW81974   6.182   7.628   7.752 -0.1050  0.4763  0.0977
26361SOL    HW181975   6.099   7.580   7.752  1.0124 -1.6443  2.1921
26361SOL    HW281976   6.175   7.687   7.827 -0.4942  1.8903 -1.0033
26362SOL     OW81977   5.015   4.947   4.135  0.1808  0.0915 -0.1533
26362SOL    HW181978   5.086   4.900   4.092  0.4419  0.3433  0.0035
26362SOL    HW281979   5.044   4.960   4.225 -0.7344 -1.2129  0.3594
26363SOL     OW81980   4.697   5.240   8.282  0.0573  0.4848  0.1167
26363SOL    HW181981   4.779   5.281   8.254  0.1582  1.1043  1.2763
26363SOL    HW281982   4.628   5.299   8.251  0.1288  0.7512  0.4617
26364SOL     OW81983   2.107   4.809   7.473 -0.1687 -0.0276 -0.3647
26364SOL    HW181984   2.120   4.868   7.400  0.3740 -0.4455 -0.6137
26364SOL    HW281985   2.079   4.726   7.433  1.4170 -0.6708 -0.2359
26365SOL     OW81986   8.737   7.332   9.251 -0.4755  0.5240 -0.5525
26365SOL    HW181987   8.643   7.315   9.247 -1.1840  3.2173  1.9174
26365SOL    HW281988   8.754   7.389   9.176 -0.3809 -1.2359 -1.9543
26366SOL     OW81989   8.442   1.840   6.335 -0.2279 -0.3591 -0.0167
26366SOL    HW181990   8.431   1.934   6.320 -1.1473 -0.5184 -0.3926
26366SOL    HW281991   8.456   1.832   6.430  0.1951  0.1775 -0.0302
26367SOL     OW81992   5.534   3.528   0.999 -0.4097 -0.1541  0.1131
26367SOL    HW181993   5.627   3.544   0.980 -0.2431 -1.4893 -0.3216
26367SOL    HW281994   5.525   3.547   1.092  0.5128 -0.8697  0.3611
26368SOL     OW81995   9.341   6.133   8.706 -0.1562  0.2718  0.0554
26368SOL    HW181996   9.383   6.102   8.626  0.9368 -0.0553  0.7313
26368SOL    HW281997   9.330   6.227   8.693  1.0787  0.4191 -0.0296
26369SOL     OW81998   2.249   8.873   4.663 -0.3173  0.0128 -0.2438
26369SOL    HW181999   2.233   8.961   4.697 -1.9473 -0.0807 -0.6896
26369SOL    HW282000   2.344   8.869   4.653 -0.2393  1.9495 -0.8142
26370SOL     OW82001   9.579   9.474   1.554  0.1165 -0.2926 -0.2991
26370SOL    HW182002   9.638   9.399   1.552 -0.2932 -0.6054 -1.7523
26370SOL    HW282003   9.633   9.549   1.530  0.0865 -0.4686 -0.9367
26371SOL     OW82004   7.204   1.221   5.229 -0.3045  0.2538  0.1790
26371SOL    HW182005   7.201   1.240   5.135  0.9516  2.9168  0.5816
26371SOL    HW282006   7.113   1.223   5.257 -0.7082 -0.7927 -1.0074
26372SOL     OW82007   3.908   4.490   7.684 -0.1057  0.5103 -0.8825
26372SOL    HW182008   3.924   4.461   7.594 -0.5753 -0.6471 -0.6176
26372SOL    HW282009   3.991   4.477   7.729 -0.0849  0.3571 -0.9640
26373SOL     OW82010   1.483   9.456   1.974 -0.3392 -0.1759  0.1841
26373SOL    HW182011   1.553   9.402   2.011 -0.2435  0.1645  0.5100
26373SOL    HW282012   1.419   9.394   1.940 -0.4900 -0.5018  1.0349
26374SOL     OW82013   2.517   6.946   3.949 -0.0435 -0.2838 -0.1165
26374SOL    HW182014   2.443   6.923   3.893 -0.5168 -0.9335  0.7526
26374SOL    HW282015   2.477   6.995   4.021  0.6073  0.8692 -0.5164
26375SOL     OW82016   3.877   3.253   9.324  0.3684 -0.0804 -0.6385
26375SOL    HW182017   3.816   3.229   9.254 -0.0235  0.5636 -0.5240
26375SOL    HW282018   3.862   3.347   9.338 -0.8427 -0.5167  1.5066
26376SOL     OW82019   4.132   4.602   0.478  0.4875 -0.1279  0.4896
26376SOL    HW182020   4.180   4.534   0.430  1.8779  2.3429 -1.9132
26376SOL    HW282021   4.060   4.627   0.419 -0.1043  0.4050  1.4027
26377SOL     OW82022   8.872   1.259   1.079 -0.2122  0.2960  0.0008
26377SOL    HW182023   8.949   1.205   1.062 -0.3519  0.9206 -3.5012
26377SOL    HW282024   8.907   1.347   1.094 -0.1830  0.1972  0.5270
26378SOL     OW82025   6.934   0.250   5.080 -0.3920 -0.0823  0.5377
26378SOL    HW182026   7.012   0.288   5.037  0.4720  1.3893  3.1786
26378SOL    HW282027   6.944   0.156   5.068 -0.0606  0.1984 -2.1151
26379SOL     OW82028   0.138   3.317   8.748 -0.7141 -0.1548 -0.0855
26379SOL    HW182029   0.164   3.229   8.777 -2.0186 -0.4450  0.2773
26379SOL    HW282030   0.220   3.359   8.722  0.1303 -0.9641  1.1448
26380SOL     OW82031   0.879   2.210   0.215 -0.7299  0.1857  0.0029
26380SOL    HW182032   0.918   2.144   0.157  2.6152 -0.3585  2.5082
26380SOL    HW282033   0.931   2.289   0.200  1.3496 -0.3947  3.0713
26381SOL     OW82034   2.320   1.761   3.535  1.1641  0.3246 -0.9265
26381SOL    HW182035   2.396   1.754   3.477  2.9189  2.1738  0.9816
26381SOL    HW282036   2.326   1.684   3.591  1.1666  0.0617 -1.2839
26382SOL     OW82037   3.326   3.473   7.035  0.4393 -0.2305 -0.2839
26382SOL    HW182038   3.400   3.433   6.989  0.7188  1.0042 -0.9716
26382SOL    HW282039   3.339   3.449   7.126  0.5944 -1.6655 -0.6607
26383SOL     OW82040   8.903   7.885   5.100  0.7899 -0.1607 -0.2478
26383SOL    HW182041   8.865   7.971   5.080  1.1319  0.0787  0.1277
26383SOL    HW282042   8.995   7.893   5.073  1.1110 -0.0296  0.8265
26384SOL     OW82043   5.249   9.233   2.554 -0.2682 -0.1255 -0.6582
26384SOL    HW182044   5.165   9.262   2.519 -0.2447  0.0578 -0.5662
26384SOL    HW282045   5.288   9.312   2.592  0.3012 -0.0340 -1.4095
26385SOL     OW82046   2.938   4.295   3.177 -0.2459 -0.3337 -0.1869
26385SOL    HW182047   3.003   4.324   3.241 -1.9590  3.2314  0.1815
26385SOL    HW282048   2.877   4.242   3.228  0.7559 -1.3156  0.0568
26386SOL     OW82049   0.067   0.810   4.041 -0.2466  0.2308  0.2527
26386SOL    HW182050   0.006   0.747   4.003  0.4784  0.0049 -0.5925
26386SOL    HW282051   0.109   0.763   4.113  0.4211 -0.3555 -0.4833
26387SOL     OW82052   7.375   2.109   8.367 -0.3419 -0.4173 -0.0847
26387SOL    HW182053   7.307   2.113   8.299  0.0972 -3.2745 -0.7986
26387SOL    HW282054   7.439   2.047   8.333  2.0298  1.1980  1.1687
26388SOL     OW82055   6.907   2.612   5.198  0.2475  0.0108 -0.4319
26388SOL    HW182056   6.873   2.609   5.109  1.7650  0.0787 -1.0490
26388SOL    HW282057   6.980   2.674   5.194  1.2228 -1.0139  0.5062
26389SOL     OW82058   1.075   2.642   4.118  0.5479  0.1429 -0.0571
26389SOL    HW182059   1.000   2.601   4.163  1.4132 -0.0761  1.2145
26389SOL    HW282060   1.034   2.700   4.053 -0.7510  1.1173  1.5696
26390SOL     OW82061   0.001   5.735   0.445  0.1745  0.1124 -0.0249
26390SOL    HW182062  -0.074   5.760   0.499 -0.6533 -1.1657 -0.5432
26390SOL    HW282063   0.003   5.639   0.449  2.0085  0.1341  0.2678
26391SOL     OW82064   3.967   5.117   4.628 -1.2606 -0.4538 -0.7437
26391SOL    HW182065   3.901   5.099   4.695 -1.3840  0.7041 -0.5366
26391SOL    HW282066   3.925   5.090   4.546 -2.2922  0.9056 -0.7057
26392SOL     OW82067   7.952   3.069   6.029  0.2618  0.3565  0.1790
26392SOL    HW182068   7.996   3.064   6.114  0.0878  0.0915  0.2524
26392SOL    HW282069   7.871   3.021   6.041  1.0574 -1.2698 -0.6602
26393SOL     OW82070   4.757   3.495   8.770  0.2484  0.1757 -0.4176
26393SOL    HW182071   4.761   3.458   8.681  0.1284  0.5504 -0.5768
26393SOL    HW282072   4.847   3.523   8.788 -0.0027  1.3840 -0.9672
26394SOL     OW82073   9.634   4.129   5.996 -0.5324  0.4283 -0.0476
26394SOL    HW182074   9.553   4.160   6.036  0.0789  0.4869  1.1777
26394SOL    HW282075   9.700   4.193   6.022  0.4266 -0.9815  1.1859
26395SOL     OW82076   4.749   3.362   7.967  0.0793  0.2178 -0.5918
26395SOL    HW182077   4.778   3.293   8.025  0.9986  0.8123 -0.3352
26395SOL    HW282078   4.694   3.317   7.902  0.7389 -0.7613 -0.4886
26396SOL     OW82079   5.576   3.699   8.547  0.2310 -0.1127  0.6930
26396SOL    HW182080   5.594   3.791   8.562  0.6227 -0.2085  0.8173
26396SOL    HW282081   5.587   3.658   8.633  2.3280 -0.6400  0.2238
26397SOL     OW82082   4.241   2.826   6.074 -0.0099  0.1555 -0.0421
26397SOL    HW182083   4.214   2.784   5.992  1.7691 -0.6524 -0.2511
26397SOL    HW282084   4.238   2.755   6.138  0.9296  0.2034  0.0632
26398SOL     OW82085   8.129   7.395   6.927  0.3723  0.5807 -0.2499
26398SOL    HW182086   8.063   7.455   6.961 -1.8173 -0.8793 -1.6000
26398SOL    HW282087   8.194   7.388   6.996 -2.1584  0.2489  2.3028
26399SOL     OW82088   1.139   1.825   1.962 -0.2575 -0.1312 -1.4446
26399SOL    HW182089   1.124   1.867   2.047  1.9378  3.0587 -2.4219
26399SOL    HW282090   1.216   1.771   1.976  0.2378  0.5661 -1.3913
26400SOL     OW82091   1.668   5.805   0.448 -1.0196  0.3089  0.2874
26400SOL    HW182092   1.694   5.868   0.516 -2.5745 -0.3197  1.5296
26400SOL    HW282093   1.633   5.730   0.497 -0.5737 -0.9178 -1.1937
26401SOL     OW82094   3.878   9.075   7.059  0.0040 -0.1676 -0.1226
26401SOL    HW182095   3.914   9.005   7.005  1.1249 -0.4449  0.9442
26401SOL    HW282096   3.946   9.141   7.062  0.6292 -0.8290  2.1545
26402SOL     OW82097   1.234   4.646   5.624 -0.5203  0.1535 -0.3234
26402SOL    HW182098   1.160   4.648   5.684 -1.5572 -0.3933 -1.5327
26402SOL    HW282099   1.257   4.738   5.611 -0.7294  0.3090  0.3550
26403SOL     OW82100   4.822   7.049   8.572  0.4710 -0.0043  0.7589
26403SOL    HW182101   4.885   6.990   8.530 -0.4375 -1.0920  0.8672
26403SOL    HW282102   4.754   6.991   8.606 -0.8151  1.1622  0.2789
26404SOL     OW82103   5.649   5.273   7.454  0.1797 -1.0356  0.4762
26404SOL    HW182104   5.743   5.291   7.456  0.0001  0.1344 -0.3372
26404SOL    HW282105   5.640   5.185   7.490  1.3613 -0.2914  2.7753
26405SOL     OW82106   1.063   5.396   5.893 -0.4942 -0.3042 -0.0226
26405SOL    HW182107   1.014   5.424   5.816 -0.2984 -3.9864 -1.6929
26405SOL    HW282108   1.147   5.441   5.885 -0.5772 -0.3870 -1.8239
26406SOL     OW82109   3.936   7.381   3.349 -0.6791  0.2149 -0.2196
26406SOL    HW182110   3.931   7.357   3.441  0.2840  1.7022  0.2586
26406SOL    HW282111   3.850   7.360   3.314 -1.7073  1.3808  1.4726
26407SOL     OW82112   3.321   1.931   6.073  0.3240  0.3684 -0.4266
26407SOL    HW182113   3.278   2.017   6.065  1.4347  1.1079  1.0484
26407SOL    HW282114   3.411   1.947   6.045  0.7637 -0.0931  0.6735
26408SOL     OW82115   6.973   6.353   4.572  0.0869  0.2087 -0.0389
26408SOL    HW182116   6.893   6.307   4.595  0.2615 -0.3764 -0.5582
26408SOL    HW282117   6.985   6.336   4.478  0.5420  0.7142 -0.0801
26409SOL     OW82118   9.596   0.613   3.008 -0.0041 -0.3089 -0.0574
26409SOL    HW182119   9.685   0.611   3.045  0.1903  0.9444 -0.3981
26409SOL    HW282120   9.606   0.664   2.928 -1.1230  0.2303  0.1394
26410SOL     OW82121   3.790   7.529   8.273  0.7106  0.0432  0.6424
26410SOL    HW182122   3.859   7.465   8.255  0.4474 -0.7355  2.3012
26410SOL    HW282123   3.709   7.488   8.243  0.7187  0.2054  0.3903
26411SOL     OW82124   7.026   5.193   6.974  0.9091 -0.2371 -0.1247
26411SOL    HW182125   7.018   5.099   6.957  1.6477 -0.1501 -1.0104
26411SOL    HW282126   6.939   5.220   7.004  0.4563 -1.0330 -0.7056
26412SOL     OW82127   1.370   7.030   3.529  0.4794  0.2690 -0.3199
26412SOL    HW182128   1.287   7.061   3.492  0.2809  1.7797  1.2467
26412SOL    HW282129   1.437   7.087   3.490  0.2254  2.1624  1.7681
26413SOL     OW82130   7.961   2.785   1.027 -0.6579  0.4247  0.5684
26413SOL    HW182131   7.999   2.754   1.110 -0.3218  0.7972  0.5541
26413SOL    HW282132   7.991   2.722   0.962 -0.4990  0.4176  0.6471
26414SOL     OW82133   2.762   9.477   1.206  0.1678 -0.3495 -0.1238
26414SOL    HW182134   2.743   9.565   1.174 -0.4476 -0.2878  0.3852
26414SOL    HW282135   2.723   9.475   1.293 -0.1101 -1.2325 -0.2619
26415SOL     OW82136   5.705   8.010   1.263 -0.2625  0.5511  0.0187
26415SOL    HW182137   5.735   8.100   1.273 -0.3671  0.4737  1.1198
26415SOL    HW282138   5.628   8.004   1.320  0.9172 -0.7638  1.5690
26416SOL     OW82139   3.102   9.168   3.356  0.0676  0.1845  0.0508
26416SOL    HW182140   3.070   9.255   3.333  1.7480  0.7694 -0.2392
26416SOL    HW282141   3.173   9.151   3.293  0.0180 -1.2320  0.3386
26417SOL     OW82142   7.144   6.363   6.962  0.3677  0.7346  0.2181
26417SOL    HW182143   7.147   6.426   7.034  1.0442 -0.9716  1.7545
26417SOL    HW282144   7.236   6.345   6.942  0.1869  0.2259 -0.1890
26418SOL     OW82145   9.428   8.882   4.376  0.7498 -0.2261 -0.5130
26418SOL    HW182146   9.371   8.919   4.444  0.4842  0.7734 -1.2488
26418SOL    HW282147   9.413   8.788   4.380  0.9828 -0.2159  1.0290
26419SOL     OW82148   0.866   9.465   0.494 -0.5853 -0.5594  0.2544
26419SOL    HW182149   0.921   9.511   0.431  0.5609  0.1509  1.7166
26419SOL    HW282150   0.805   9.414   0.440 -0.2688  0.7367 -1.4104
26420SOL     OW82151   5.629   1.525   3.693 -0.0499 -0.4209 -0.3197
26420SOL    HW182152   5.635   1.612   3.732 -0.1617 -0.7105  0.3688
26420SOL    HW282153   5.678   1.531   3.611 -1.1132  0.6184 -0.8993
26421SOL     OW82154   5.376   7.607   5.615  0.1230  0.0587  0.5749
26421SOL    HW182155   5.349   7.639   5.701  1.1409  0.6648  0.6918
26421SOL    HW282156   5.319   7.653   5.553  0.0945  0.4315  0.8709
26422SOL     OW82157   4.158   1.541   1.540 -0.1163 -0.5699  0.3171
26422SOL    HW182158   4.202   1.457   1.548 -1.0232 -0.9374  2.1228
26422SOL    HW282159   4.202   1.597   1.604  0.2680  0.2508 -0.6439
26423SOL     OW82160   2.318   6.131   1.005  0.1984  0.0704  0.0794
26423SOL    HW182161   2.356   6.134   1.093  0.7440 -0.4834 -0.1298
26423SOL    HW282162   2.279   6.218   0.993 -0.6426 -0.1294  1.1875
26424SOL     OW82163   7.622   9.499   0.481 -0.6559  0.5428  0.2054
26424SOL    HW182164   7.605   9.523   0.390 -0.6043  0.2660  0.1209
26424SOL    HW282165   7.708   9.536   0.500  0.4569 -1.4492 -0.6265
26425SOL     OW82166   1.934   7.932   0.544  0.1262 -0.1419  0.3841
26425SOL    HW182167   1.871   8.002   0.531  0.3753 -0.3276 -2.6141
26425SOL    HW282168   1.882   7.857   0.571 -0.2149  0.9569  3.0076
26426SOL     OW82169   5.369   9.019   7.894 -0.0831  0.5913  0.4596
26426SOL    HW182170   5.322   8.936   7.899  0.2341  0.3942  0.2499
26426SOL    HW282171   5.460   8.996   7.913 -0.2478  1.1565  2.0041
26427SOL     OW82172   9.397   4.662   4.073 -0.1107 -0.0639 -0.1364
26427SOL    HW182173   9.400   4.736   4.012 -0.1846  0.4790  0.5127
26427SOL    HW282174   9.373   4.701   4.157 -1.0841 -0.9496  0.0170
26428SOL     OW82175   9.135   9.567   2.963  0.3040  0.2438  0.6535
26428SOL    HW182176   9.198   9.531   3.025  1.4481 -0.6796 -0.9818
26428SOL    HW282177   9.062   9.505   2.966  0.5701 -0.0710  0.7042
26429SOL     OW82178   3.647   5.829   7.233  0.2116 -0.2342  0.3310
26429SOL    HW182179   3.676   5.757   7.289  0.5506 -0.8543 -0.6192
26429SOL    HW282180   3.560   5.852   7.267  0.5962 -0.2861  1.3906
26430SOL     OW82181   3.787   2.781   3.874 -0.1649 -0.3088 -0.3318
26430SOL    HW182182   3.787   2.871   3.843  0.3692  0.4985  1.8229
26430SOL    HW282183   3.855   2.779   3.941 -0.9196 -2.0299  0.4454
26431SOL     OW82184   2.533   4.128   3.322 -0.0858  0.3616 -0.1660
26431SOL    HW182185   2.562   4.171   3.403  1.2348  0.8862 -0.8862
26431SOL    HW282186   2.441   4.108   3.337 -0.2204  1.6995  0.9371
26432SOL     OW82187   7.981   9.184   5.519 -0.2830 -0.3034 -0.0478
26432SOL    HW182188   7.894   9.144   5.518  0.2540 -1.6466  1.4678
26432SOL    HW282189   8.036   9.122   5.471 -0.1707  0.6739 -1.2423
26433SOL     OW82190   3.224   3.382   1.191  0.5476  0.5553  0.0564
26433SOL    HW182191   3.234   3.325   1.114  0.6859  0.1698  0.3588
26433SOL    HW282192   3.145   3.433   1.173 -0.3356 -0.6661  0.3734
26434SOL     OW82193   4.427   8.757   3.273 -0.1871 -0.1772 -0.3692
26434SOL    HW182194   4.353   8.774   3.214 -0.0528 -0.1357 -0.5270
26434SOL    HW282195   4.401   8.796   3.356 -0.0177  0.5089 -0.6396
26435SOL     OW82196   6.508   1.871   5.974 -0.0177  0.1885 -0.0499
26435SOL    HW182197   6.540   1.843   5.888  0.4138 -1.0708  0.5066
26435SOL    HW282198   6.429   1.923   5.955 -0.5869 -1.0337 -1.1489
26436SOL     OW82199   8.738   8.351   5.150  0.0352  0.1477  0.5135
26436SOL    HW182200   8.828   8.323   5.170  0.5406  1.5122  0.2158
26436SOL    HW282201   8.747   8.441   5.120 -1.4519  0.3143  0.5176
26437SOL     OW82202   2.404   3.145   1.754 -0.1884 -0.4014  0.2019
26437SOL    HW182203   2.358   3.223   1.725 -3.6413 -2.5494 -0.6849
26437SOL    HW282204   2.412   3.154   1.849 -0.9436  0.7951  0.1640
26438SOL     OW82205   1.690   8.032   3.779  0.4734  0.2831 -0.3998
26438SOL    HW182206   1.740   8.079   3.846 -0.7265 -0.3668  1.0142
26438SOL    HW282207   1.721   8.068   3.696  2.9015  0.2350  0.4299
26439SOL     OW82208   4.857   1.221   7.141  0.2405 -0.0123  0.8769
26439SOL    HW182209   4.763   1.228   7.127  0.4426 -0.7370 -1.2181
26439SOL    HW282210   4.880   1.298   7.193 -1.4053  0.4719  0.9327
26440SOL     OW82211   8.662   0.977   3.534 -0.3998 -0.2021  0.2450
26440SOL    HW182212   8.588   0.922   3.559 -2.3182  2.1897  0.1932
26440SOL    HW282213   8.636   1.016   3.450  0.4546  1.4150  0.6825
26441SOL     OW82214   6.481   4.242   4.114  0.0088 -0.1866 -0.1447
26441SOL    HW182215   6.432   4.168   4.149 -0.9124 -0.2262 -1.4482
26441SOL    HW282216   6.453   4.317   4.167 -1.0778 -0.3104 -0.5293
26442SOL     OW82217   5.970   2.503   7.923 -0.1789  1.1617 -0.1699
26442SOL    HW182218   5.951   2.511   8.017 -0.3262  1.7666 -0.2521
26442SOL    HW282219   5.888   2.525   7.880  0.7694  4.4885 -0.5574
26443SOL     OW82220   5.111   0.178   7.533 -0.0400  0.2869  1.2583
26443SOL    HW182221   5.117   0.133   7.448 -0.8288  1.7534  0.3964
26443SOL    HW282222   5.095   0.107   7.596  3.1162 -1.1621  0.6152
26444SOL     OW82223   9.478   0.106   3.977 -0.3949  1.2794  0.0951
26444SOL    HW182224   9.397   0.151   3.954 -0.2254  1.5876  0.0872
26444SOL    HW282225   9.527   0.101   3.895  0.0215  1.9897  0.2879
26445SOL     OW82226   9.472   6.414   4.102  0.3971  0.2443 -0.3123
26445SOL    HW182227   9.399   6.451   4.053  0.4531 -0.9608 -1.3976
26445SOL    HW282228   9.525   6.489   4.127 -0.2016  0.9942 -1.2103
26446SOL     OW82229   0.878   5.915   8.182 -0.1957 -0.3956 -0.3174
26446SOL    HW182230   0.784   5.932   8.182 -0.0254  0.6588 -0.0708
26446SOL    HW282231   0.901   5.904   8.090 -0.3994  0.4206 -0.4796
26447SOL     OW82232   5.237   7.110   3.094 -0.2798  0.4445  0.4983
26447SOL    HW182233   5.272   7.024   3.071  0.8653  1.2750 -1.0670
26447SOL    HW282234   5.153   7.115   3.050  0.1461  0.5231 -0.3249
26448SOL     OW82235   4.196   2.569   0.092 -0.1934 -0.3207 -0.7597
26448SOL    HW182236   4.241   2.491   0.125  0.2480 -0.9620 -2.6957
26448SOL    HW282237   4.264   2.635   0.085 -0.1926 -0.3252 -0.7943
26449SOL     OW82238   9.432   5.291   3.930 -0.2866  0.0440 -0.5434
26449SOL    HW182239   9.491   5.363   3.904  0.1017  0.6455  1.7613
26449SOL    HW282240   9.490   5.226   3.969 -1.1024  0.8390  2.1858
26450SOL     OW82241   3.401   9.468   0.527  0.1116  0.5043 -0.1906
26450SOL    HW182242   3.471   9.496   0.587  0.1833 -2.2125  1.1170
26450SOL    HW282243   3.440   9.396   0.477 -1.2598  0.0087 -0.5755
26451SOL     OW82244   8.541   4.107   1.318 -0.7864  0.2456 -0.0037
26451SOL    HW182245   8.589   4.182   1.353 -1.2316  0.1506  0.8257
26451SOL    HW282246   8.517   4.133   1.229 -1.1421  1.1832  0.3566
26452SOL     OW82247   5.912   0.133   1.254  0.4878  0.5983  0.0061
26452SOL    HW182248   5.972   0.207   1.269 -0.3199  0.9879  1.5593
26452SOL    HW282249   5.894   0.099   1.342  0.7466 -1.4003 -0.6614
26453SOL     OW82250   5.066   4.410   3.108  0.4090  0.3465  0.0872
26453SOL    HW182251   5.084   4.366   3.025  1.2050 -0.2403  0.5595
26453SOL    HW282252   5.050   4.502   3.083  0.6200  0.1770 -0.7064
26454SOL     OW82253   6.182   9.442   8.288  0.7446 -0.1273 -0.5834
26454SOL    HW182254   6.118   9.509   8.262  1.4375  0.3984 -0.9886
26454SOL    HW282255   6.264   9.472   8.249  1.4229 -0.3504  0.6260
26455SOL     OW82256   0.017   3.170   2.178  0.1038  0.0163  0.0949
26455SOL    HW182257  -0.061   3.127   2.212 -0.2572 -0.0733 -0.8109
26455SOL    HW282258   0.081   3.163   2.248 -1.1526  1.4172  1.4531
26456SOL     OW82259   3.524   6.811   0.499  0.0178 -0.5258 -0.5139
26456SOL    HW182260   3.585   6.880   0.526  1.0319 -1.6037  0.0030
26456SOL    HW282261   3.567   6.767   0.426 -0.7732 -0.4147 -1.0592
26457SOL     OW82262   4.479   1.549   6.183 -0.0305 -0.0412 -0.0767
26457SOL    HW182263   4.456   1.462   6.216 -3.0374  0.8565  0.5908
26457SOL    HW282264   4.516   1.595   6.258 -1.5895  0.2238  0.5844
26458SOL     OW82265   9.545   4.174   3.215 -0.2716 -0.5010  0.1226
26458SOL    HW182266   9.491   4.231   3.159  0.8536 -1.2280 -1.7999
26458SOL    HW282267   9.509   4.087   3.202  0.3552 -0.7573  0.1012
26459SOL     OW82268   4.360   8.224   1.449  0.4964  0.0096  0.7649
26459SOL    HW182269   4.303   8.150   1.469  0.1568  0.2392  0.6587
26459SOL    HW282270   4.310   8.301   1.475  1.4848  0.1419  2.3698
26460SOL     OW82271   0.180   0.822   5.924 -0.0933 -0.0314 -0.3061
26460SOL    HW182272   0.256   0.788   5.970  0.1305 -0.1133 -0.7370
26460SOL    HW282273   0.110   0.759   5.943 -0.5704  0.9706  1.5960
26461SOL     OW82274   5.739   5.561   5.375  0.0268  0.0914  0.1216
26461SOL    HW182275   5.742   5.649   5.412  2.0449  0.4585 -0.7708
26461SOL    HW282276   5.774   5.572   5.286  1.9866 -1.8368  0.5655
26462SOL     OW82277   3.092   3.778   7.939 -0.3543 -0.2266 -0.2662
26462SOL    HW182278   3.167   3.796   7.883  0.0891 -1.2156 -0.0100
26462SOL    HW282279   3.125   3.788   8.028 -0.6869 -0.0817 -0.1546
26463SOL     OW82280   4.697   4.147   7.071  0.0336 -0.0241  0.3286
26463SOL    HW182281   4.660   4.191   6.995  0.3005 -2.0129 -1.0145
26463SOL    HW282282   4.650   4.064   7.077  1.8592 -1.0970  0.6583
26464SOL     OW82283   4.505   1.364   0.858 -0.0059  0.3532  0.5336
26464SOL    HW182284   4.477   1.455   0.867  0.6909  0.8282 -1.4466
26464SOL    HW282285   4.560   1.348   0.934  0.3681  1.8097  0.6021
26465SOL     OW82286   0.238   4.419   2.932  0.4629  0.3004 -0.3730
26465SOL    HW182287   0.324   4.461   2.939  0.7085 -0.3295  0.5560
26465SOL    HW282288   0.245   4.342   2.988 -0.6689  0.1640 -0.4115
26466SOL     OW82289   1.023   9.141   8.246  0.3238 -0.2820  0.7822
26466SOL    HW182290   1.004   9.227   8.207 -0.9181 -1.6032 -1.7836
26466SOL    HW282291   1.118   9.132   8.236  0.3913  0.5621  0.5376
26467SOL     OW82292   3.739   1.248   1.782 -0.0849  0.2094 -0.1180
26467SOL    HW182293   3.784   1.315   1.834  0.1573 -1.8024  2.4797
26467SOL    HW282294   3.655   1.237   1.826 -0.3112 -0.8548 -0.7916
26468SOL     OW82295   7.332   0.619   2.146  0.0227 -0.0636  0.7182
26468SOL    HW182296   7.307   0.530   2.171 -1.3031  0.2344  0.5413
26468SOL    HW282297   7.326   0.670   2.227  1.7818 -0.3087  1.0423
26469SOL     OW82298   1.805   4.513   2.220 -0.2256  0.4887  0.3425
26469SOL    HW182299   1.866   4.573   2.179  1.4636  0.6017  2.8130
26469SOL    HW282300   1.859   4.441   2.252 -1.5014  0.0911  1.7378
26470SOL     OW82301   6.214   5.204   5.290 -0.6808 -0.2310  0.0150
26470SOL    HW182302   6.237   5.271   5.355 -1.7362  0.9061 -0.7369
26470SOL    HW282303   6.296   5.157   5.274 -0.0271  0.5575  0.9296
26471SOL     OW82304   3.079   0.487   2.820 -0.4754 -0.6759 -0.1505
26471SOL    HW182305   3.171   0.504   2.844 -0.3077 -0.1540 -1.1213
26471SOL    HW282306   3.061   0.400   2.856 -0.4219  0.2750  2.3671
26472SOL     OW82307   8.957   7.947   8.110  0.0728  0.0188  0.1059
26472SOL    HW182308   8.986   7.856   8.116 -0.0877  0.0321  1.2314
26472SOL    HW282309   8.870   7.947   8.148 -1.2920  0.0773 -2.7577
26473SOL     OW82310   0.835   8.348   4.948 -0.7013  1.0619 -0.1982
26473SOL    HW182311   0.772   8.412   4.982 -1.6065  1.5026 -2.5008
26473SOL    HW282312   0.915   8.398   4.932 -1.5266  1.8236 -2.3649
26474SOL     OW82313   5.143   7.696   2.915 -0.1139  0.0985 -0.0649
26474SOL    HW182314   5.090   7.629   2.958  1.3627 -1.0704 -0.0111
26474SOL    HW282315   5.202   7.728   2.983 -0.6370  1.3063 -0.1529
26475SOL     OW82316   0.236   1.586   2.513  0.3954 -0.2332 -0.0145
26475SOL    HW182317   0.278   1.649   2.455 -0.3127 -0.9482 -1.3671
26475SOL    HW282318   0.143   1.590   2.489 -0.1307  0.3333  1.9593
26476SOL     OW82319   1.300   4.356   1.016  0.0007  0.1985 -0.2550
26476SOL    HW182320   1.370   4.310   1.061 -0.4168  0.9246  1.2355
26476SOL    HW282321   1.317   4.449   1.033 -1.1741  0.4002 -0.0142
26477SOL     OW82322   7.909   2.323   2.556 -0.1457  0.3500 -0.1096
26477SOL    HW182323   7.878   2.233   2.541  1.4494 -0.2292 -0.2081
26477SOL    HW282324   7.852   2.358   2.624 -1.2098 -0.5059 -0.5378
26478SOL     OW82325   6.058   4.971   7.370  0.3925 -0.0397 -1.0861
26478SOL    HW182326   6.073   4.961   7.464  1.3391  3.0740 -0.8184
26478SOL    HW282327   6.009   4.892   7.346  0.7911 -1.3175  1.8281
26479SOL     OW82328   7.301   6.629   2.906 -0.3444  0.7227 -0.5061
26479SOL    HW182329   7.288   6.600   2.996  1.7693 -0.4877 -0.5274
26479SOL    HW282330   7.216   6.663   2.880 -1.8081 -1.4574  1.0215
26480SOL     OW82331   4.921   2.435   3.022  0.4395 -0.1243 -0.0114
26480SOL    HW182332   4.880   2.520   3.037  0.3825 -0.1711  0.0948
26480SOL    HW282333   5.011   2.446   3.054  0.4013 -0.1366  0.0993
26481SOL     OW82334   3.067   3.613   6.687 -0.1974  0.2774 -0.0745
26481SOL    HW182335   3.053   3.561   6.767 -1.3298  0.1981 -0.3014
26481SOL    HW282336   2.980   3.617   6.646  0.2845  0.6838 -1.0840
26482SOL     OW82337   4.698   5.009   2.098 -0.3912 -0.0754 -0.7056
26482SOL    HW182338   4.706   5.094   2.143  0.8022  0.1870 -1.3642
26482SOL    HW282339   4.726   5.027   2.008 -2.3353 -0.6894 -1.4735
26483SOL     OW82340   1.177   4.968   4.164 -0.2124 -0.2423 -0.6959
26483SOL    HW182341   1.209   4.910   4.232 -0.8432 -0.2378 -0.3891
26483SOL    HW282342   1.195   4.922   4.082  0.9222 -0.0653 -0.5594
26484SOL     OW82343   3.078   6.368   7.420 -0.2226  0.1627 -0.4248
26484SOL    HW182344   3.127   6.329   7.348 -1.2504 -0.7016 -0.6791
26484SOL    HW282345   2.991   6.329   7.413  0.1394 -1.3556  2.3836
26485SOL     OW82346   5.663   4.948   7.755  0.4823  0.0703 -0.3989
26485SOL    HW182347   5.650   4.970   7.848  0.3612 -0.1005 -0.3735
26485SOL    HW282348   5.750   4.981   7.734  1.0708 -1.0670  0.1400
26486SOL     OW82349   7.272   6.217   2.921 -0.0491 -0.4741  0.4575
26486SOL    HW182350   7.350   6.221   2.866  1.1067  0.0922  2.0605
26486SOL    HW282351   7.256   6.123   2.933  1.5640 -0.6393  1.6435
26487SOL     OW82352   4.067   4.363   5.010 -0.0338  0.2460 -0.2737
26487SOL    HW182353   3.987   4.406   4.980  0.7202  1.8401 -0.0607
26487SOL    HW282354   4.137   4.403   4.960  0.5804 -1.9793 -1.3342
26488SOL     OW82355   2.322   0.547   4.332 -0.0517  0.2688  0.2251
26488SOL    HW182356   2.321   0.523   4.424  0.4351 -0.2537  0.1016
26488SOL    HW282357   2.326   0.463   4.285 -0.7763  0.5054 -0.2857
26489SOL     OW82358   7.522   3.665   3.836 -0.7421 -0.1067 -0.0593
26489SOL    HW182359   7.538   3.590   3.893 -0.9426 -1.0277 -1.1792
26489SOL    HW282360   7.520   3.628   3.748 -1.2417  1.1629 -0.6042
26490SOL     OW82361   4.083   4.521   3.744 -0.1983 -0.2016 -0.0361
26490SOL    HW182362   4.149   4.587   3.761  0.9018 -0.7636 -1.8622
26490SOL    HW282363   4.009   4.569   3.707  0.6888  0.0254 -1.5887
26491SOL     OW82364   4.677   5.766   0.152  0.1397 -0.4596 -0.4562
26491SOL    HW182365   4.655   5.685   0.197  0.0143 -0.3542 -0.3252
26491SOL    HW282366   4.745   5.742   0.090 -0.5806 -0.8675 -1.1125
26492SOL     OW82367   7.662   6.618   5.739 -0.1481  0.4099 -0.1225
26492SOL    HW182368   7.588   6.584   5.788  0.6428  1.1459  1.6502
26492SOL    HW282369   7.650   6.713   5.740  0.4268  0.4937 -0.4941
26493SOL     OW82370   9.353   2.715   1.413 -0.6011 -0.0111  0.0992
26493SOL    HW182371   9.326   2.807   1.414 -0.2008  0.1179 -0.3725
26493SOL    HW282372   9.343   2.689   1.321  2.5808  0.5786 -0.5313
26494SOL     OW82373   3.375   1.939   1.764  0.0543 -0.0213 -0.9648
26494SOL    HW182374   3.433   1.862   1.757  0.9966  0.3181  1.8447
26494SOL    HW282375   3.433   2.010   1.791 -1.4945  0.5110  1.2431
26495SOL     OW82376   6.656   9.195   1.822 -0.0073 -0.4376  0.4397
26495SOL    HW182377   6.591   9.126   1.836  0.7937 -1.0345  1.2534
26495SOL    HW282378   6.705   9.200   1.904  2.1186 -1.2010 -0.7138
26496SOL     OW82379   1.276   1.040   4.627  0.2274 -0.3271 -0.3594
26496SOL    HW182380   1.362   1.031   4.586 -0.2358 -0.0137 -1.4199
26496SOL    HW282381   1.290   1.104   4.697  1.1550 -1.3156  0.4121
26497SOL     OW82382   4.046   3.561   4.342  0.3557  0.0888 -0.1468
26497SOL    HW182383   3.959   3.567   4.302  0.3907 -0.2009 -0.2665
26497SOL    HW282384   4.107   3.571   4.269  0.4645  2.3963  0.1851
26498SOL     OW82385   3.051   0.395   4.730  0.3037 -0.1226  0.3205
26498SOL    HW182386   2.988   0.467   4.731  0.9532  0.4494  0.4764
26498SOL    HW282387   3.040   0.353   4.815  0.0388 -0.1078  0.2950
26499SOL     OW82388   4.127   0.510   9.129 -0.3050 -0.2319 -0.2356
26499SOL    HW182389   4.099   0.517   9.038  0.7246  1.5820 -0.4632
26499SOL    HW282390   4.073   0.575   9.176  0.2301 -0.0590  0.1528
26500SOL     OW82391   4.208   2.389   8.364 -0.1683  0.7636 -0.0775
26500SOL    HW182392   4.167   2.302   8.365  0.3793  0.5053  0.2051
26500SOL    HW282393   4.226   2.408   8.456 -0.3572  1.2127 -0.1323
26501SOL     OW82394   5.146   3.334   7.166 -0.4765  0.1131 -0.6494
26501SOL    HW182395   5.234   3.322   7.130 -0.4024  0.5767 -0.6286
26501SOL    HW282396   5.089   3.291   7.103  0.0066 -3.4686  1.1016
26502SOL     OW82397   0.831   3.527   3.357 -0.2495  0.0724 -0.7923
26502SOL    HW182398   0.900   3.462   3.345  0.5628  0.7207  0.1851
26502SOL    HW282399   0.750   3.476   3.359  0.5497 -1.4301  3.1944
26503SOL     OW82400   5.324   3.252   4.071  0.5792 -0.1845 -0.2816
26503SOL    HW182401   5.398   3.231   4.013  0.0904 -0.2734 -0.8767
26503SOL    HW282402   5.293   3.167   4.101  0.0362 -0.2089 -0.8935
26504SOL     OW82403   3.937   7.195   3.949  0.5480  0.1585 -0.8579
26504SOL    HW182404   3.999   7.267   3.962 -1.2737  1.4950  1.1281
26504SOL    HW282405   3.860   7.237   3.911 -0.5885 -0.6755  0.4365
26505SOL     OW82406   4.611   6.111   8.282 -0.0154 -0.4939  0.0909
26505SOL    HW182407   4.636   6.191   8.235  0.2641 -0.1565  0.7981
26505SOL    HW282408   4.653   6.119   8.367  0.0220 -1.4078  0.1709
26506SOL     OW82409   1.988   4.412   6.895  0.1240 -0.5715  0.1699
26506SOL    HW182410   2.081   4.413   6.916  0.1342  0.8346  0.1744
26506SOL    HW282411   1.978   4.341   6.832  1.3617 -0.1709 -0.5052
26507SOL     OW82412   8.222   3.850   8.442  0.7827  0.3080 -0.1292
26507SOL    HW182413   8.187   3.859   8.353 -0.0966 -0.7756  0.0818
26507SOL    HW282414   8.294   3.788   8.433  0.1901 -0.4218  0.0130
26508SOL     OW82415   6.950   2.680   9.362  0.2790 -0.2734  0.1877
26508SOL    HW182416   7.043   2.674   9.384  0.5220 -0.2755 -0.8248
26508SOL    HW282417   6.918   2.590   9.370  0.4655 -0.3497  0.0622
26509SOL     OW82418   2.314   0.678   2.357 -0.1675 -0.6451 -0.3713
26509SOL    HW182419   2.280   0.765   2.375  0.6558 -0.5702  0.9513
26509SOL    HW282420   2.317   0.672   2.261 -1.0297  0.4405 -0.4816
26510SOL     OW82421   6.381   3.166   7.706 -0.5768  0.4502  0.2241
26510SOL    HW182422   6.474   3.186   7.717 -0.4057  0.6163 -1.4033
26510SOL    HW282423   6.354   3.130   7.791  1.1381 -0.2700  0.4970
26511SOL     OW82424   3.853   3.519   9.369  0.1429  0.3870  0.1408
26511SOL    HW182425   3.799   3.599   9.367  0.3959  0.5744  0.5724
26511SOL    HW282426   3.917   3.536   9.438  1.4599  0.6220 -1.0848
26512SOL     OW82427   3.621   9.277   9.604 -0.1173 -0.0730  0.2397
26512SOL    HW182428   3.574   9.357   9.625  0.3854  0.5737 -1.0503
26512SOL    HW282429   3.575   9.240   9.528  0.4842 -0.2828 -0.0275
26513SOL     OW82430   0.263   5.522   1.421 -0.3197 -0.0920  0.1770
26513SOL    HW182431   0.217   5.499   1.341 -1.9324  2.1119  0.3676
26513SOL    HW282432   0.195   5.559   1.478  0.7730 -1.5002  2.5504
26514SOL     OW82433   8.478   0.445   8.623 -0.3489 -0.5185  0.0471
26514SOL    HW182434   8.536   0.503   8.672 -0.2715 -0.6128  0.0661
26514SOL    HW282435   8.498   0.464   8.531  0.3464 -1.1915  0.0554
26515SOL     OW82436   7.613   1.314   0.202 -0.5620 -0.4740  0.0072
26515SOL    HW182437   7.569   1.262   0.269 -2.3188 -0.3199 -0.9454
26515SOL    HW282438   7.598   1.404   0.228 -1.4500 -0.4085 -0.6650
26516SOL     OW82439   4.065   8.757   0.581 -0.2124 -0.0514 -0.2229
26516SOL    HW182440   4.119   8.678   0.584  0.6536  0.3966 -2.2064
26516SOL    HW282441   4.029   8.765   0.669  1.6940 -1.2464  0.7315
26517SOL     OW82442   7.631   5.005   6.563 -0.0678  0.8930 -0.2144
26517SOL    HW182443   7.662   4.919   6.536 -0.0022  1.6278 -2.7780
26517SOL    HW282444   7.536   5.000   6.557 -0.2195  0.4244  1.7682
26518SOL     OW82445   3.473   3.497   0.241 -0.3230  0.2559 -0.3240
26518SOL    HW182446   3.460   3.403   0.226 -0.2405  0.2122 -0.1212
26518SOL    HW282447   3.385   3.530   0.259 -0.1817 -0.0367  1.0217
26519SOL     OW82448   5.863   3.960   2.151 -0.2231 -0.4231  0.1857
26519SOL    HW182449   5.851   3.918   2.236 -3.4641 -0.1864 -0.0458
26519SOL    HW282450   5.798   3.919   2.095  2.3902 -1.1955 -2.5346
26520SOL     OW82451   5.834   8.693   0.913 -0.2533 -0.3113  0.5632
26520SOL    HW182452   5.914   8.691   0.861  0.0061 -1.0996  0.9733
26520SOL    HW282453   5.786   8.614   0.887 -1.9037  1.1651 -1.1802
26521SOL     OW82454   6.576   0.307   8.367  0.2830 -0.7677 -0.4728
26521SOL    HW182455   6.623   0.360   8.303  1.3086  1.2086  1.7775
26521SOL    HW282456   6.495   0.355   8.384  0.8934 -0.2197  1.0655
26522SOL     OW82457   7.351   2.415   3.342  0.0188  0.3549 -0.0724
26522SOL    HW182458   7.272   2.468   3.350  0.4685  0.9303  0.5929
26522SOL    HW282459   7.327   2.346   3.280 -1.4059 -0.2164  1.0559
26523SOL     OW82460   7.183   7.455   2.592  0.0434  0.0375 -0.0556
26523SOL    HW182461   7.102   7.408   2.615  0.3115 -0.3930  0.0322
26523SOL    HW282462   7.236   7.450   2.672 -0.2945  1.3131  0.2634
26524SOL     OW82463   4.360   4.171   6.610 -0.3094  0.1572 -0.1047
26524SOL    HW182464   4.441   4.177   6.561  0.1687 -3.0068  0.1430
26524SOL    HW282465   4.292   4.161   6.544 -0.0134 -1.0961 -0.2348
26525SOL     OW82466   3.596   3.123   2.823  0.3890 -0.1712 -0.0081
26525SOL    HW182467   3.564   3.208   2.791 -0.0177 -0.3172  0.0034
26525SOL    HW282468   3.545   3.059   2.774 -3.1515 -0.4725  3.6107
26526SOL     OW82469   5.553   7.715   3.044 -0.0948 -0.3888  0.3318
26526SOL    HW182470   5.594   7.800   3.031  0.9578 -0.5145  2.3776
26526SOL    HW282471   5.467   7.735   3.082  0.2151 -0.2373  0.9569
26527SOL     OW82472   7.626   5.463   7.212  0.0976 -0.0506  0.2521
26527SOL    HW182473   7.618   5.557   7.197 -0.3769  0.1674  1.7649
26527SOL    HW282474   7.712   5.441   7.177  1.5692  1.5515  2.5499
26528SOL     OW82475   6.061   7.694   6.677  0.3358 -0.3234 -0.0843
26528SOL    HW182476   6.132   7.752   6.649 -1.4001  2.5493  0.9731
26528SOL    HW282477   6.058   7.705   6.772 -0.3205 -1.9130  0.1059
26529SOL     OW82478   7.950   1.773   1.334 -0.5784 -0.7122  0.0377
26529SOL    HW182479   7.866   1.731   1.347 -1.7763  2.0312  2.3775
26529SOL    HW282480   7.935   1.837   1.264 -0.9216  0.7357  1.3816
26530SOL     OW82481   1.989   8.507   8.669 -0.0405 -0.3212  0.5198
26530SOL    HW182482   1.980   8.421   8.710 -0.3548 -1.0344 -0.9740
26530SOL    HW282483   2.017   8.565   8.740  1.1683 -1.8534  1.3514
26531SOL     OW82484   0.736   0.059   2.634 -0.1719 -0.2170 -0.0598
26531SOL    HW182485   0.761   0.127   2.571 -1.9703 -0.9812 -1.6858
26531SOL    HW282486   0.684   0.106   2.700 -0.1687  0.2307 -0.3661
26532SOL     OW82487   4.490   0.150   1.564 -0.5504 -0.0369  0.3645
26532SOL    HW182488   4.572   0.145   1.614 -0.1317 -0.6343 -0.3581
26532SOL    HW282489   4.427   0.188   1.625  0.0350 -0.4232  1.2360
26533SOL     OW82490   0.817   8.340   9.239  0.0414 -0.5610  0.4541
26533SOL    HW182491   0.762   8.312   9.166  0.5968  0.6877 -0.4783
26533SOL    HW282492   0.900   8.294   9.226  0.9100  1.3040 -1.0055
26534SOL     OW82493   0.365   9.022   5.028 -0.3451 -0.7527 -0.3349
26534SOL    HW182494   0.288   9.044   5.080 -0.6287  0.9518 -1.3862
26534SOL    HW282495   0.436   9.014   5.092 -1.2833 -1.9015  0.6019
26535SOL     OW82496   6.731   0.528   3.227 -0.1696  0.5748  0.0054
26535SOL    HW182497   6.759   0.559   3.313  1.6923  1.1784 -0.7669
26535SOL    HW282498   6.636   0.539   3.227  0.0915  3.6726  0.8318
26536SOL     OW82499   9.312   0.431   5.999 -0.7166  0.0927 -0.3469
26536SOL    HW182500   9.276   0.421   5.911  1.0148  0.2248 -1.1181
26536SOL    HW282501   9.400   0.466   5.985 -0.3412 -0.0462  1.4294
26537SOL     OW82502   3.229   0.538   4.251 -0.3060 -0.3735 -0.1355
26537SOL    HW182503   3.217   0.633   4.239 -2.1859 -0.8466 -3.0019
26537SOL    HW282504   3.322   0.529   4.272  0.1489  2.0467 -0.7150
26538SOL     OW82505   5.605   3.449   5.701 -0.4302 -0.2430 -0.0444
26538SOL    HW182506   5.693   3.434   5.666 -0.3780  0.2571 -0.1299
26538SOL    HW282507   5.608   3.538   5.736 -0.9932 -0.1155 -0.3206
26539SOL     OW82508   4.657   0.163   6.790  0.7957  0.1789  0.5984
26539SOL    HW182509   4.727   0.099   6.799 -0.9443 -1.6928  1.5528
26539SOL    HW282510   4.589   0.134   6.851 -2.2803 -0.1036 -2.5883
26540SOL     OW82511   0.964   7.846   6.054  0.2031 -0.0197 -0.0051
26540SOL    HW182512   0.899   7.916   6.064  0.3105  0.2353 -0.9767
26540SOL    HW282513   0.932   7.795   5.980  1.2194  0.2351 -0.6312
26541SOL     OW82514   1.342   2.309   0.140  0.0136  0.1395 -0.3146
26541SOL    HW182515   1.422   2.257   0.152  0.2351  0.5961  0.2075
26541SOL    HW282516   1.350   2.380   0.204 -0.5600  0.4895 -0.6297
26542SOL     OW82517   5.745   9.575   2.108 -0.3814 -0.5724  0.5512
26542SOL    HW182518   5.784   9.489   2.118 -1.1393 -0.7025  3.2743
26542SOL    HW282519   5.747   9.613   2.196  1.1257  2.7795 -0.7533
26543SOL     OW82520   2.576   8.945   8.492  0.2307  0.2022 -0.4510
26543SOL    HW182521   2.649   8.914   8.438  0.9753  1.1329 -0.0144
26543SOL    HW282522   2.615   8.958   8.579 -0.8269 -0.7629  0.1986
26544SOL     OW82523   1.218   3.257   9.384  0.0819 -0.4341 -0.4339
26544SOL    HW182524   1.221   3.220   9.295 -3.3963  0.0867 -0.8794
26544SOL    HW282525   1.198   3.350   9.370 -1.3951 -0.5299  0.8962
26545SOL     OW82526   7.333   4.817   3.087  0.4601  0.2168  0.3055
26545SOL    HW182527   7.326   4.829   2.993  0.7338  1.8567  0.4780
26545SOL    HW282528   7.313   4.724   3.100  2.2465 -0.5087 -1.5403
26546SOL     OW82529   7.942   7.798   7.767  0.2110 -0.1513 -0.2902
26546SOL    HW182530   7.877   7.867   7.752  0.0755 -0.1867  0.1474
26546SOL    HW282531   7.980   7.819   7.852 -4.1232 -4.0072  3.0482
26547SOL     OW82532   9.555   7.904   2.357 -0.2075 -0.2367  0.1361
26547SOL    HW182533   9.577   7.974   2.295  0.9530 -0.2341  0.5177
26547SOL    HW282534   9.515   7.836   2.303 -1.3840  0.7149 -0.2377
26548SOL     OW82535   3.055   4.070   6.888  0.4483  0.6162 -0.0803
26548SOL    HW182536   3.144   4.084   6.856  0.3983 -0.5131 -0.7299
26548SOL    HW282537   3.067   4.020   6.969  0.3677 -0.5010 -0.7436
26549SOL     OW82538   2.470   5.662   6.277  0.7930  0.3027  0.0081
26549SOL    HW182539   2.417   5.647   6.199  0.7077  0.8785 -0.0446
26549SOL    HW282540   2.436   5.600   6.341  0.7318 -0.0364 -0.3465
26550SOL     OW82541   4.079   8.555   1.380 -0.0720  0.2727  0.6211
26550SOL    HW182542   3.989   8.527   1.396 -0.1570  0.3089  0.2040
26550SOL    HW282543   4.076   8.650   1.392 -0.2308  0.3536 -0.0492
26551SOL     OW82544   4.041   3.601   2.091  0.1070 -0.2105  0.1553
26551SOL    HW182545   4.019   3.646   2.173 -1.3287 -0.5939  0.0025
26551SOL    HW282546   3.969   3.623   2.032  0.6482 -0.7142 -0.7103
26552SOL     OW82547   7.120   8.058   6.396 -0.1975 -0.3354 -0.5107
26552SOL    HW182548   7.147   8.007   6.472  0.7230 -0.4550 -0.8950
26552SOL    HW282549   7.034   8.093   6.419  0.9282  1.3463  1.4413
26553SOL     OW82550   6.361   5.206   6.061  0.4795 -0.4178  0.8383
26553SOL    HW182551   6.277   5.162   6.048  1.0196 -1.7914  1.7701
26553SOL    HW282552   6.344   5.298   6.040 -0.9959 -0.8427  0.0396
26554SOL     OW82553   4.470   4.570   3.976  0.7271 -0.6546 -0.1262
26554SOL    HW182554   4.466   4.490   3.924  0.0608 -0.5846 -0.1841
26554SOL    HW282555   4.478   4.640   3.911  1.9757 -0.7069 -0.0578
26555SOL     OW82556   8.306   2.699   8.263  0.0936  0.2420 -0.0904
26555SOL    HW182557   8.240   2.676   8.329 -0.2913  1.4243 -0.0279
26555SOL    HW282558   8.340   2.784   8.293  1.2689 -0.1067 -0.4090
26556SOL     OW82559   2.054   5.300   8.997 -0.3876 -1.1942  0.6084
26556SOL    HW182560   2.067   5.395   9.003  0.4009 -0.9856 -2.4913
26556SOL    HW282561   2.128   5.269   8.945 -0.4922 -3.5948  1.7705
26557SOL     OW82562   2.961   5.371   2.564 -0.2000 -0.0562  0.2203
26557SOL    HW182563   2.991   5.290   2.523 -0.5741  1.2480 -2.9164
26557SOL    HW282564   3.028   5.390   2.630  1.0791 -1.7643 -0.5029
26558SOL     OW82565   4.123   4.064   4.940  0.4466  0.2881  0.2061
26558SOL    HW182566   4.046   4.028   4.896  1.1444 -0.0788 -0.7527
26558SOL    HW282567   4.103   4.157   4.951 -0.8221 -0.1032  1.5171
26559SOL     OW82568   1.907   4.922   6.018 -0.0214  0.2360  0.1826
26559SOL    HW182569   1.870   4.872   5.945 -0.5769  0.3419  0.3898
26559SOL    HW282570   1.842   4.989   6.038 -1.0681 -1.3247  2.4069
26560SOL     OW82571   8.307   6.859   3.105 -0.5864  0.1139  0.1460
26560SOL    HW182572   8.322   6.889   3.195  0.4385 -2.3684  0.9032
26560SOL    HW282573   8.215   6.879   3.088 -0.2056  2.7865  0.8072
26561SOL     OW82574   0.098   8.740   7.266 -0.5415 -1.0174 -0.2879
26561SOL    HW182575   0.181   8.760   7.309 -1.1192 -1.1500  0.9314
26561SOL    HW282576   0.087   8.809   7.200 -0.9268  0.8066  1.6007
26562SOL     OW82577   5.091   0.914   5.519 -0.0168  0.8366  0.1193
26562SOL    HW182578   5.105   0.887   5.610 -0.8964 -0.9262 -0.2383
26562SOL    HW282579   5.176   0.899   5.476 -0.3529 -1.1046  0.0300
26563SOL     OW82580   4.165   9.618   5.968 -0.3027  0.4994 -0.2220
26563SOL    HW182581   4.073   9.594   5.955 -0.9033  2.3585  0.2179
26563SOL    HW282582   4.164   9.677   6.044  1.1476  1.1115 -0.6397
26564SOL     OW82583   8.779   6.273   6.745 -0.4072  0.4428 -0.6402
26564SOL    HW182584   8.865   6.293   6.707 -0.6137  0.2002 -1.2348
26564SOL    HW282585   8.799   6.223   6.824 -0.0121  0.0869 -0.9629
26565SOL     OW82586   3.908   0.661   0.935  0.0336  0.4776  0.4338
26565SOL    HW182587   3.860   0.739   0.963 -1.3695 -0.7552  1.6202
26565SOL    HW282588   3.843   0.608   0.890  1.3133  0.5761 -1.7032
26566SOL     OW82589   9.293   6.638   4.978 -0.2416  0.5473 -0.0118
26566SOL    HW182590   9.233   6.610   4.908 -0.3437  0.4849  0.0999
26566SOL    HW282591   9.361   6.687   4.933 -0.8015  1.3033 -0.0508
26567SOL     OW82592   2.449   7.752   0.936 -0.0828 -0.5450  0.0366
26567SOL    HW182593   2.540   7.747   0.965  0.0931 -0.0727 -0.4204
26567SOL    HW282594   2.423   7.843   0.953 -0.6046 -0.7804  0.5494
26568SOL     OW82595   2.282   4.583   4.419  0.3801 -0.0879 -0.3407
26568SOL    HW182596   2.210   4.520   4.408  0.4195  0.2734 -4.0969
26568SOL    HW282597   2.360   4.529   4.432 -0.0109 -0.6683 -0.3687
26569SOL     OW82598   5.644   7.775   7.696 -0.2867 -0.2335 -0.1328
26569SOL    HW182599   5.663   7.729   7.614  1.5969  1.7202 -0.9250
26569SOL    HW282600   5.603   7.857   7.667  0.6303  0.5878  0.8329
26570SOL     OW82601   8.642   7.342   4.392 -0.0197 -0.2900 -0.2962
26570SOL    HW182602   8.678   7.292   4.466  0.8969 -0.2632 -0.7033
26570SOL    HW282603   8.547   7.333   4.400  0.0410  0.1537  1.1884
26571SOL     OW82604   3.877   5.324   9.384  0.1561 -0.4079  0.6895
26571SOL    HW182605   3.819   5.258   9.421 -0.1504  0.4688  1.8237
26571SOL    HW282606   3.904   5.378   9.459  2.4332 -0.7725  0.2022
26572SOL     OW82607   7.431   1.487   6.646  0.3145 -0.1498  0.3785
26572SOL    HW182608   7.454   1.440   6.725  0.5105 -0.1642  0.3121
26572SOL    HW282609   7.335   1.486   6.645  0.2700 -2.5558 -0.8036
26573SOL     OW82610   8.642   7.827   6.328  0.5380  0.2006  0.4481
26573SOL    HW182611   8.609   7.758   6.270 -0.6499  0.0174  1.3033
26573SOL    HW282612   8.703   7.877   6.274  0.7204 -0.9611 -0.4576
26574SOL     OW82613   0.667   2.866   4.537 -0.2759 -0.1328  0.5902
26574SOL    HW182614   0.732   2.814   4.586 -1.8692  0.9148  4.1295
26574SOL    HW282615   0.585   2.819   4.548 -0.6384 -0.1830 -1.7941
26575SOL     OW82616   1.391   5.349   1.016 -0.6700 -0.0243  0.2145
26575SOL    HW182617   1.329   5.290   0.974 -0.0993  0.1067 -0.8577
26575SOL    HW282618   1.364   5.352   1.107 -2.3756  0.2087 -0.2734
26576SOL     OW82619   5.330   4.305   9.582 -0.3769 -0.1272  0.4535
26576SOL    HW182620   5.287   4.248   9.518 -0.3486  0.1689  0.1708
26576SOL    HW282621   5.275   4.298   9.660 -1.0584  0.3970  0.0360
26577SOL     OW82622   2.148   3.068   1.975  0.4728  0.3116  0.3468
26577SOL    HW182623   2.086   3.090   1.905  0.5160 -1.3489 -0.2482
26577SOL    HW282624   2.156   2.973   1.971  2.0385  0.3748  1.3062
26578SOL     OW82625   1.556   4.553   0.861 -0.4485 -0.3482 -0.5086
26578SOL    HW182626   1.460   4.555   0.856 -0.5633 -0.8173  1.0146
26578SOL    HW282627   1.584   4.623   0.802 -1.7672  0.5143 -0.1701
26579SOL     OW82628   7.736   6.604   3.394 -0.5836  0.2753  0.4130
26579SOL    HW182629   7.780   6.521   3.378 -1.3077  0.0825 -0.6986
26579SOL    HW282630   7.807   6.667   3.410 -0.0558 -0.7889  2.6580
26580SOL     OW82631   4.077   0.732   4.335  0.6680  0.0932 -0.1285
26580SOL    HW182632   4.097   0.684   4.415 -0.2993 -0.0516  0.0367
26580SOL    HW282633   4.126   0.686   4.267  0.7249 -0.3747  0.2221
26581SOL     OW82634   0.948   0.411   1.590  0.1913  0.2285  0.2016
26581SOL    HW182635   0.909   0.375   1.511  1.5733 -1.6188  0.2907
26581SOL    HW282636   0.879   0.407   1.656 -1.1031  2.1708 -0.9581
26582SOL     OW82637   6.542   5.993   7.299  0.2242  0.2194  0.5164
26582SOL    HW182638   6.468   6.016   7.243  2.1876  3.7551 -0.9838
26582SOL    HW282639   6.604   5.949   7.240 -0.5921 -2.9095  1.7969
26583SOL     OW82640   6.180   8.465   5.770 -0.0394 -0.2701 -0.1250
26583SOL    HW182641   6.146   8.554   5.759 -0.3073 -0.3728 -0.1339
26583SOL    HW282642   6.234   8.450   5.693  0.7584  0.2209  0.3154
26584SOL     OW82643   8.987   4.674   3.175  0.4284  0.2700  0.0194
26584SOL    HW182644   8.966   4.668   3.082  0.3553  1.0279 -0.0231
26584SOL    HW282645   9.073   4.716   3.177  1.1166 -1.1213  0.2510
26585SOL     OW82646   5.279   0.865   1.214  0.0612 -0.4671  0.4379
26585SOL    HW182647   5.224   0.790   1.235 -0.5843  0.2474  1.3667
26585SOL    HW282648   5.218   0.930   1.179  0.3614  0.2248  1.1848
26586SOL     OW82649   7.443   1.964   2.452  0.1448  0.1710  0.2589
26586SOL    HW182650   7.409   1.898   2.391  0.5802  0.0921  0.0916
26586SOL    HW282651   7.386   2.039   2.442  0.1951  0.1457 -0.2279
26587SOL     OW82652   8.223   2.268   8.920 -1.2403  0.5953 -0.2615
26587SOL    HW182653   8.234   2.353   8.879  0.6347  0.8823  0.7037
26587SOL    HW282654   8.239   2.205   8.849 -3.0717  1.0063 -1.0758
26588SOL     OW82655   5.219   6.795   8.863  0.4464 -0.1919 -0.4958
26588SOL    HW182656   5.128   6.821   8.880 -0.0807 -2.8096  1.3611
26588SOL    HW282657   5.271   6.860   8.911 -0.5337  0.2502  0.0107
26589SOL     OW82658   0.816   3.759   1.198  0.1941 -0.3071  0.2007
26589SOL    HW182659   0.874   3.832   1.176 -0.4008  0.3124  0.6361
26589SOL    HW282660   0.858   3.717   1.273 -0.8698  1.3393  1.7938
26590SOL     OW82661   6.060   6.782   3.959 -0.2699 -0.4272  0.2142
26590SOL    HW182662   5.987   6.800   3.900 -0.8272 -0.6859  0.8182
26590SOL    HW282663   6.092   6.695   3.932 -0.4744 -0.5129  0.2481
26591SOL     OW82664   2.188   4.377   7.240  0.5780  0.0691 -0.1881
26591SOL    HW182665   2.138   4.299   7.218  0.4330  0.5185 -1.5323
26591SOL    HW282666   2.201   4.422   7.156  0.4986  1.5798  0.5724
26592SOL     OW82667   3.746   6.178   4.323  0.0382 -0.4995  0.0582
26592SOL    HW182668   3.686   6.252   4.333  0.7050  0.7091 -3.4747
26592SOL    HW282669   3.801   6.181   4.401 -1.1016  1.6310  0.8640
26593SOL     OW82670   2.225   2.175   0.369  0.6674  0.6535  0.4540
26593SOL    HW182671   2.195   2.192   0.280  1.3688  2.2423  0.4814
26593SOL    HW282672   2.207   2.082   0.383  0.1059  0.4797 -1.1618
26594SOL     OW82673   1.192   3.963   5.970  0.3765 -0.2954 -0.6748
26594SOL    HW182674   1.207   4.038   5.912 -1.3809 -0.3588 -1.2760
26594SOL    HW282675   1.206   3.886   5.915  2.7300 -0.5042  0.0785
26595SOL     OW82676   2.103   3.118   5.578  0.0158  0.0568  0.2207
26595SOL    HW182677   2.079   3.105   5.486  0.3524  0.5516  0.0615
26595SOL    HW282678   2.135   3.033   5.606  1.4372  0.2996 -0.5811
26596SOL     OW82679   5.051   5.495   1.482  0.1343  0.6325  0.4351
26596SOL    HW182680   5.078   5.467   1.569 -1.6320 -2.4536  0.1380
26596SOL    HW282681   4.994   5.570   1.497  0.1332  0.3638  1.8946
26597SOL     OW82682   3.199   7.862   6.557 -0.0656 -0.2374  0.0540
26597SOL    HW182683   3.249   7.937   6.523  1.2332 -0.3147  1.6490
26597SOL    HW282684   3.124   7.901   6.601 -0.0905  0.0440 -0.2356
26598SOL     OW82685   4.769   0.131   0.029  0.4725 -0.3020 -0.2964
26598SOL    HW182686   4.686   0.081   0.030  0.4900 -0.3464 -1.0755
26598SOL    HW282687   4.836   0.064   0.040  0.4558 -0.3736 -0.6209
26599SOL     OW82688   7.012   1.871   8.898  0.0468  0.3607 -0.7778
26599SOL    HW182689   6.984   1.939   8.960  2.5812  1.3891 -0.6624
26599SOL    HW282690   7.073   1.916   8.839  0.1700 -1.3556 -2.0438
26600SOL     OW82691   0.536   5.772   9.398  0.1267 -0.6478  0.3375
26600SOL    HW182692   0.531   5.735   9.486  0.3064 -2.2627 -0.2931
26600SOL    HW282693   0.621   5.744   9.365 -0.2422 -0.6915 -0.6080
26601SOL     OW82694   5.641   6.453   3.433  0.1478  0.0068  0.0782
26601SOL    HW182695   5.651   6.541   3.468  2.1095 -0.5010  0.8862
26601SOL    HW282696   5.647   6.395   3.509  1.2531 -0.9467 -0.6954
26602SOL     OW82697   1.466   1.527   0.385  0.1279 -0.4383  0.1213
26602SOL    HW182698   1.462   1.432   0.381 -1.4536 -0.3590 -1.4570
26602SOL    HW282699   1.374   1.555   0.386  0.5641  1.0726  0.3676
26603SOL     OW82700   5.554   8.157   2.622  0.4790  0.4186 -0.2845
26603SOL    HW182701   5.474   8.134   2.669  0.0788  0.6850 -0.8149
26603SOL    HW282702   5.560   8.093   2.551  0.3602  0.8024 -0.6514
26604SOL     OW82703   6.878   5.476   1.977 -0.8997  0.6055  0.1821
26604SOL    HW182704   6.825   5.403   2.010  0.5685 -0.4003  0.3732
26604SOL    HW282705   6.856   5.482   1.884 -0.9412 -0.1716  0.1349
26605SOL     OW82706   8.647   2.578   6.194  0.2244  0.1048 -0.3900
26605SOL    HW182707   8.622   2.563   6.102 -0.5326 -1.6771  0.0624
26605SOL    HW282708   8.586   2.524   6.244  3.0490 -2.1058  0.9565
26606SOL     OW82709   8.672   8.236   3.725 -0.2432 -0.6294  0.5780
26606SOL    HW182710   8.624   8.293   3.784 -1.5274  0.9562 -1.8332
26606SOL    HW282711   8.619   8.157   3.718 -0.6292 -0.3833  0.7227
26607SOL     OW82712   6.097   8.030   1.757 -0.4871  0.0919 -0.3347
26607SOL    HW182713   6.079   7.959   1.696  0.9675 -0.3788 -0.2597
26607SOL    HW282714   6.162   7.994   1.817  0.2021  1.4326 -0.2278
26608SOL     OW82715   7.630   0.981   0.381  0.0938 -0.1840 -0.0952
26608SOL    HW182716   7.710   0.986   0.434  1.2260  0.8845 -1.7888
26608SOL    HW282717   7.559   0.999   0.442  1.3023  0.6185  1.1402
26609SOL     OW82718   4.642   4.411   6.196  0.0211 -0.2967 -0.3875
26609SOL    HW182719   4.595   4.444   6.120  0.5407 -1.3913 -1.2226
26609SOL    HW282720   4.674   4.325   6.168  1.6027 -0.0314  0.5000
26610SOL     OW82721   6.448   3.470   3.195  0.7234 -0.0007 -0.3028
26610SOL    HW182722   6.475   3.555   3.159  1.5833 -0.1799 -0.1094
26610SOL    HW282723   6.513   3.451   3.263  0.4494 -0.7442 -0.2359
26611SOL     OW82724   8.185   9.031   3.652 -0.3200  0.2614 -0.6747
26611SOL    HW182725   8.119   9.073   3.596  0.3453 -0.5466 -2.1151
26611SOL    HW282726   8.245   8.988   3.590  1.8859  1.4168  0.5500
26612SOL     OW82727   5.387   7.146   5.136  0.6934 -0.1391 -0.1814
26612SOL    HW182728   5.390   7.185   5.223  0.5462 -1.4929  0.4388
26612SOL    HW282729   5.297   7.114   5.126  0.6296  0.2378 -0.9441
26613SOL     OW82730   8.169   5.682   7.641 -0.0306 -0.1076  0.4506
26613SOL    HW182731   8.146   5.589   7.651  0.6798 -0.2585  0.7295
26613SOL    HW282732   8.262   5.686   7.666  0.6192  0.2714 -1.8378
26614SOL     OW82733   5.004   4.936   1.292  0.5047  0.1113  0.8090
26614SOL    HW182734   4.934   4.899   1.345  0.0632  0.4309  0.4623
26614SOL    HW282735   4.967   5.018   1.258  0.0484 -0.9890 -1.5521
26615SOL     OW82736   2.990   1.888   1.043 -0.2793  0.2315  0.3643
26615SOL    HW182737   3.073   1.847   1.020 -1.7169 -1.4348 -2.4524
26615SOL    HW282738   2.991   1.972   0.997  0.7327  1.3283  2.2790
26616SOL     OW82739   7.666   7.869   7.921  0.1485 -0.4239 -0.3508
26616SOL    HW182740   7.587   7.885   7.971  0.0670  0.2814 -0.6950
26616SOL    HW282741   7.735   7.914   7.970  0.0607  0.3068 -0.8870
26617SOL     OW82742   8.413   3.243   8.703  0.3208 -0.4403  0.2104
26617SOL    HW182743   8.339   3.200   8.747 -0.7690 -0.5792 -1.6538
26617SOL    HW282744   8.437   3.314   8.762 -0.7344 -0.9297  1.2791
26618SOL     OW82745   4.480   9.276   8.866  0.3681  0.4326  0.6432
26618SOL    HW182746   4.401   9.286   8.918 -1.1692 -0.4126 -1.3612
26618SOL    HW282747   4.536   9.217   8.916 -1.2574 -0.7532  1.1375
26619SOL     OW82748   2.960   4.206   1.916 -0.0409 -0.3531 -0.0212
26619SOL    HW182749   2.966   4.251   2.001 -0.2088 -0.9881  0.3333
26619SOL    HW282750   2.924   4.120   1.937  0.1105 -0.5910 -0.7174
26620SOL     OW82751   2.796   1.805   5.356  0.3581 -0.2835 -0.5139
26620SOL    HW182752   2.766   1.808   5.447  0.8330 -0.4002 -0.3495
26620SOL    HW282753   2.780   1.893   5.323  0.5063 -0.1407 -0.2111
26621SOL     OW82754   4.495   2.221   1.480 -0.0437 -0.1538  0.0557
26621SOL    HW182755   4.523   2.306   1.513 -0.7674 -0.2904  1.0891
26621SOL    HW282756   4.533   2.158   1.541 -3.3260 -0.3006  2.2161
26622SOL     OW82757   8.702   9.607   4.937 -0.3868 -0.3691 -0.4997
26622SOL    HW182758   8.694   9.692   4.892 -1.6006 -1.1494 -1.8554
26622SOL    HW282759   8.629   9.607   4.999 -0.6109 -0.5618 -0.7609
26623SOL     OW82760   0.391   2.127   3.523 -0.4554 -0.2545 -0.4454
26623SOL    HW182761   0.449   2.079   3.464  1.5598  0.4505  0.8530
26623SOL    HW282762   0.303   2.110   3.490  0.3757 -2.5086 -1.6851
26624SOL     OW82763   9.605   4.587   8.792  0.1088 -0.0009 -0.2513
26624SOL    HW182764   9.520   4.560   8.828 -0.2405 -0.5376 -1.4110
26624SOL    HW282765   9.589   4.593   8.698  1.4981 -0.6240 -0.5402
26625SOL     OW82766   6.866   6.577   8.062  0.8322 -0.5121 -0.2393
26625SOL    HW182767   6.785   6.628   8.050  0.9599 -0.2171  0.1389
26625SOL    HW282768   6.895   6.558   7.973  0.1564 -0.9230 -0.3781
26626SOL     OW82769   8.292   2.248   1.608  0.2066 -0.0225  0.0959
26626SOL    HW182770   8.220   2.310   1.591 -0.6324 -0.6448  1.2777
26626SOL    HW282771   8.261   2.195   1.681  2.2380  0.2616  1.2335
26627SOL     OW82772   1.916   9.445   2.667  0.3703  0.5404 -0.2849
26627SOL    HW182773   1.882   9.357   2.684  0.1915  0.4203 -1.2055
26627SOL    HW282774   1.890   9.464   2.577  1.2991  1.1224 -0.4510
26628SOL     OW82775   6.430   5.463   4.401 -0.2116  0.0748  0.2244
26628SOL    HW182776   6.338   5.477   4.422 -0.7659 -0.7623 -1.5277
26628SOL    HW282777   6.464   5.414   4.476 -0.8268  1.4752  1.4875
26629SOL     OW82778   7.428   8.011   4.405 -0.8956 -0.2366 -0.1957
26629SOL    HW182779   7.413   7.919   4.383  1.9119 -0.7914 -0.2206
26629SOL    HW282780   7.435   8.013   4.500 -0.1337 -0.2106 -0.2490
26630SOL     OW82781   7.315   9.066   4.565  0.0603  0.3056  0.4180
26630SOL    HW182782   7.329   9.036   4.655  0.7915  1.7491  0.8094
26630SOL    HW282783   7.231   9.027   4.540 -0.5637  0.5553  2.0288
26631SOL     OW82784   2.105   1.470   5.678  0.0339  0.1798  0.6707
26631SOL    HW182785   2.160   1.393   5.662 -0.8372 -0.2173 -0.5717
26631SOL    HW282786   2.026   1.435   5.719 -1.2431  0.0781 -1.7155
26632SOL     OW82787   2.949   8.610   6.540 -0.4439 -0.4667  0.3266
26632SOL    HW182788   2.923   8.665   6.465  2.1580  1.2035  0.5300
26632SOL    HW282789   2.929   8.664   6.617 -0.8021 -1.1488  0.7163
26633SOL     OW82790   5.918   2.576   6.812 -0.5234 -0.0809 -0.0399
26633SOL    HW182791   5.867   2.572   6.731 -1.3946 -1.0821  0.5299
26633SOL    HW282792   5.962   2.491   6.816 -0.8179 -0.2015  0.7386
26634SOL     OW82793   4.306   1.170   0.816 -0.1394 -0.3697  0.1405
26634SOL    HW182794   4.321   1.144   0.907  0.1850 -0.0298  0.1886
26634SOL    HW282795   4.351   1.255   0.808  0.9426 -0.9878 -0.6770
26635SOL     OW82796   8.424   8.234   9.145 -0.2304 -0.0121  0.2571
26635SOL    HW182797   8.505   8.266   9.106  0.8098 -1.1357  1.4094
26635SOL    HW282798   8.421   8.141   9.120 -2.2315  0.4468 -1.4764
26636SOL     OW82799   0.365   2.572   9.161 -0.1244  0.8192 -0.5037
26636SOL    HW182800   0.300   2.571   9.231 -0.2730 -0.5627 -0.6350
26636SOL    HW282801   0.449   2.576   9.206 -0.2450  0.8556 -0.2812
26637SOL     OW82802   2.646   7.527   9.333 -0.2502 -0.8093  0.1003
26637SOL    HW182803   2.557   7.493   9.325 -0.2229 -1.9168  3.1506
26637SOL    HW282804   2.700   7.465   9.284 -1.0793 -0.3086 -1.4970
26638SOL     OW82805   0.694   2.516   8.880 -0.2184  0.1809 -0.7989
26638SOL    HW182806   0.697   2.589   8.941 -3.0695  0.8016 -1.2566
26638SOL    HW282807   0.767   2.533   8.819  0.1559  1.7514  0.0287
26639SOL     OW82808   1.920   1.624   1.836 -0.1306 -0.0300  0.2570
26639SOL    HW182809   1.997   1.574   1.810 -0.8008 -0.7886 -0.3096
26639SOL    HW282810   1.893   1.585   1.919  0.5128  0.7183  0.8311
26640SOL     OW82811   5.453   6.308   0.039  0.0221 -0.7503 -0.1154
26640SOL    HW182812   5.439   6.385   0.094  1.6556  0.0342 -0.7289
26640SOL    HW282813   5.374   6.303  -0.016  0.3172  1.1141 -0.7711
26641SOL     OW82814   6.446   7.576   9.265  0.1847 -0.5921 -0.3738
26641SOL    HW182815   6.498   7.611   9.337 -1.3971 -0.6225  0.8509
26641SOL    HW282816   6.431   7.651   9.207  1.4186 -0.5542 -0.6617
26642SOL     OW82817   9.017   8.464   3.996  0.0022 -0.9258  0.4067
26642SOL    HW182818   9.094   8.415   4.025 -0.7436 -1.2088  1.9929
26642SOL    HW282819   8.963   8.473   4.074 -1.3869 -0.3482 -0.5801
26643SOL     OW82820   9.609   1.028   6.100 -0.1832  0.2003 -0.6343
26643SOL    HW182821   9.574   0.964   6.038 -1.2234 -0.7548  0.8581
26643SOL    HW282822   9.679   0.981   6.145  0.6845  0.9437 -1.1800
26644SOL     OW82823   5.734   7.048   4.399 -0.4882 -0.0186  0.0105
26644SOL    HW182824   5.797   7.110   4.437 -0.6880  0.9190 -1.1284
26644SOL    HW282825   5.780   6.964   4.399  0.5009  0.5101 -0.1523
26645SOL     OW82826   1.637   0.984   7.645  0.1931 -0.2663  0.3387
26645SOL    HW182827   1.562   0.963   7.700  0.3190  0.8534  0.9757
26645SOL    HW282828   1.653   0.905   7.594 -0.9252 -0.7860  0.7602
26646SOL     OW82829   5.243   3.464   8.159 -0.6642 -0.1927 -0.5478
26646SOL    HW182830   5.246   3.371   8.139 -1.9173 -0.1346 -1.0355
26646SOL    HW282831   5.178   3.472   8.229 -0.3261  0.2826 -0.2789
26647SOL     OW82832   0.470   8.081   2.132 -0.2792 -0.4180 -0.5425
26647SOL    HW182833   0.535   8.134   2.085 -0.6036  0.5488  0.0530
26647SOL    HW282834   0.488   7.991   2.105  2.4211 -0.4232  0.8677
26648SOL     OW82835   5.164   1.965   9.068  0.5983 -0.1661 -0.3312
26648SOL    HW182836   5.187   2.046   9.113  1.2178 -0.4595 -0.1095
26648SOL    HW282837   5.248   1.921   9.054  0.3228 -0.5179 -0.9334
26649SOL     OW82838   5.584   2.352   1.170 -0.3736 -0.2651 -0.5047
26649SOL    HW182839   5.672   2.322   1.190 -1.4121 -2.2077  1.6826
26649SOL    HW282840   5.542   2.276   1.129 -0.8973  0.8369 -2.1142
26650SOL     OW82841   5.314   1.755   2.459  0.0488  0.1017  0.2424
26650SOL    HW182842   5.302   1.690   2.390 -2.2964 -0.0528  0.7188
26650SOL    HW282843   5.383   1.719   2.515  1.1014 -0.3579 -1.3087
26651SOL     OW82844   2.685   5.101   6.739  0.1617 -0.0173 -0.5290
26651SOL    HW182845   2.742   5.177   6.724  1.5054 -1.0079 -0.6002
26651SOL    HW282846   2.709   5.070   6.827 -0.7013 -0.1023 -0.3129
26652SOL     OW82847   7.828   6.172   5.255 -0.1884  0.0906 -0.2269
26652SOL    HW182848   7.797   6.092   5.211 -1.0636  1.3158 -1.9564
26652SOL    HW282849   7.861   6.227   5.184  0.3471  1.3016  0.9219
26653SOL     OW82850   3.811   4.402   3.803 -0.3830  0.2453 -0.6403
26653SOL    HW182851   3.814   4.478   3.744 -0.5760  2.1682  1.6741
26653SOL    HW282852   3.719   4.395   3.828  0.1083  1.4939  1.7974
26654SOL     OW82853   0.888   5.076   5.624  0.5187 -0.3038  0.3251
26654SOL    HW182854   0.920   5.146   5.568  0.4353 -0.5674 -0.0599
26654SOL    HW282855   0.896   5.110   5.713  0.5736  0.1509  0.1476
26655SOL     OW82856   8.561   6.339   7.313  0.3019  0.0928 -0.1798
26655SOL    HW182857   8.575   6.248   7.286  2.1132  0.8032 -1.8337
26655SOL    HW282858   8.614   6.349   7.392 -1.7563 -0.8457  1.4480
26656SOL     OW82859   7.893   9.220   5.814 -0.4967  0.5538 -0.4731
26656SOL    HW182860   7.903   9.300   5.764  0.8239 -1.5107 -3.8467
26656SOL    HW282861   7.979   9.204   5.852 -1.6263  2.4645  3.5150
26657SOL     OW82862   8.337   2.222   6.991 -0.4300 -0.3635  0.7540
26657SOL    HW182863   8.324   2.317   6.986  2.0380  0.0891  1.4546
26657SOL    HW282864   8.298   2.197   7.075 -0.0253  0.2762  1.1503
26658SOL     OW82865   3.044   3.412   4.219 -0.0727 -0.1570 -0.0851
26658SOL    HW182866   2.977   3.477   4.241 -0.4870 -0.0313 -1.6236
26658SOL    HW282867   2.994   3.331   4.205 -0.1071  0.2158 -2.4702
26659SOL     OW82868   8.622   5.757   1.611 -0.3507  0.7543 -0.7214
26659SOL    HW182869   8.621   5.711   1.527  0.5559  1.5035 -1.1616
26659SOL    HW282870   8.531   5.759   1.638 -0.4188 -1.3864 -0.6174
26660SOL     OW82871   0.338   0.566   3.945  0.1056 -0.1970  0.3089
26660SOL    HW182872   0.416   0.549   3.893 -0.5277 -1.5298 -0.2501
26660SOL    HW282873   0.272   0.592   3.880 -0.5824 -1.4965  0.4634
26661SOL     OW82874   5.795   5.483   4.643 -0.1219  0.2705 -0.2137
26661SOL    HW182875   5.866   5.527   4.597  1.4716 -0.1926  1.6506
26661SOL    HW282876   5.739   5.553   4.676  0.8772  0.7962  0.4038
26662SOL     OW82877   1.333   4.069   8.794  0.2327  0.8578 -0.0554
26662SOL    HW182878   1.375   3.985   8.774  0.7300  0.9961  0.3694
26662SOL    HW282879   1.240   4.050   8.789  0.3185  0.6739 -1.5742
26663SOL     OW82880   3.444   2.891   5.759 -0.0121 -0.2541  0.1323
26663SOL    HW182881   3.408   2.960   5.816  0.1679 -0.8479  0.9880
26663SOL    HW282882   3.431   2.924   5.670 -2.7511 -0.4481  0.3650
26664SOL     OW82883   4.093   2.019   4.495  0.1914  0.2782 -0.8069
26664SOL    HW182884   4.093   2.058   4.583  0.1817  0.4510 -0.8823
26664SOL    HW282885   4.001   1.999   4.478  0.3223 -0.7880 -0.3286
26665SOL     OW82886   5.689   9.091   2.648  0.2063 -0.1373 -0.4985
26665SOL    HW182887   5.694   9.186   2.657 -0.9256 -0.2254  1.5338
26665SOL    HW282888   5.748   9.057   2.714 -1.4986 -0.8277  0.7426
26666SOL     OW82889   7.195   4.983   1.908 -0.1410 -0.0522  0.6664
26666SOL    HW182890   7.286   4.973   1.880 -0.0693 -0.5062  1.0644
26666SOL    HW282891   7.200   4.998   2.002 -0.5724 -1.9810  1.0351
26667SOL     OW82892   3.079   6.569   5.292 -0.1524 -0.2936 -0.2039
26667SOL    HW182893   2.986   6.545   5.291 -0.0403 -0.7972  0.5995
26667SOL    HW282894   3.094   6.612   5.208 -0.7192 -1.6886 -1.0427
26668SOL     OW82895   8.178   3.206   9.527 -0.1510  0.4949 -0.1555
26668SOL    HW182896   8.154   3.298   9.536  1.1183  0.6721  2.2494
26668SOL    HW282897   8.115   3.159   9.580 -0.6482 -0.0254 -1.1826
26669SOL     OW82898   7.593   7.001   4.039  0.1434  0.2242 -0.6641
26669SOL    HW182899   7.626   6.998   3.950 -0.4471  3.3510 -1.1040
26669SOL    HW282900   7.500   6.984   4.031  0.4334 -1.7621 -0.2896
26670SOL     OW82901   7.728   9.235   8.035 -0.0510  0.0435  0.1560
26670SOL    HW182902   7.785   9.159   8.040  1.1486  0.9129 -0.0541
26670SOL    HW282903   7.653   9.205   7.983  0.8347 -0.7416 -0.7137
26671SOL     OW82904   5.080   0.283   3.255 -0.5962 -0.1752 -0.4779
26671SOL    HW182905   4.990   0.290   3.223 -0.9912  4.5152  0.8568
26671SOL    HW282906   5.072   0.240   3.340 -1.4996 -0.1476 -0.5431
26672SOL     OW82907   3.292   7.921   9.600  0.1304  0.4385 -0.1245
26672SOL    HW182908   3.327   7.952   9.517  2.0416 -1.8587 -0.3192
26672SOL    HW282909   3.218   7.866   9.577 -0.8460  1.7054 -0.0794
26673SOL     OW82910   8.105   4.323   3.228  0.3923  0.7573 -0.1188
26673SOL    HW182911   8.028   4.273   3.201  0.8636  0.2924 -0.6373
26673SOL    HW282912   8.072   4.385   3.293 -0.3344  0.2630 -0.0061
26674SOL     OW82913   1.711   4.968   4.338  0.0194  0.7465  0.3157
26674SOL    HW182914   1.626   4.959   4.382  0.1451  0.3527  0.4776
26674SOL    HW282915   1.694   4.942   4.248 -0.0047  0.5631  0.3741
26675SOL     OW82916   4.122   9.106   4.333 -0.2476  0.2008  0.3204
26675SOL    HW182917   4.063   9.158   4.388 -0.7163  1.5173 -1.3556
26675SOL    HW282918   4.074   9.025   4.317  0.0055 -0.3270  2.0203
26676SOL     OW82919   2.865   0.143   6.155 -0.1458 -0.3285  0.1327
26676SOL    HW182920   2.874   0.106   6.067  0.0522  1.3928 -0.6134
26676SOL    HW282921   2.803   0.215   6.145 -0.2315 -0.1822  1.4516
26677SOL     OW82922   9.082   4.455   6.208 -0.1712 -0.0864  0.0979
26677SOL    HW182923   9.093   4.363   6.235  1.0168 -0.2888 -0.9995
26677SOL    HW282924   9.087   4.453   6.113  2.0455  1.3448  0.1068
26678SOL     OW82925   3.495   9.513   2.624 -0.5102 -0.0589 -0.0344
26678SOL    HW182926   3.454   9.588   2.580 -0.4091 -0.2322 -0.4282
26678SOL    HW282927   3.577   9.547   2.658 -0.2774 -0.0818 -0.5560
26679SOL     OW82928   8.091   2.072   6.841 -1.1591 -0.2093  0.0239
26679SOL    HW182929   8.128   2.013   6.907 -2.0737  0.6353  1.3246
26679SOL    HW282930   8.096   2.022   6.759 -0.1168 -1.3245  0.7441
26680SOL     OW82931   5.097   6.865   8.153  0.4804  0.3742  0.7516
26680SOL    HW182932   5.121   6.774   8.171 -1.3412 -0.0518  1.2392
26680SOL    HW282933   5.159   6.894   8.086  1.6100 -0.9505  1.1838
26681SOL     OW82934   9.124   5.959   3.099  0.3923  0.4605 -0.1589
26681SOL    HW182935   9.031   5.949   3.118  0.6217 -0.0923  0.7400
26681SOL    HW282936   9.139   6.053   3.096 -0.2585  0.5511 -0.6663
26682SOL     OW82937   5.432   9.084   2.420 -0.4601  0.4722 -0.4108
26682SOL    HW182938   5.380   9.145   2.473  0.3764  1.4375 -0.6717
26682SOL    HW282939   5.518   9.126   2.413  0.8094 -1.6729  1.0890
26683SOL     OW82940   3.404   7.190   4.087 -0.1042 -0.3683  0.2515
26683SOL    HW182941   3.456   7.250   4.140 -0.0453  0.2000 -0.4267
26683SOL    HW282942   3.391   7.236   4.004  2.0268 -2.2711 -1.2481
26684SOL     OW82943   9.207   8.268   4.040  0.0604  0.1957 -0.0474
26684SOL    HW182944   9.184   8.192   4.095  0.0244 -0.2654 -0.6859
26684SOL    HW282945   9.302   8.266   4.037  0.0904  0.5924  0.5035
26685SOL     OW82946   4.992   6.844   7.302 -0.5572  0.2364  0.0870
26685SOL    HW182947   5.000   6.925   7.251 -0.0301 -0.4957 -1.0410
26685SOL    HW282948   5.014   6.775   7.240 -2.9844 -0.9516  0.4387
26686SOL     OW82949   5.000   1.309   8.482  0.4170  0.7596 -0.1335
26686SOL    HW182950   4.922   1.277   8.528  0.3085  1.0873 -0.0903
26686SOL    HW282951   4.969   1.329   8.393  0.4540  0.8939 -0.1150
26687SOL     OW82952   0.326   7.632   6.394 -0.0780 -0.2442  0.4441
26687SOL    HW182953   0.318   7.568   6.465 -1.7012 -2.5269 -1.6316
26687SOL    HW282954   0.330   7.580   6.314  0.5580  2.2374 -1.2724
26688SOL     OW82955   6.167   7.044   3.836  0.5900 -0.1432 -0.2507
26688SOL    HW182956   6.168   6.978   3.905  0.5306  0.3816  0.2624
26688SOL    HW282957   6.256   7.079   3.834  0.5397 -0.0170 -0.3017
26689SOL     OW82958   4.608   8.727   4.874  0.1955  0.1445 -0.2233
26689SOL    HW182959   4.599   8.781   4.796  2.1737  0.5831 -0.2035
26689SOL    HW282960   4.575   8.782   4.945 -0.4251  0.2251 -0.5623
26690SOL     OW82961   3.211   1.005   7.642 -0.2538  0.0698 -0.3240
26690SOL    HW182962   3.215   0.917   7.604 -0.5769 -0.8746  1.7122
26690SOL    HW282963   3.300   1.039   7.632  0.2769 -1.0951  0.1896
26691SOL     OW82964   6.076   0.358   2.193  0.0103 -0.2917  0.4963
26691SOL    HW182965   6.077   0.276   2.242  0.7026  0.4862  1.8352
26691SOL    HW282966   5.987   0.391   2.203  0.7035  1.0254  3.3411
26692SOL     OW82967   2.353   8.574   5.938 -0.3202  0.5688 -0.0444
26692SOL    HW182968   2.290   8.528   5.883  1.5936 -0.2307 -1.7036
26692SOL    HW282969   2.363   8.660   5.896 -1.5379  1.3679  1.2234
26693SOL     OW82970   8.791   6.045   6.468 -0.2334 -0.0046 -0.3303
26693SOL    HW182971   8.833   5.995   6.398 -2.2449  0.3130 -1.8528
26693SOL    HW282972   8.744   6.115   6.423 -2.3828 -0.3386  1.2325
26694SOL     OW82973   6.862   0.571   0.626  0.2643  0.2750 -0.2365
26694SOL    HW182974   6.794   0.614   0.677  0.9285 -0.1124  1.0522
26694SOL    HW282975   6.816   0.503   0.576 -0.3076  0.0437  0.5808
26695SOL     OW82976   0.232   9.574   8.384  0.4365 -0.1718 -0.3751
26695SOL    HW182977   0.224   9.481   8.363  1.7372  0.0575 -2.0238
26695SOL    HW282978   0.234   9.618   8.299  2.6704  1.1050  0.2735
26696SOL     OW82979   0.302   3.754   7.084  0.0266 -0.1468  0.0832
26696SOL    HW182980   0.275   3.770   7.174 -0.6733  0.7865 -0.2716
26696SOL    HW282981   0.309   3.841   7.045 -1.7251 -0.5636 -1.3247
26697SOL     OW82982   7.105   3.612   4.339  0.5813 -0.0504 -0.0377
26697SOL    HW182983   7.194   3.640   4.320  0.2998  0.0791 -1.2005
26697SOL    HW282984   7.080   3.662   4.417  1.1834  0.6215 -0.2718
26698SOL     OW82985   0.260   5.214   5.477 -0.2903 -0.0889  0.4997
26698SOL    HW182986   0.169   5.187   5.462 -0.7574  0.2061  2.5150
26698SOL    HW282987   0.260   5.308   5.462 -0.5761  0.0781  1.4724
26699SOL     OW82988   3.727   9.119   3.931 -0.0973 -0.0269  0.1055
26699SOL    HW182989   3.727   9.133   4.026 -0.0017 -0.2504  0.1386
26699SOL    HW282990   3.814   9.146   3.903  0.1978 -0.8310  0.2128
26700SOL     OW82991   1.573   2.031   0.184  0.3815 -0.3309 -0.2945
26700SOL    HW182992   1.623   1.952   0.205 -0.3927 -0.8602 -0.4297
26700SOL    HW282993   1.507   2.002   0.121  1.5857  0.8900 -2.2452
26701SOL     OW82994   2.292   3.865   1.481 -0.1534  0.3427 -0.1386
26701SOL    HW182995   2.289   3.772   1.458  0.4623  0.1340  0.5904
26701SOL    HW282996   2.383   3.890   1.468  0.1146  0.3365  1.5188
26702SOL     OW82997   8.555   4.630   5.870  0.3277  0.2696 -0.4747
26702SOL    HW182998   8.642   4.604   5.897 -0.0940 -0.0325  0.6307
26702SOL    HW282999   8.538   4.712   5.917  0.3524  0.7939 -1.3600
26703SOL     OW83000   1.575   7.620   5.332 -0.2927 -0.2380 -0.5743
26703SOL    HW183001   1.488   7.629   5.293 -0.4930  0.3637 -0.0106
26703SOL    HW283002   1.577   7.687   5.400 -0.1462 -1.5722  0.7823
26704SOL     OW83003   2.874   5.171   4.288 -0.2503  0.0593  0.1190
26704SOL    HW183004   2.922   5.088   4.281 -0.9321 -0.3515  0.2561
26704SOL    HW283005   2.925   5.222   4.351 -0.1685 -0.4980  0.5152
26705SOL     OW83006   1.344   4.743   5.381 -0.4894  0.2311 -0.1222
26705SOL    HW183007   1.298   4.778   5.457  1.5182  0.0485  1.2284
26705SOL    HW283008   1.277   4.693   5.334 -1.9441  0.9376  1.0983
26706SOL     OW83009   3.297   0.757   3.217  0.0103  0.2728  0.1900
26706SOL    HW183010   3.383   0.715   3.226  0.9452  2.1484  0.5726
26706SOL    HW283011   3.238   0.686   3.193  2.0390 -0.7784 -2.1507
26707SOL     OW83012   4.582   6.447   1.383 -0.5397  0.1507 -0.5407
26707SOL    HW183013   4.605   6.449   1.476  0.7194  0.4506 -0.8340
26707SOL    HW283014   4.633   6.518   1.345  0.4103 -1.1342 -1.7632
26708SOL     OW83015   4.293   9.480   8.598 -0.2515 -0.1154  0.1717
26708SOL    HW183016   4.325   9.551   8.543 -1.9376  0.1011 -0.6142
26708SOL    HW283017   4.372   9.433   8.626  0.7823  1.0833 -0.6288
26709SOL     OW83018   8.392   2.118   1.422  0.3308  0.1724  0.0423
26709SOL    HW183019   8.394   2.196   1.366  1.9324  0.7204  0.8179
26709SOL    HW283020   8.339   2.143   1.497  0.0480  0.1810 -0.1569
26710SOL     OW83021   6.622   2.706   9.538  0.3633  0.5010 -0.0210
26710SOL    HW183022   6.597   2.724   9.629 -1.1903  0.1942 -0.3579
26710SOL    HW283023   6.706   2.751   9.527  0.6674  0.3894  1.6114
26711SOL     OW83024   4.653   9.523   7.622 -0.3144 -0.2430 -0.1187
26711SOL    HW183025   4.579   9.517   7.562 -0.0335  0.3323 -0.5270
26711SOL    HW283026   4.706   9.595   7.588 -0.0371 -0.0583  0.6907
26712SOL     OW83027   3.992   8.888   4.222  0.3666 -0.1568  0.2640
26712SOL    HW183028   4.015   8.807   4.268  1.9375 -0.6665 -1.2610
26712SOL    HW283029   3.899   8.880   4.205 -0.3220  0.1355  3.3771
26713SOL     OW83030   5.205   0.001   5.921 -0.1917  0.0987  0.5460
26713SOL    HW183031   5.287   0.020   5.874  0.8533 -1.7054  1.5182
26713SOL    HW283032   5.162   0.086   5.930  2.1361  1.2979  1.0443
26714SOL     OW83033   0.715   3.593   6.535  0.6011  0.1468  0.5121
26714SOL    HW183034   0.807   3.594   6.511  0.3543 -1.1520 -0.6304
26714SOL    HW283035   0.673   3.538   6.469 -0.8925  0.1793  1.3686
26715SOL     OW83036   3.113   3.906   4.733  0.1548 -0.4304 -0.9682
26715SOL    HW183037   3.150   3.885   4.648  0.7081 -0.3927 -0.7455
26715SOL    HW283038   3.152   3.842   4.793  1.0731  0.5562 -0.4613
26716SOL     OW83039   0.833   6.506   4.974  0.3382  0.8653 -0.2029
26716SOL    HW183040   0.798   6.552   4.898  2.3900  0.8398 -1.2487
26716SOL    HW283041   0.796   6.551   5.049 -2.3745  0.3986 -1.1604
26717SOL     OW83042   2.014   4.363   3.189 -0.4550  0.8378 -0.4974
26717SOL    HW183043   1.967   4.419   3.251  0.6036  0.4467  0.6807
26717SOL    HW283044   1.944   4.314   3.145 -1.3088  2.0662 -0.5826
26718SOL     OW83045   4.727   3.426   5.613  0.6870 -0.4083 -0.4619
26718SOL    HW183046   4.750   3.333   5.621  0.8628 -0.3168  0.1500
26718SOL    HW283047   4.743   3.446   5.521  1.6882 -0.7173 -0.3707
26719SOL     OW83048   1.898   4.276   2.766  0.1139  0.1217 -0.2280
26719SOL    HW183049   1.864   4.187   2.777 -0.3083  0.4479  1.3906
26719SOL    HW283050   1.982   4.265   2.721  0.7256 -1.2204  1.1612
26720SOL     OW83051   1.920   2.588   7.705 -0.8846 -0.2316  1.0038
26720SOL    HW183052   1.927   2.497   7.734  1.6506 -0.2089  0.6871
26720SOL    HW283053   1.910   2.582   7.610 -0.6905 -0.1885  0.9802
26721SOL     OW83054   6.003   5.293   4.638  0.1180  0.2178  0.0617
26721SOL    HW183055   6.003   5.208   4.595  0.7797  0.2360  0.0236
26721SOL    HW283056   5.910   5.316   4.645 -0.0160  0.0968 -1.1108
26722SOL     OW83057   2.061   4.213   4.204  0.1793  0.5413 -0.2441
26722SOL    HW183058   2.031   4.123   4.220  0.7946  0.2284 -0.8283
26722SOL    HW283059   2.156   4.205   4.197  0.2450  1.2596 -0.1859
26723SOL     OW83060   7.578   2.898   1.822 -0.3298 -0.3335  0.1701
26723SOL    HW183061   7.549   2.808   1.806  0.6586 -0.6884  0.3188
26723SOL    HW283062   7.657   2.907   1.770 -0.2193  0.3284  0.4516
26724SOL     OW83063   6.064   6.845   8.612  0.1586 -0.1366  0.6719
26724SOL    HW183064   6.024   6.929   8.636  0.8283  0.6932 -0.9652
26724SOL    HW283065   6.133   6.833   8.677 -0.3138  0.2913  1.2669
26725SOL     OW83066   2.410   0.565   3.268  0.0019  0.0737  0.6140
26725SOL    HW183067   2.339   0.629   3.275  0.9736  1.1265  0.9581
26725SOL    HW283068   2.460   0.592   3.191 -0.6213 -1.3675 -0.3513
26726SOL     OW83069   6.395   9.497   1.919  0.1511 -0.3188  0.2495
26726SOL    HW183070   6.431   9.585   1.921  0.5341 -0.4160 -1.2068
26726SOL    HW283071   6.423   9.458   2.002 -0.1589  0.9627  0.9857
26727SOL     OW83072   0.515   1.581   3.877  0.1452  0.0348  0.1939
26727SOL    HW183073   0.542   1.622   3.795  0.1332 -0.5853 -0.1173
26727SOL    HW283074   0.471   1.652   3.925  1.7031  0.8928  0.4383
26728SOL     OW83075   2.816   9.082   7.602 -0.0030  0.0212  0.0544
26728SOL    HW183076   2.831   9.071   7.696  0.3054  0.0756  0.0121
26728SOL    HW283077   2.724   9.107   7.595 -0.0875 -0.2112  0.3243
26729SOL     OW83078   3.840   9.173   5.123 -0.1261  0.0547 -0.0146
26729SOL    HW183079   3.837   9.257   5.168 -3.7038  0.3477 -0.4499
26729SOL    HW283080   3.839   9.108   5.194 -0.2274  0.4520  0.3497
26730SOL     OW83081   8.108   1.245   3.261 -0.3288  0.2208  0.1503
26730SOL    HW183082   8.132   1.261   3.169 -1.7505  0.5758 -0.1862
26730SOL    HW283083   8.069   1.158   3.260  0.7810 -0.3044  0.6713
26731SOL     OW83084   5.944   9.079   5.445 -0.1890  0.0534  0.1710
26731SOL    HW183085   5.940   9.133   5.365  0.6989 -1.7645 -1.1878
26731SOL    HW283086   5.853   9.055   5.462 -0.2952 -0.4374 -0.9797
26732SOL     OW83087   6.198   7.936   5.353  0.2150 -0.0852  0.0114
26732SOL    HW183088   6.162   7.974   5.274 -2.1271  1.4689  1.7105
26732SOL    HW283089   6.124   7.892   5.395  0.6625  1.4077  2.5963
26733SOL     OW83090   4.136   7.541   4.884 -0.0580 -0.5873  0.0155
26733SOL    HW183091   4.097   7.559   4.970 -0.8757  0.1775 -0.4981
26733SOL    HW283092   4.214   7.596   4.882 -1.2272  1.1407 -0.5701
26734SOL     OW83093   3.898   0.564   2.543 -0.7297  0.2523  0.0649
26734SOL    HW183094   3.807   0.586   2.562 -0.5938 -0.4011  1.6335
26734SOL    HW283095   3.915   0.603   2.457 -3.0895 -1.2739 -1.2258
26735SOL     OW83096   7.937   2.733   6.080 -0.4016  0.2658 -0.1839
26735SOL    HW183097   7.919   2.820   6.043  0.5572 -0.0147 -1.3995
26735SOL    HW283098   7.927   2.673   6.006  1.2977 -0.3666  0.0425
26736SOL     OW83099   3.330   7.389   0.417 -0.4729  0.4640  0.4898
26736SOL    HW183100   3.238   7.368   0.402 -0.0716 -1.0602  0.0340
26736SOL    HW283101   3.359   7.323   0.480  0.4022  0.7054  0.3427
26737SOL     OW83102   4.163   3.712   7.392 -0.1073  0.1639 -0.1685
26737SOL    HW183103   4.101   3.689   7.323 -1.2950 -0.6223  1.1228
26737SOL    HW283104   4.220   3.778   7.352  0.0128 -1.1453 -2.2648
26738SOL     OW83105   7.951   4.447   6.442 -1.0296  0.0423 -0.0367
26738SOL    HW183106   8.037   4.417   6.412 -1.3364 -0.0878 -0.8257
26738SOL    HW283107   7.963   4.466   6.535 -0.4480 -1.1210  0.1450
26739SOL     OW83108   9.131   1.109   7.527 -0.0449  0.0030  0.0097
26739SOL    HW183109   9.223   1.098   7.504  0.0161  1.2532 -0.4285
26739SOL    HW283110   9.088   1.135   7.445 -0.6861 -0.0541  0.3164
26740SOL     OW83111   4.490   2.741   9.484 -0.3138  0.4944 -0.0834
26740SOL    HW183112   4.558   2.751   9.417  1.5032  4.2935  1.9736
26740SOL    HW283113   4.538   2.710   9.561 -0.9547  2.3782  1.1549
26741SOL     OW83114   0.579   3.223   6.640  0.6711  0.1151  0.4978
26741SOL    HW183115   0.615   3.301   6.682 -1.9840  1.6607  0.1634
26741SOL    HW283116   0.553   3.252   6.553  0.9375 -1.5545 -0.1829
26742SOL     OW83117   7.398   4.918   3.433  0.0045 -0.0541  0.7138
26742SOL    HW183118   7.337   4.896   3.362  0.1356 -2.2379  1.2216
26742SOL    HW283119   7.385   5.012   3.446 -0.4699  0.3154 -1.7728
26743SOL     OW83120   6.394   8.861   7.996 -0.3064 -0.4653  0.5393
26743SOL    HW183121   6.372   8.856   7.903 -0.3292 -1.4198  0.5826
26743SOL    HW283122   6.474   8.810   8.004 -1.1137 -1.6716  1.2736
26744SOL     OW83123   2.930   3.157   2.364 -0.1271 -0.5588 -0.5783
26744SOL    HW183124   2.877   3.219   2.314  0.6413 -0.5340 -1.4005
26744SOL    HW283125   2.913   3.073   2.322 -0.1232 -0.6762 -0.3424
26745SOL     OW83126   8.653   4.401   1.425  0.4114  0.0274 -0.3298
26745SOL    HW183127   8.562   4.377   1.408  0.5648 -0.7602 -0.0550
26745SOL    HW283128   8.648   4.477   1.483 -0.0818  0.9631 -1.5581
26746SOL     OW83129   1.501   5.658   5.787 -0.0223 -0.1081  0.1969
26746SOL    HW183130   1.507   5.716   5.711  1.8405 -1.9526 -1.1888
26746SOL    HW283131   1.509   5.716   5.862 -0.3825  1.6253 -1.0425
26747SOL     OW83132   3.517   7.521   5.046  0.5657  0.6504 -0.4318
26747SOL    HW183133   3.500   7.427   5.047  1.4925  0.4714 -0.5606
26747SOL    HW283134   3.478   7.553   5.127 -1.2200  0.4383 -1.1670
26748SOL     OW83135   3.336   2.688   6.119 -0.7057  0.5956 -0.1178
26748SOL    HW183136   3.417   2.644   6.145 -1.6476 -0.8294  0.5243
26748SOL    HW283137   3.277   2.677   6.194 -2.0724  0.0899 -1.2242
26749SOL     OW83138   1.057   7.595   4.125  0.0441  0.1227  0.0582
26749SOL    HW183139   1.014   7.612   4.208 -1.6911 -0.3231 -0.6970
26749SOL    HW283140   0.986   7.602   4.060  1.4996  1.3620 -1.4959
26750SOL     OW83141   4.834   7.760   5.221 -0.2140 -0.9984 -0.2825
26750SOL    HW183142   4.822   7.786   5.130  0.1973  0.2229  0.0025
26750SOL    HW283143   4.923   7.726   5.225  0.7573  1.4115  0.1813
26751SOL     OW83144   3.391   1.870   3.949 -0.5795 -0.1674 -0.1563
26751SOL    HW183145   3.340   1.935   3.997  1.2195  0.8797  0.4644
26751SOL    HW283146   3.334   1.842   3.878 -2.2792  0.3209  0.9527
26752SOL     OW83147   0.151   0.592   0.916  0.4555  0.8860  0.1002
26752SOL    HW183148   0.222   0.598   0.980  0.7191 -1.0826  0.0404
26752SOL    HW283149   0.186   0.536   0.847 -1.5189 -1.0849  0.6190
26753SOL     OW83150   9.471   2.445   4.419  0.1087 -0.1462 -0.0243
26753SOL    HW183151   9.395   2.502   4.429 -0.1186 -0.0759 -1.7945
26753SOL    HW283152   9.520   2.483   4.346  0.7642 -1.3563 -0.2400
26754SOL     OW83153   0.679   0.256   5.421  0.9720 -0.1211  1.0352
26754SOL    HW183154   0.689   0.190   5.490  0.5857 -0.1987  1.0206
26754SOL    HW283155   0.635   0.329   5.464 -0.0928 -0.5285  0.6577
26755SOL     OW83156   7.882   6.725   5.234  0.0656  0.0765 -0.2789
26755SOL    HW183157   7.852   6.771   5.156 -0.0354  0.9773  0.2752
26755SOL    HW283158   7.973   6.755   5.245  0.0606 -0.0042 -0.0227
26756SOL     OW83159   3.981   0.093   0.413 -0.1871 -0.3283 -0.0735
26756SOL    HW183160   3.895   0.128   0.389  0.1076  0.2047 -0.3707
26756SOL    HW283161   4.015   0.056   0.332  0.5095  0.8453 -0.3451
26757SOL     OW83162   2.210   3.339   6.579 -0.3561  0.2974 -0.0997
26757SOL    HW183163   2.305   3.336   6.590 -0.1420  2.5404 -0.8078
26757SOL    HW283164   2.188   3.255   6.538  1.3279 -0.2415  0.0346
26758SOL     OW83165   6.255   6.076   1.474 -0.1325 -0.0477 -0.1685
26758SOL    HW183166   6.254   6.130   1.553  0.7767  1.2598 -0.9908
26758SOL    HW283167   6.266   5.986   1.505 -0.9582  0.3121  1.2204
26759SOL     OW83168   9.064   4.094   7.363  0.2642  0.0392 -0.0795
26759SOL    HW183169   9.077   4.020   7.423  2.8022  3.0159  3.5092
26759SOL    HW283170   9.149   4.105   7.321 -0.4939  0.1451 -1.6235
26760SOL     OW83171   0.000   3.898   3.952  0.0303 -0.3873 -0.0009
26760SOL    HW183172  -0.086   3.930   3.924 -0.2396 -1.4292 -0.4069
26760SOL    HW283173  -0.011   3.879   4.045 -0.6342 -1.9109 -0.3631
26761SOL     OW83174   7.601   7.981   7.298 -0.0713 -0.4551  0.6153
26761SOL    HW183175   7.540   7.987   7.225 -0.3393  1.0009  0.9235
26761SOL    HW283176   7.682   7.948   7.259 -0.1921  0.3541 -0.3657
26762SOL     OW83177   7.595   4.935   7.713 -0.2500 -0.1912  0.2977
26762SOL    HW183178   7.637   4.910   7.630  0.7131  1.4336  0.2435
26762SOL    HW283179   7.546   5.014   7.692  0.2474  0.4095  1.3412
26763SOL     OW83180   7.655   6.521   1.676 -0.2962  0.1805 -0.9559
26763SOL    HW183181   7.603   6.455   1.724  1.6237 -1.2901 -0.7875
26763SOL    HW283182   7.740   6.520   1.720  0.5495  0.9963 -2.5306
26764SOL     OW83183   3.439   3.230   0.264 -0.0732 -0.6050 -0.1784
26764SOL    HW183184   3.345   3.220   0.249 -0.0533  0.9941 -1.7526
26764SOL    HW283185   3.478   3.160   0.211 -0.3675 -1.9533  1.3196
26765SOL     OW83186   3.241   3.362   5.116  0.0875  0.6714  0.2692
26765SOL    HW183187   3.175   3.316   5.169 -0.1624 -0.4737 -0.9762
26765SOL    HW283188   3.231   3.454   5.140 -0.8793  0.3331  1.2680
26766SOL     OW83189   3.502   0.186   3.349 -0.0447 -0.3392 -0.1542
26766SOL    HW183190   3.513   0.100   3.388  1.2705  0.2709  0.8933
26766SOL    HW283191   3.442   0.231   3.408  0.3977 -0.0660  0.0901
26767SOL     OW83192   8.760   9.207   3.100 -0.0700 -0.0564  0.4164
26767SOL    HW183193   8.768   9.276   3.035 -0.6404  0.9196  1.3326
26767SOL    HW283194   8.666   9.201   3.117 -0.2432 -2.3747 -0.9790
26768SOL     OW83195   1.051   8.423   4.761  0.6148 -0.1264 -0.6038
26768SOL    HW183196   1.129   8.478   4.768 -1.1269  2.9938 -3.0527
26768SOL    HW283197   1.068   8.367   4.685  0.5751  0.4211 -1.0230
26769SOL     OW83198   3.962   9.307   3.575 -0.0324  0.1639 -0.3710
26769SOL    HW183199   3.963   9.394   3.614 -0.2051 -0.0590  0.1436
26769SOL    HW283200   3.936   9.249   3.647 -1.6757 -0.0922 -1.1373
26770SOL     OW83201   4.311   7.726   5.848 -0.2256  0.1811 -0.2816
26770SOL    HW183202   4.282   7.812   5.816  0.5131  0.6637  0.3097
26770SOL    HW283203   4.399   7.742   5.881  1.4158 -1.5183 -3.3580
26771SOL     OW83204   5.830   3.949   5.954 -0.2198  0.2653 -0.2269
26771SOL    HW183205   5.875   3.934   5.871 -0.6800  0.3506 -0.5005
26771SOL    HW283206   5.833   3.864   5.999  1.5528  0.6449  0.4579
26772SOL     OW83207   1.970   2.566   5.080  0.1473 -0.3393 -0.0491
26772SOL    HW183208   1.878   2.564   5.052  0.3191 -0.2900 -0.6388
26772SOL    HW283209   2.008   2.639   5.030  0.8990 -1.4116 -1.0932
26773SOL     OW83210   0.548   8.983   2.911 -0.0912 -0.2270  0.2128
26773SOL    HW183211   0.567   9.077   2.915  3.3930 -0.8318  0.6700
26773SOL    HW283212   0.532   8.958   3.001  1.5163 -0.4358  0.4782
26774SOL     OW83213   8.035   2.668   1.350 -0.1907  0.4874  0.5412
26774SOL    HW183214   8.071   2.700   1.433  1.6360 -1.0971  0.4245
26774SOL    HW283215   8.109   2.673   1.289 -0.8414 -0.6317 -0.3659
26775SOL     OW83216   5.088   9.323   9.036  0.5489  0.1884  0.3276
26775SOL    HW183217   5.101   9.343   9.129 -1.3842  0.3210  0.6250
26775SOL    HW283218   5.176   9.318   9.000  1.3782 -0.4408  2.2810
26776SOL     OW83219   3.970   2.278   7.408  0.1126 -0.2655 -0.1173
26776SOL    HW183220   3.961   2.201   7.464 -0.4795  0.0948  0.2995
26776SOL    HW283221   3.984   2.350   7.469 -1.4035  0.2665 -0.3513
26777SOL     OW83222   1.967   3.891   3.250  0.0453 -0.0820 -0.4357
26777SOL    HW183223   1.922   3.817   3.209  1.9074 -1.5202 -0.0056
26777SOL    HW283224   2.000   3.943   3.177  1.8223 -1.6767 -0.8422
26778SOL     OW83225   0.772   3.814   3.967 -0.1888 -0.0105 -0.0402
26778SOL    HW183226   0.802   3.789   4.054 -1.1171  1.0173  0.5970
26778SOL    HW283227   0.788   3.909   3.963 -1.8332  0.2841 -0.2738
26779SOL     OW83228   4.477   8.680   4.217 -0.4637 -0.0168  0.0395
26779SOL    HW183229   4.455   8.755   4.163 -2.0572 -1.1975 -1.0477
26779SOL    HW283230   4.399   8.665   4.271  0.9563  0.9208  2.5076
26780SOL     OW83231   5.538   6.166   3.402 -0.0270 -0.1431  0.2707
26780SOL    HW183232   5.626   6.182   3.368 -0.2687  0.1472 -0.2145
26780SOL    HW283233   5.548   6.174   3.497  0.5134 -0.3256  0.2339
26781SOL     OW83234   2.322   4.392   2.793  0.9869  0.1541 -0.3069
26781SOL    HW183235   2.228   4.395   2.772  0.9612  1.2449 -0.0965
26781SOL    HW283236   2.353   4.311   2.753  0.2907  0.5865 -1.7862
26782SOL     OW83237   1.639   1.747   1.739  0.6068 -0.2796 -0.4363
26782SOL    HW183238   1.693   1.668   1.730  2.3600  0.9405 -1.1770
26782SOL    HW283239   1.629   1.780   1.649  0.6261  0.7931 -0.0587
26783SOL     OW83240   4.648   8.138   9.252 -0.4406 -0.1802  0.0489
26783SOL    HW183241   4.585   8.154   9.183 -1.0832  0.7086  0.8148
26783SOL    HW283242   4.692   8.222   9.265  1.1602 -0.8582 -0.6948
26784SOL     OW83243   7.212   8.752   7.597 -0.1222  0.6480 -0.3957
26784SOL    HW183244   7.185   8.836   7.560 -0.6881  0.2778 -0.8533
26784SOL    HW283245   7.152   8.739   7.671  0.6500  1.1278  0.3354
26785SOL     OW83246   0.461   2.962   8.813  0.0820 -0.5308  0.6740
26785SOL    HW183247   0.523   2.916   8.756 -1.0357  0.6132 -1.5825
26785SOL    HW283248   0.422   2.892   8.866  0.3072 -1.8550 -0.8055
26786SOL     OW83249   7.635   7.276   4.075 -0.3329 -0.2447 -0.3059
26786SOL    HW183250   7.630   7.311   4.164 -1.0179 -1.8392  0.3274
26786SOL    HW283251   7.637   7.181   4.087 -0.3912 -0.4843 -1.9972
26787SOL     OW83252   0.591   0.549   4.666 -0.1670  0.0876  0.0831
26787SOL    HW183253   0.626   0.621   4.613 -0.2013 -0.7862 -1.1838
26787SOL    HW283254   0.658   0.481   4.661 -0.3461 -0.1553  0.8759
26788SOL     OW83255   8.253   0.733   7.494  0.2172  0.2004  0.3502
26788SOL    HW183256   8.270   0.755   7.402  0.2548  2.3973  0.8155
26788SOL    HW283257   8.332   0.763   7.540 -0.0499 -0.3353  1.1758
26789SOL     OW83258   3.776   0.476   0.407 -0.2612 -0.3298  0.3987
26789SOL    HW183259   3.685   0.479   0.438 -0.6275  0.8671 -0.7029
26789SOL    HW283260   3.806   0.567   0.411 -0.0730 -0.2254 -1.9012
26790SOL     OW83261   5.114   2.480   2.574 -0.1722 -0.1737  0.2621
26790SOL    HW183262   5.117   2.554   2.513  0.6131 -0.8185 -0.5052
26790SOL    HW283263   5.062   2.513   2.648  1.0882  1.5253  0.4657
26791SOL     OW83264   0.800   7.784   8.499 -0.0226 -0.3813  0.1716
26791SOL    HW183265   0.736   7.799   8.568 -0.6258 -0.0581 -0.4494
26791SOL    HW283266   0.763   7.826   8.421  0.8990 -0.2543 -0.2223
26792SOL     OW83267   4.383   1.978   5.878 -0.2435  0.3897  0.7802
26792SOL    HW183268   4.389   1.913   5.948 -0.0298 -0.3680  0.0607
26792SOL    HW283269   4.311   1.948   5.822  2.4553 -1.5975 -1.9137
26793SOL     OW83270   2.976   0.952   5.077  0.0839  0.1530 -0.2358
26793SOL    HW183271   2.969   0.994   5.162 -0.8190  0.7457 -0.5840
26793SOL    HW283272   3.043   0.884   5.088  1.9205  1.9497  0.2240
26794SOL     OW83273   8.707   3.757   4.701 -0.0511  0.5227  0.2503
26794SOL    HW183274   8.785   3.789   4.746  0.6916 -1.0120  0.1080
26794SOL    HW283275   8.651   3.722   4.770 -0.9988  2.2858  0.4408
26795SOL     OW83276   9.523   1.660   4.240 -0.2470  0.2698  0.5256
26795SOL    HW183277   9.511   1.570   4.209  0.2295 -0.1494  1.5076
26795SOL    HW283278   9.616   1.666   4.260 -0.6896  0.1280  2.9555
26796SOL     OW83279   5.837   3.271   5.291  0.0031 -0.3909  0.0934
26796SOL    HW183280   5.912   3.234   5.337  0.4429 -0.3243 -0.5543
26796SOL    HW283281   5.775   3.198   5.282  0.9583 -1.0615 -1.3870
26797SOL     OW83282   3.538   3.877   1.351  0.3120  0.1692  0.1066
26797SOL    HW183283   3.449   3.880   1.387  0.1161  0.0558 -0.3596
26797SOL    HW283284   3.525   3.886   1.257  0.8641  1.1533  0.1149
26798SOL     OW83285   6.567   7.549   5.268 -0.2922 -0.5659 -0.1826
26798SOL    HW183286   6.522   7.504   5.340  1.4143 -0.1355  1.2279
26798SOL    HW283287   6.511   7.624   5.249 -0.5088 -0.3584  1.1288
26799SOL     OW83288   0.763   1.570   7.015  0.1284  0.6795 -0.1165
26799SOL    HW183289   0.838   1.553   7.072  0.0940  0.8507 -0.0211
26799SOL    HW283290   0.715   1.640   7.059 -0.3896  0.1832  0.1044
26800SOL     OW83291   2.281   6.801   3.826 -0.0812 -0.1319 -0.2439
26800SOL    HW183292   2.247   6.712   3.820 -2.5403  0.7777 -0.8129
26800SOL    HW283293   2.207   6.857   3.802  1.8819  2.0124 -1.7565
26801SOL     OW83294   7.303   5.836   0.994 -0.7868 -0.2642 -0.2751
26801SOL    HW183295   7.270   5.895   0.926 -0.3423  0.8356  0.4555
26801SOL    HW283296   7.312   5.890   1.072  0.4830 -1.0854  0.1780
26802SOL     OW83297   0.323   0.077   0.974 -0.2013  0.2713  0.7742
26802SOL    HW183298   0.356   0.040   0.892 -1.5733 -0.7039  0.6307
26802SOL    HW283299   0.388   0.051   1.040 -0.1275 -0.7073  0.3377
26803SOL     OW83300   8.430   1.552   6.723  0.2955  0.1872 -0.3595
26803SOL    HW183301   8.367   1.560   6.794  1.9202  0.7704  1.0725
26803SOL    HW283302   8.416   1.464   6.688 -0.2585 -0.2699  0.9428
26804SOL     OW83303   4.274   5.528   4.510 -0.4899 -0.3240  0.0536
26804SOL    HW183304   4.272   5.616   4.548 -2.5077 -0.4587  0.3946
26804SOL    HW283305   4.349   5.529   4.451  1.3941  0.6267  2.2980
26805SOL     OW83306   8.674   1.525   4.662  0.4898 -0.2133 -0.1184
26805SOL    HW183307   8.745   1.467   4.636 -1.0258 -2.6096  0.7723
26805SOL    HW283308   8.612   1.522   4.589  0.4329  0.3838 -0.1021
26806SOL     OW83309   6.749   1.431   6.994  0.6405  0.2724  0.1639
26806SOL    HW183310   6.786   1.408   6.908  0.3066  1.5163 -0.3292
26806SOL    HW283311   6.825   1.443   7.050  0.9187  0.6765 -0.2867
26807SOL     OW83312   5.097   0.639   3.828  0.2590  0.3297 -0.1799
26807SOL    HW183313   5.098   0.570   3.762  0.7301  0.4727 -0.3269
26807SOL    HW283314   5.090   0.720   3.779 -0.0883  0.3990 -0.0171
26808SOL     OW83315   6.950   2.321   1.522 -0.2500  0.1549  0.0794
26808SOL    HW183316   7.033   2.299   1.480  0.2238  2.3262 -0.2156
26808SOL    HW283317   6.945   2.262   1.598  0.2455 -1.8315 -1.3640
26809SOL     OW83318   1.468   7.762   5.840 -0.2226 -0.4195  0.0457
26809SOL    HW183319   1.463   7.779   5.746 -1.4028  1.3178  0.3779
26809SOL    HW283320   1.556   7.790   5.865 -0.7343  1.5029 -0.1538
26810SOL     OW83321   4.568   8.801   3.561  0.4308  0.2238 -0.1597
26810SOL    HW183322   4.584   8.727   3.502 -1.6864 -0.5802  0.1794
26810SOL    HW283323   4.578   8.765   3.648 -0.1370  0.4323  0.0018
26811SOL     OW83324   7.287   7.902   6.087  0.1483  0.0914 -0.2416
26811SOL    HW183325   7.259   7.810   6.095  1.9330 -0.4711 -0.0317
26811SOL    HW283326   7.372   7.905   6.131  1.3630  1.2555 -2.4863
26812SOL     OW83327   2.016   4.063   6.423 -0.0305  0.7970  0.3791
26812SOL    HW183328   2.039   4.009   6.499  1.3187 -1.1652 -1.3054
26812SOL    HW283329   2.100   4.094   6.388 -0.3441 -0.4509 -1.7006
26813SOL     OW83330   7.527   3.269   8.119 -0.1962  0.0574  0.8059
26813SOL    HW183331   7.568   3.339   8.067 -0.3048  0.2056  0.9214
26813SOL    HW283332   7.577   3.267   8.201 -0.6769  0.5069  1.1099
26814SOL     OW83333   6.748   4.099   6.878  0.0451 -0.0537 -0.2701
26814SOL    HW183334   6.693   4.177   6.877 -1.5878 -1.1574 -0.8332
26814SOL    HW283335   6.754   4.072   6.786  0.4063 -0.7001 -0.0655
26815SOL     OW83336   7.335   1.113   6.997  0.1573 -0.2096 -0.2155
26815SOL    HW183337   7.289   1.078   6.921 -0.5018 -0.6251  0.3620
26815SOL    HW283338   7.266   1.147   7.053  0.8069  2.6943 -1.0446
26816SOL     OW83339   1.282   8.866   9.239  0.6703 -0.0713 -0.1546
26816SOL    HW183340   1.231   8.800   9.192  0.4225  0.7106 -1.0238
26816SOL    HW283341   1.259   8.854   9.331 -1.3859  0.4912 -0.5562
26817SOL     OW83342   4.857   3.890   8.853 -0.1565 -0.0986  0.0032
26817SOL    HW183343   4.860   3.811   8.906 -0.8106 -0.3133 -0.2716
26817SOL    HW283344   4.768   3.922   8.863  0.3800  1.2128  0.9805
26818SOL     OW83345   6.365   2.126   5.873 -0.2807  0.1026  0.3474
26818SOL    HW183346   6.281   2.126   5.918  0.1642 -1.5978  1.2861
26818SOL    HW283347   6.423   2.176   5.931 -0.4404  0.5441  0.1263
26819SOL     OW83348   0.164   3.277   4.170  0.5595  0.0881 -0.3780
26819SOL    HW183349   0.098   3.230   4.221  0.6603  1.0540  0.6846
26819SOL    HW283350   0.224   3.209   4.139  0.4529 -0.5398  0.7464
26820SOL     OW83351   4.795   5.807   4.178  0.1043 -0.0552 -0.3534
26820SOL    HW183352   4.801   5.889   4.129 -1.1923  0.0264 -0.4062
26820SOL    HW283353   4.711   5.811   4.222  0.5849 -0.8048  0.6832
26821SOL     OW83354   5.129   0.933   5.179  0.3224  0.0430  0.4527
26821SOL    HW183355   5.163   0.867   5.118 -0.3795  1.7508 -1.9431
26821SOL    HW283356   5.050   0.893   5.216 -0.5012 -0.2748 -1.4988
26822SOL     OW83357   6.289   4.674   0.664 -0.3957 -0.1332 -0.2784
26822SOL    HW183358   6.380   4.679   0.634 -0.5242 -0.0894 -0.6710
26822SOL    HW283359   6.268   4.581   0.660 -0.3688 -0.1441 -0.1813
26823SOL     OW83360   4.364   4.665   4.207 -0.0796  0.5892  0.0792
26823SOL    HW183361   4.449   4.701   4.231  1.0136 -1.9125  0.3351
26823SOL    HW283362   4.378   4.627   4.120 -0.8020 -0.1447  0.2656
26824SOL     OW83363   1.828   9.054   8.361  0.5423  0.3862 -0.1656
26824SOL    HW183364   1.758   9.084   8.302  0.3516 -0.6825 -0.5084
26824SOL    HW283365   1.793   8.973   8.399  0.1398  1.6865  2.4040
26825SOL     OW83366   8.201   3.036   3.476  0.5051 -0.1082  0.6970
26825SOL    HW183367   8.159   3.100   3.534  0.0365  0.2699 -0.0469
26825SOL    HW283368   8.151   2.956   3.490  0.8771 -0.2331  1.3758
26826SOL     OW83369   1.792   4.772   0.667  0.4776 -0.0582  0.3063
26826SOL    HW183370   1.777   4.692   0.616  0.7737  0.1166 -0.0449
26826SOL    HW283371   1.844   4.742   0.742  0.6010 -0.1900  0.1685
26827SOL     OW83372   0.727   0.719   3.169  0.4455  0.3345 -0.2284
26827SOL    HW183373   0.746   0.690   3.258 -0.2684 -1.6932 -0.6682
26827SOL    HW283374   0.682   0.802   3.179  0.8065  0.3688  1.2696
26828SOL     OW83375   4.278   6.121   8.008  0.1670 -0.1481  0.2002
26828SOL    HW183376   4.350   6.060   7.996 -0.0028 -0.5053  0.9250
26828SOL    HW283377   4.205   6.067   8.039 -0.2297  0.2985  0.0762
26829SOL     OW83378   2.149   0.183   3.778  0.6848 -0.5116  0.0159
26829SOL    HW183379   2.170   0.273   3.754  3.3860 -0.7234  1.2643
26829SOL    HW283380   2.139   0.185   3.873 -2.9575 -0.9497 -0.1975
26830SOL     OW83381   8.253   5.387   0.126  0.2441 -0.7955 -0.1655
26830SOL    HW183382   8.258   5.344   0.041  2.9053  2.1138 -1.7015
26830SOL    HW283383   8.319   5.343   0.180 -0.3566 -1.6261 -0.0876
26831SOL     OW83384   4.420   7.407   9.074  0.1626 -0.5265  0.0238
26831SOL    HW183385   4.456   7.483   9.120  0.0770 -0.7748  0.4981
26831SOL    HW283386   4.461   7.331   9.116  1.7572 -0.7140 -1.7015
26832SOL     OW83387   1.417   5.105   4.164 -0.5786  0.1891  0.1496
26832SOL    HW183388   1.342   5.045   4.167  0.7944 -1.6314 -0.3384
26832SOL    HW283389   1.385   5.185   4.205 -3.2034 -0.0265 -1.2609
26833SOL     OW83390   6.177   1.886   7.303  0.0951 -1.0138  0.1557
26833SOL    HW183391   6.165   1.808   7.357  0.2023 -1.4939 -0.5029
26833SOL    HW283392   6.099   1.940   7.322  0.3812 -0.9292  1.1658
26834SOL     OW83393   1.908   5.120   5.119  0.0828  0.4224 -0.2068
26834SOL    HW183394   1.995   5.113   5.157  0.1185  0.0780 -0.3493
26834SOL    HW283395   1.921   5.105   5.025 -0.1562  0.1844 -0.2015
26835SOL     OW83396   1.911   8.671   3.150  0.2128  0.4353  0.3462
26835SOL    HW183397   1.908   8.723   3.070  1.0335  0.7385  0.4954
26835SOL    HW283398   1.821   8.667   3.181 -0.2938 -0.5911 -1.1639
26836SOL     OW83399   6.105   2.230   6.039  0.5378 -0.3242  0.2199
26836SOL    HW183400   6.087   2.137   6.055  1.3228 -0.4487  0.3815
26836SOL    HW283401   6.033   2.276   6.084 -0.0606 -0.8613 -0.1793
26837SOL     OW83402   9.358   2.812   3.209  0.0771 -0.3531  0.0187
26837SOL    HW183403   9.449   2.781   3.207  0.0178 -0.7057  1.6219
26837SOL    HW283404   9.364   2.904   3.183  0.6474 -0.8361 -1.6749
26838SOL     OW83405   5.397   1.447   2.610  0.4180  0.7621 -0.2645
26838SOL    HW183406   5.412   1.396   2.531  0.0065 -0.1074  0.2140
26838SOL    HW283407   5.442   1.530   2.593  1.1625  0.2207 -1.0147
26839SOL     OW83408   7.938   9.514   4.546 -0.4570  0.3742 -0.4658
26839SOL    HW183409   7.997   9.587   4.564  0.4823 -0.1700 -1.2406
26839SOL    HW283410   7.868   9.552   4.492 -2.0271  1.4931  2.1680
26840SOL     OW83411   5.886   5.670   3.152 -0.1494 -0.5625  0.1337
26840SOL    HW183412   5.946   5.679   3.078  0.7254 -3.1880  0.3951
26840SOL    HW283413   5.800   5.659   3.111  0.1196 -0.6172 -0.4374
26841SOL     OW83414   0.463   2.813   1.048 -0.0495 -0.2273 -0.1159
26841SOL    HW183415   0.559   2.812   1.053 -0.0840 -1.3374  0.6414
26841SOL    HW283416   0.436   2.880   1.110  0.1693 -1.8227  1.7853
26842SOL     OW83417   0.810   1.519   4.608 -0.1661  1.3161  0.0404
26842SOL    HW183418   0.758   1.480   4.537  1.4024  0.2514 -0.5712
26842SOL    HW283419   0.835   1.605   4.575  2.0899  0.1387 -1.5586
26843SOL     OW83420   7.417   5.523   4.625  0.0021 -0.2118  0.4220
26843SOL    HW183421   7.360   5.511   4.549 -0.6649  0.8791  0.7366
26843SOL    HW283422   7.506   5.519   4.588 -0.2687 -1.2341 -0.1703
26844SOL     OW83423   6.516   2.656   9.062  0.2017  0.0847 -0.0274
26844SOL    HW183424   6.545   2.633   8.973 -1.4559 -0.5771 -0.4281
26844SOL    HW283425   6.580   2.720   9.092  1.0948 -0.0703 -1.5002
26845SOL     OW83426   4.552   8.446   3.591  0.4276  0.0356 -0.0297
26845SOL    HW183427   4.639   8.469   3.624  0.0337 -0.4887  1.4586
26845SOL    HW283428   4.504   8.415   3.668 -1.2924  0.9145 -0.6845
26846SOL     OW83429   1.108   9.552   0.328 -0.0639  0.4119  0.4412
26846SOL    HW183430   1.148   9.607   0.396  2.0454  0.7941 -1.0342
26846SOL    HW283431   1.087   9.613   0.257 -2.7248  0.1056  0.8536
26847SOL     OW83432   3.835   2.855   5.854  0.5646 -0.3146  0.7435
26847SOL    HW183433   3.809   2.915   5.785  0.6765  2.0721  2.6553
26847SOL    HW283434   3.928   2.839   5.838  0.3123 -0.8237 -0.3378
26848SOL     OW83435   0.471   3.695   5.724 -0.3298  0.6990 -0.3473
26848SOL    HW183436   0.560   3.720   5.700 -0.5453  1.0545 -0.7628
26848SOL    HW283437   0.417   3.721   5.650 -1.0573  2.1718  0.6701
26849SOL     OW83438   3.198   3.728   3.184  0.0122  0.3130 -0.0814
26849SOL    HW183439   3.228   3.745   3.273 -0.8876  0.0335  0.2922
26849SOL    HW283440   3.103   3.718   3.193  0.1862 -2.4411 -0.6279
26850SOL     OW83441   5.495   6.881   0.416  0.4764 -0.2906  0.3827
26850SOL    HW183442   5.583   6.852   0.393  0.6591  0.2402  0.3833
26850SOL    HW283443   5.508   6.968   0.456  0.0388 -0.5824  1.1950
26851SOL     OW83444   1.645   9.224   5.278 -0.0174 -0.4536 -0.5546
26851SOL    HW183445   1.583   9.291   5.247 -0.0234  0.5536  1.4509
26851SOL    HW283446   1.717   9.227   5.216 -0.0153  1.4839 -0.5167
26852SOL     OW83447   5.858   2.088   5.761 -0.3353 -0.0208  0.5167
26852SOL    HW183448   5.793   2.158   5.774 -0.1849  0.3166 -0.4613
26852SOL    HW283449   5.931   2.131   5.717  0.2018 -0.5850  0.8371
26853SOL     OW83450   1.713   0.221   7.950  0.1612  0.4755 -0.3668
26853SOL    HW183451   1.662   0.276   8.010 -0.3782 -0.1541 -0.2269
26853SOL    HW283452   1.648   0.186   7.889  0.1342 -1.6140  0.7799
26854SOL     OW83453   5.874   5.864   4.637 -0.6540  0.0396  0.1325
26854SOL    HW183454   5.945   5.803   4.615  0.8418  1.9646 -0.6528
26854SOL    HW283455   5.826   5.875   4.555 -0.2943  0.6635 -0.0035
26855SOL     OW83456   0.336   4.654   3.568  0.8005  0.5820  0.3370
26855SOL    HW183457   0.338   4.579   3.627  0.2955 -2.6231 -3.3059
26855SOL    HW283458   0.424   4.656   3.529  0.8986  2.1700  0.5338
26856SOL     OW83459   8.923   4.338   5.232  0.3568  0.2098 -0.2061
26856SOL    HW183460   8.875   4.262   5.264  1.2873  0.7555  2.7864
26856SOL    HW283461   9.010   4.304   5.209  0.4140  0.1835  0.0463
26857SOL     OW83462   2.890   2.191   1.325  0.4486 -0.7684 -0.1637
26857SOL    HW183463   2.849   2.187   1.238 -0.5562 -1.4396  0.3353
26857SOL    HW283464   2.932   2.106   1.336 -0.4280 -1.1204  0.4920
26858SOL     OW83465   0.141   2.185   3.411 -0.6707  0.6457 -0.2488
26858SOL    HW183466   0.049   2.184   3.386 -0.6362 -1.8760 -0.5538
26858SOL    HW283467   0.186   2.229   3.339 -1.3188 -0.8787 -1.6505
26859SOL     OW83468   8.910   6.706   0.432 -0.0845  0.5153  0.0678
26859SOL    HW183469   8.835   6.683   0.377 -1.3277 -0.3079  2.0245
26859SOL    HW283470   8.976   6.640   0.409 -0.0700  0.9959 -1.3767
26860SOL     OW83471   8.443   3.105   3.553  0.1846  0.3949  0.0416
26860SOL    HW183472   8.489   3.022   3.559 -0.8495 -0.1183  1.2956
26860SOL    HW283473   8.352   3.081   3.537 -0.4136  1.1909  1.9995
26861SOL     OW83474   1.474   9.265   1.559  0.1955 -1.0660  0.1459
26861SOL    HW183475   1.445   9.183   1.598  0.9872 -2.1972 -1.5492
26861SOL    HW283476   1.443   9.262   1.468  0.3607  0.4538  0.0030
26862SOL     OW83477   8.933   1.257   2.397  0.1810 -0.2857 -0.0282
26862SOL    HW183478   8.947   1.213   2.313 -2.7847  0.3548 -0.9968
26862SOL    HW283479   8.888   1.339   2.373 -0.3256  0.1264  2.1474
26863SOL     OW83480   5.831   2.151   1.515 -0.2321  0.2038 -0.5518
26863SOL    HW183481   5.927   2.146   1.513 -0.2112  0.5934 -0.4677
26863SOL    HW283482   5.811   2.207   1.589 -0.4446  2.0483 -1.9208
26864SOL     OW83483   5.973   5.913   9.200  0.6781  0.3204  0.3008
26864SOL    HW183484   5.970   5.977   9.129 -0.0784 -0.9847 -0.8939
26864SOL    HW283485   5.913   5.844   9.173 -0.1802  0.1073  2.5610
26865SOL     OW83486   2.718   8.887   1.539  0.2333 -0.3880  0.3709
26865SOL    HW183487   2.751   8.822   1.478 -1.1685  0.9665 -1.9604
26865SOL    HW283488   2.797   8.934   1.568  0.9149 -0.9871 -0.4556
26866SOL     OW83489   0.700   2.701   1.580 -0.5849 -0.0253 -0.0502
26866SOL    HW183490   0.766   2.634   1.596 -0.6770 -0.6632 -2.1247
26866SOL    HW283491   0.750   2.780   1.562 -0.4502 -0.0275  0.2928
26867SOL     OW83492   5.389   4.063   5.704  0.4119  0.8140 -0.0196
26867SOL    HW183493   5.479   4.032   5.692 -0.2290 -0.6968 -1.4062
26867SOL    HW283494   5.362   4.092   5.617 -0.6079  0.7281  0.2565
26868SOL     OW83495   4.522   6.395   0.899  0.4109 -0.2115 -0.2002
26868SOL    HW183496   4.525   6.391   0.994  0.1812 -1.7781 -0.2362
26868SOL    HW283497   4.489   6.483   0.880 -0.6328 -0.2748  1.1876
26869SOL     OW83498   0.719   8.040   5.794 -0.0886 -0.0084 -0.0618
26869SOL    HW183499   0.785   8.083   5.849 -0.4045  0.3625  0.0280
26869SOL    HW283500   0.647   8.103   5.788  0.0674  0.0774 -1.1681
26870SOL     OW83501   0.542   3.914   0.205 -0.7329 -0.0397 -0.1483
26870SOL    HW183502   0.579   3.860   0.274 -3.7474  0.1266  1.8054
26870SOL    HW283503   0.472   3.861   0.167 -1.2976  1.1013 -0.7670
26871SOL     OW83504   8.590   6.746   8.089 -0.4363  0.0827 -0.0562
26871SOL    HW183505   8.685   6.736   8.082 -0.4380  0.2266 -0.3224
26871SOL    HW283506   8.578   6.824   8.144 -0.4203 -0.9359  1.4456
26872SOL     OW83507   3.538   9.383   3.943 -0.0404 -0.0201 -0.1217
26872SOL    HW183508   3.540   9.353   4.034  0.7904  0.6170  0.0779
26872SOL    HW283509   3.446   9.404   3.927 -0.5241 -1.8463 -0.0144
26873SOL     OW83510   7.980   8.819   1.188 -0.7509  0.5149 -0.2725
26873SOL    HW183511   8.072   8.798   1.201 -0.8430  0.6002  0.5982
26873SOL    HW283512   7.942   8.739   1.152 -0.8471 -0.4486  1.8201
26874SOL     OW83513   6.792   9.399   8.941 -0.4477  0.0077 -0.3721
26874SOL    HW183514   6.757   9.468   8.884 -0.4280  0.9618  0.7424
26874SOL    HW283515   6.855   9.444   8.997  1.8887 -1.4708 -1.6390
26875SOL     OW83516   5.709   6.630   6.787  0.2462  0.5912 -0.1042
26875SOL    HW183517   5.619   6.610   6.815  0.3962 -1.0961 -0.7270
26875SOL    HW283518   5.698   6.694   6.716 -0.5740 -0.6502 -1.1311
26876SOL     OW83519   7.729   8.352   8.646 -0.0576  0.8070  0.3236
26876SOL    HW183520   7.683   8.436   8.633  1.1370  1.2004 -1.7456
26876SOL    HW283521   7.703   8.299   8.570  2.5021  0.8971 -0.6936
26877SOL     OW83522   6.045   3.378   3.387 -0.0102 -0.0775 -0.6062
26877SOL    HW183523   6.025   3.297   3.433  1.1436 -1.1116 -1.8594
26877SOL    HW283524   5.960   3.421   3.377 -0.6371 -1.1064  0.0865
26878SOL     OW83525   1.229   5.704   0.787  0.4969  0.2468  0.0253
26878SOL    HW183526   1.271   5.766   0.727 -1.5557  1.0094 -0.6881
26878SOL    HW283527   1.300   5.675   0.844  2.2077  0.6454 -1.8026
26879SOL     OW83528   4.674   8.307   9.640 -0.1823 -0.2032 -0.0749
26879SOL    HW183529   4.595   8.258   9.663 -0.6903  0.6992  0.1553
26879SOL    HW283530   4.668   8.387   9.691 -0.8518  1.4366 -2.5618
26880SOL     OW83531   6.660   3.912   7.370 -0.0113 -0.5639 -0.5876
26880SOL    HW183532   6.735   3.961   7.336  0.3599 -0.4578  0.3346
26880SOL    HW283533   6.678   3.821   7.347  0.2203 -0.4891 -0.7070
26881SOL     OW83534   3.847   4.275   1.914  0.4330  0.0375  0.4419
26881SOL    HW183535   3.904   4.226   1.854  0.7291  0.3437  0.4691
26881SOL    HW283536   3.903   4.346   1.947 -0.0950  0.5950  0.1478
26882SOL     OW83537   7.370   3.303   7.490  0.0889 -0.0794  0.4845
26882SOL    HW183538   7.444   3.259   7.449  0.5775 -0.7259  1.9684
26882SOL    HW283539   7.369   3.269   7.580 -0.9043  1.2742  1.0187
26883SOL     OW83540   5.956   8.750   6.296  0.1082 -0.0834  0.6346
26883SOL    HW183541   5.932   8.841   6.314 -1.7547 -0.5350  0.5864
26883SOL    HW283542   6.042   8.756   6.254  0.1503  1.6326  0.9055
26884SOL     OW83543   5.477   0.132   6.385 -0.2410  0.1841 -0.0557
26884SOL    HW183544   5.548   0.195   6.373 -0.7044  0.6373 -0.4279
26884SOL    HW283545   5.486   0.072   6.310  1.7991 -1.7888  1.6201
26885SOL     OW83546   5.784   3.056   2.744 -0.0307  0.2404 -0.5165
26885SOL    HW183547   5.794   3.050   2.839  0.0398 -1.5834 -0.6090
26885SOL    HW283548   5.871   3.081   2.712  0.0770  0.3549 -0.1409
26886SOL     OW83549   0.474   7.518   5.126 -0.0158  0.5330 -0.0433
26886SOL    HW183550   0.569   7.526   5.134 -0.1101  1.4502  0.3135
26886SOL    HW283551   0.444   7.495   5.214 -0.0281 -1.0288 -0.4262
26887SOL     OW83552   2.944   6.775   7.509  0.3513  0.1238 -0.1671
26887SOL    HW183553   2.968   6.766   7.602 -0.9536 -0.0808  0.1721
26887SOL    HW283554   2.897   6.858   7.505 -1.0421 -0.6525 -0.3118
26888SOL     OW83555   1.944   4.657   1.284 -0.0900 -0.5304 -0.2245
26888SOL    HW183556   2.005   4.670   1.212 -0.0829 -0.1937 -0.1587
26888SOL    HW283557   1.988   4.594   1.342  1.4228  1.7126  1.2073
26889SOL     OW83558   9.089   6.495   0.394  0.0472  0.1125  0.0735
26889SOL    HW183559   9.124   6.480   0.482 -0.5351 -1.8193  0.0157
26889SOL    HW283560   9.020   6.430   0.384 -1.5446  1.8539 -0.9535
26890SOL     OW83561   3.880   3.987   5.310 -0.9004  0.1847  0.0324
26890SOL    HW183562   3.921   3.901   5.324 -1.2205  0.1887  1.0985
26890SOL    HW283563   3.833   4.004   5.392  0.3247  2.0293  0.3932
26891SOL     OW83564   3.082   1.587   8.656  0.2837  0.2648 -0.0528
26891SOL    HW183565   3.155   1.596   8.595 -1.0526  1.8015 -1.5626
26891SOL    HW283566   3.106   1.641   8.732  0.2394  1.8310 -1.0915
26892SOL     OW83567   4.354   1.806   4.623 -0.0674  0.0958 -0.3419
26892SOL    HW183568   4.408   1.818   4.701 -1.1271  1.2322  0.2453
26892SOL    HW283569   4.265   1.799   4.656 -0.4878  0.1170 -1.4230
26893SOL     OW83570   5.717   0.895   0.864 -0.2990  0.2835  0.1730
26893SOL    HW183571   5.707   0.884   0.769 -0.6277  2.1322 -0.0414
26893SOL    HW283572   5.658   0.966   0.887 -0.7345 -0.5807  1.9110
26894SOL     OW83573   5.665   6.621   2.156  0.1268  0.4463  0.1115
26894SOL    HW183574   5.734   6.633   2.091  1.0403  0.6350  1.0931
26894SOL    HW283575   5.642   6.709   2.184 -0.0020  0.3507  0.3108
26895SOL     OW83576   0.248   4.947   2.283 -0.1912 -0.3821 -0.1865
26895SOL    HW183577   0.277   4.856   2.272 -1.5535 -0.6729 -1.9596
26895SOL    HW283578   0.276   4.991   2.203  2.1231  1.3382  1.4358
26896SOL     OW83579   4.096   1.920   6.804  0.1064 -0.1726  0.4404
26896SOL    HW183580   4.047   1.868   6.740 -0.1282 -0.5074  0.8874
26896SOL    HW283581   4.049   1.908   6.887  0.6094 -0.0305  0.7549
26897SOL     OW83582   3.640   3.883   8.986 -0.2562 -0.4102 -0.1923
26897SOL    HW183583   3.681   3.813   8.936  1.2662 -0.4600  1.0366
26897SOL    HW283584   3.686   3.963   8.958 -1.1274 -0.0813 -0.6928
26898SOL     OW83585   8.740   5.949   1.403 -0.2909 -0.6246 -0.0352
26898SOL    HW183586   8.832   5.942   1.427 -0.5420 -1.1425  0.8268
26898SOL    HW283587   8.694   5.898   1.470 -1.2901  0.4904  0.1568
26899SOL     OW83588   8.851   9.140   6.912  0.4955  0.2142  0.2797
26899SOL    HW183589   8.788   9.107   6.848  0.9228 -1.3831  0.6390
26899SOL    HW283590   8.930   9.156   6.861  0.6511 -0.4799  0.2981
26900SOL     OW83591   6.736   0.280   7.560 -0.4131  0.3620 -0.6034
26900SOL    HW183592   6.678   0.318   7.494 -1.4997 -1.2688 -0.6380
26900SOL    HW283593   6.703   0.314   7.643 -0.9967  0.0083 -0.6816
26901SOL     OW83594   0.940   2.345   3.203 -0.2561  0.2846  0.6902
26901SOL    HW183595   0.873   2.397   3.247  0.6685  0.9902  1.2908
26901SOL    HW283596   1.017   2.352   3.259  1.2982  2.0754 -1.4704
26902SOL     OW83597   8.657   5.511   4.399 -0.0787  0.3458  0.2806
26902SOL    HW183598   8.687   5.495   4.488  0.6306  1.4489  0.2634
26902SOL    HW283599   8.581   5.568   4.409  0.8414  1.6374  0.1550
26903SOL     OW83600   0.306   1.046   5.110  0.4455 -0.8364 -0.5961
26903SOL    HW183601   0.380   1.105   5.093 -1.7691  2.1396 -0.6234
26903SOL    HW283602   0.292   1.001   5.027  1.9511 -1.1784 -0.6920
26904SOL     OW83603   1.133   7.570   4.845  0.0332 -0.7096  0.3173
26904SOL    HW183604   1.051   7.611   4.873 -0.0747 -1.6645  1.4838
26904SOL    HW283605   1.107   7.484   4.812  0.4228 -0.4896 -0.5856
26905SOL     OW83606   3.292   6.498   8.637  0.2459  0.2068  0.3388
26905SOL    HW183607   3.282   6.578   8.689  1.6156  0.3500  0.4225
26905SOL    HW283608   3.204   6.480   8.604 -0.9681 -0.5161  3.5767
26906SOL     OW83609   5.057   5.416   0.549  0.0660 -0.3872  0.5076
26906SOL    HW183610   5.033   5.366   0.471 -0.8940  2.7459 -1.3956
26906SOL    HW283611   4.987   5.397   0.612 -0.9906 -0.4636 -0.6397
26907SOL     OW83612   4.532   6.683   1.589  0.0767  0.3480 -0.6394
26907SOL    HW183613   4.454   6.670   1.643  1.0610  0.3665  0.8405
26907SOL    HW283614   4.498   6.689   1.499 -1.9730  3.7141  0.1980
26908SOL     OW83615   1.066   3.848   6.690 -0.1075  0.2143 -0.3848
26908SOL    HW183616   1.118   3.915   6.736  0.4172 -0.7654  0.5031
26908SOL    HW283617   0.983   3.845   6.737  0.1873 -0.3312  0.1232
26909SOL     OW83618   5.264   5.871   3.378  0.3071 -0.3231 -0.0917
26909SOL    HW183619   5.240   5.824   3.298  0.1676 -0.2018 -0.1219
26909SOL    HW283620   5.214   5.829   3.447  0.2004 -0.2351 -0.1151
26910SOL     OW83621   4.800   6.675   8.281  0.0963 -0.3753 -0.3591
26910SOL    HW183622   4.887   6.639   8.262  0.5915  1.2489 -1.3456
26910SOL    HW283623   4.740   6.603   8.263  1.2368 -1.6737  0.7691
26911SOL     OW83624   4.429   4.017   5.393  0.3372 -0.5535  0.1737
26911SOL    HW183625   4.337   4.044   5.393  0.6161  0.4942  1.2138
26911SOL    HW283626   4.438   3.962   5.471  0.9009  0.5689  0.9277
26912SOL     OW83627   7.429   4.212   3.652 -0.0593 -0.3062  0.2842
26912SOL    HW183628   7.472   4.130   3.628  1.2525 -0.0933  1.7278
26912SOL    HW283629   7.368   4.188   3.722  0.6285 -0.0070  1.0002
26913SOL     OW83630   0.739   8.089   4.878 -0.0487  0.7493  0.1688
26913SOL    HW183631   0.782   8.175   4.885 -0.1297  0.8768 -0.7373
26913SOL    HW283632   0.656   8.100   4.926  1.1665  0.2964  2.5362
26914SOL     OW83633   0.448   9.475   6.140  0.3698 -0.4782  0.2391
26914SOL    HW183634   0.520   9.531   6.170 -0.0590  0.5012 -0.4773
26914SOL    HW283635   0.375   9.498   6.198  0.0140  0.1884 -0.4578
26915SOL     OW83636   9.529   4.853   4.758  0.0376  0.1049 -0.4272
26915SOL    HW183637   9.574   4.800   4.824  0.9322  0.9768 -0.3052
26915SOL    HW283638   9.463   4.901   4.808  0.4701  0.4857 -0.2014
26916SOL     OW83639   6.064   6.089   3.643  0.2166  0.1735  0.9639
26916SOL    HW183640   6.006   6.139   3.586  0.5025  0.2117  0.7029
26916SOL    HW283641   6.061   6.134   3.727 -0.1699  0.1458  0.9656
26917SOL     OW83642   7.201   1.241   9.534 -0.5096 -0.1651  0.2779
26917SOL    HW183643   7.120   1.239   9.482 -0.2215  0.9256 -0.2275
26917SOL    HW283644   7.243   1.323   9.510  1.7875 -1.6094 -1.0289
26918SOL     OW83645   8.892   5.381   1.319 -0.6960 -0.6413 -0.3508
26918SOL    HW183646   8.967   5.438   1.301  0.1812 -1.2907  1.0865
26918SOL    HW283647   8.889   5.376   1.414 -1.6705 -1.8307 -0.4283
26919SOL     OW83648   0.825   9.381   4.421  0.0738  0.0474  0.1599
26919SOL    HW183649   0.920   9.388   4.415  0.1457 -1.0011 -0.0618
26919SOL    HW283650   0.801   9.438   4.495  0.9912 -0.5838  0.9631
26920SOL     OW83651   1.177   8.828   1.124 -0.6011  0.1140 -0.4331
26920SOL    HW183652   1.124   8.884   1.068 -1.4434  1.4290  1.5678
26920SOL    HW283653   1.113   8.773   1.170 -0.0048 -0.3529 -0.1481
26921SOL     OW83654   9.434   8.085   0.244 -0.0618  0.1401  0.8597
26921SOL    HW183655   9.521   8.104   0.208 -1.0288 -1.2680 -2.6111
26921SOL    HW283656   9.373   8.118   0.178 -1.9664 -4.7743 -0.2523
26922SOL     OW83657   3.469   0.224   4.381  0.2937  0.4046  0.5196
26922SOL    HW183658   3.386   0.219   4.429 -0.8477  1.8968 -1.1455
26922SOL    HW283659   3.476   0.139   4.336 -2.0583  1.3195 -1.8462
26923SOL     OW83660   5.830   3.395   6.446 -0.0538 -0.0342 -0.1902
26923SOL    HW183661   5.827   3.471   6.389  1.4670  1.1288  1.1817
26923SOL    HW283662   5.855   3.323   6.389  1.8379  1.1750 -1.0046
26924SOL     OW83663   0.861   1.769   3.637  0.0484 -0.0668  0.0645
26924SOL    HW183664   0.785   1.728   3.596  0.9040 -0.2674 -1.4209
26924SOL    HW283665   0.825   1.839   3.691 -1.1199  1.3563 -2.3705
26925SOL     OW83666   3.427   2.040   9.552 -0.3947  0.5842  0.6102
26925SOL    HW183667   3.350   2.081   9.590  1.2662  1.7490  2.9542
26925SOL    HW283668   3.465   1.989   9.623  0.7451 -0.4101 -0.6460
26926SOL     OW83669   8.244   2.286   2.884 -0.0254  0.0893 -0.1031
26926SOL    HW183670   8.332   2.269   2.850 -0.6762 -1.6400 -1.0433
26926SOL    HW283671   8.250   2.265   2.978  0.7474  0.7828  0.0100
26927SOL     OW83672   6.754   7.883   8.389  0.0107 -0.1253  0.3184
26927SOL    HW183673   6.683   7.831   8.351  1.1617 -0.2168 -1.8316
26927SOL    HW283674   6.735   7.973   8.362  0.4250 -0.0731  0.2026
26928SOL     OW83675   4.012   5.526   7.663  0.0905 -0.0828  0.4803
26928SOL    HW183676   3.998   5.545   7.570 -2.0590 -0.5576  0.6498
26928SOL    HW283677   4.062   5.444   7.664 -1.1322 -0.8719 -0.2946
26929SOL     OW83678   4.520   7.389   4.476  0.2420  0.2603  1.1016
26929SOL    HW183679   4.600   7.340   4.454 -0.5116 -0.9446  0.9470
26929SOL    HW283680   4.529   7.472   4.429  0.8944 -0.3082  0.1924
26930SOL     OW83681   7.477   8.746   9.465 -0.0243 -0.1510 -0.3702
26930SOL    HW183682   7.477   8.751   9.369  0.3884 -1.7846 -0.4864
26930SOL    HW283683   7.512   8.831   9.493  0.5788  0.0602 -1.6833
26931SOL     OW83684   6.642   4.939   1.003 -0.0047 -0.1346  0.7173
26931SOL    HW183685   6.597   4.951   1.087 -2.4454  0.8423 -0.6251
26931SOL    HW283686   6.638   4.845   0.987 -3.4644  0.0114 -0.1869
26932SOL     OW83687   8.378   2.971   9.526  0.0988  0.3540  0.2945
26932SOL    HW183688   8.321   2.915   9.578  1.1864  0.3366  1.5521
26932SOL    HW283689   8.343   3.059   9.538 -0.0149  0.2703  0.5883
26933SOL     OW83690   1.470   8.546   1.481 -0.1089  0.1897  0.3088
26933SOL    HW183691   1.530   8.619   1.497  1.6315 -0.7974 -1.3114
26933SOL    HW283692   1.523   8.468   1.496 -1.9513 -0.8093  2.0684
26934SOL     OW83693   7.341   1.357   2.952  0.6052  0.1064  0.3589
26934SOL    HW183694   7.330   1.447   2.921  0.2979  0.1530  0.6028
26934SOL    HW283695   7.385   1.365   3.036 -1.0270  0.1392  1.2456
26935SOL     OW83696   3.139   2.179   3.911 -0.8134 -0.8049  0.2443
26935SOL    HW183697   3.102   2.144   3.830 -1.0539 -1.4805  0.6323
26935SOL    HW283698   3.173   2.265   3.887 -2.7132 -0.1056 -0.1338
26936SOL     OW83699   9.194   9.007   8.471  0.3080  0.1079 -0.0387
26936SOL    HW183700   9.148   8.948   8.531  0.7424 -1.5383 -1.2513
26936SOL    HW283701   9.124   9.058   8.429  0.0184  1.6725  2.1378
26937SOL     OW83702   6.397   0.828   9.325  0.3040  0.4224  0.3106
26937SOL    HW183703   6.484   0.867   9.337  0.6352  0.4937 -1.9080
26937SOL    HW283704   6.361   0.874   9.249 -0.6413 -1.3274 -0.3488
26938SOL     OW83705   3.326   5.702   5.591  0.3180 -0.0444  1.0606
26938SOL    HW183706   3.326   5.746   5.506 -0.9872  0.4216  1.2714
26938SOL    HW283707   3.278   5.762   5.649 -0.4985 -1.2123  1.6398
26939SOL     OW83708   7.498   3.653   4.936  0.3752  0.3960 -0.0592
26939SOL    HW183709   7.402   3.660   4.937  0.4529  2.1428  1.8088
26939SOL    HW283710   7.528   3.743   4.931  1.8981  0.0030  1.3514
26940SOL     OW83711   0.954   0.369   8.223 -0.6670 -0.5241  0.3319
26940SOL    HW183712   0.881   0.401   8.277 -1.0738 -0.9891  0.0614
26940SOL    HW283713   1.007   0.316   8.282 -1.9909 -2.3834 -0.0866
26941SOL     OW83714   5.370   3.914   0.086 -0.0165  0.0290 -0.4065
26941SOL    HW183715   5.285   3.951   0.110  0.3163  1.9480 -1.9829
26941SOL    HW283716   5.407   3.884   0.169 -1.4526  0.8390  0.5663
26942SOL     OW83717   7.407   3.380   9.422  0.4354 -0.2759 -0.4365
26942SOL    HW183718   7.381   3.325   9.497 -1.6999  0.9747 -0.1720
26942SOL    HW283719   7.472   3.440   9.457  0.4821 -0.6168  0.0682
26943SOL     OW83720   2.548   1.671   3.390 -0.7056  1.0483  0.2374
26943SOL    HW183721   2.551   1.670   3.294 -0.0779  0.4935  0.2509
26943SOL    HW283722   2.554   1.579   3.415  0.8315  1.2849  0.8385
26944SOL     OW83723   5.873   8.561   0.461  0.0861 -0.5370 -0.4355
26944SOL    HW183724   5.899   8.509   0.537  1.0045  0.3655 -0.1039
26944SOL    HW283725   5.955   8.598   0.428 -0.4975  0.4101 -0.8621
26945SOL     OW83726   2.341   7.939   8.736  0.2930  0.2788  0.4764
26945SOL    HW183727   2.392   8.019   8.724  0.4817  0.3308  1.5112
26945SOL    HW283728   2.252   7.964   8.711  0.3739  0.7833  0.6835
26946SOL     OW83729   7.111   1.010   9.643  0.5040 -0.0087  0.1748
26946SOL    HW183730   7.169   1.076   9.605  0.2311  0.4644  0.5674
26946SOL    HW283731   7.118   0.935   9.583  0.7773  0.3918 -0.3084
26947SOL     OW83732   1.487   2.068   7.202  0.3422  0.3095 -0.2706
26947SOL    HW183733   1.574   2.067   7.163  1.0760 -1.6451  1.2515
26947SOL    HW283734   1.431   2.029   7.135  0.3573  2.5613 -1.6859
26948SOL     OW83735   1.428   1.483   7.600 -1.3250  0.3076 -0.0741
26948SOL    HW183736   1.516   1.481   7.639 -1.1822  2.4568 -0.1935
26948SOL    HW283737   1.439   1.442   7.514 -0.4238  0.5712 -0.0967
26949SOL     OW83738   7.993   8.916   3.208 -0.5538 -0.2905  0.6152
26949SOL    HW183739   8.043   8.840   3.238 -0.0823 -0.4438 -0.4977
26949SOL    HW283740   7.906   8.904   3.246 -0.0237 -0.5209  1.7891
26950SOL     OW83741   2.354   3.241   5.689  0.1351  0.2737 -0.4150
26950SOL    HW183742   2.294   3.179   5.647  0.1349 -0.3377  0.4584
26950SOL    HW283743   2.391   3.192   5.763 -0.3290  1.5116  0.6758
26951SOL     OW83744   8.225   7.274   3.868  0.0786  0.1888 -0.5826
26951SOL    HW183745   8.247   7.268   3.776 -1.9447  1.0316 -1.1804
26951SOL    HW283746   8.288   7.337   3.904 -0.8407  2.0581 -2.0594
26952SOL     OW83747   8.941   7.888   1.724  0.2105  0.0901  0.0763
26952SOL    HW183748   8.936   7.794   1.741 -0.8379 -0.0058 -0.7021
26952SOL    HW283749   9.032   7.910   1.744 -0.1119 -0.5764  2.7484
26953SOL     OW83750   6.110   2.378   5.108  0.4560  0.5263  0.4127
26953SOL    HW183751   6.169   2.430   5.054  1.6978 -0.0264  1.1819
26953SOL    HW283752   6.105   2.293   5.063  0.3338  0.5400  0.4007
26954SOL     OW83753   1.503   3.762   9.168  0.0210  0.2322  0.4550
26954SOL    HW183754   1.434   3.781   9.105  0.4869  0.6801  0.0678
26954SOL    HW283755   1.467   3.785   9.253 -0.7932 -0.8371  0.4219
26955SOL     OW83756   6.389   0.749   3.810  0.4813  0.0193  0.1176
26955SOL    HW183757   6.344   0.755   3.726 -1.3049 -2.4877  0.7676
26955SOL    HW283758   6.467   0.696   3.792 -0.5070 -1.5201  0.1793
26956SOL     OW83759   3.646   4.316   0.821 -0.1456 -0.2076  0.1445
26956SOL    HW183760   3.630   4.314   0.916 -0.7422  0.5168  0.0684
26956SOL    HW283761   3.723   4.372   0.811 -0.2420 -0.0677  0.1825
26957SOL     OW83762   5.378   6.858   0.689 -0.3923  0.4054 -0.2433
26957SOL    HW183763   5.461   6.845   0.734 -0.2366  1.1331 -0.3014
26957SOL    HW283764   5.398   6.840   0.597 -0.5346 -0.3644 -0.1267
26958SOL     OW83765   2.741   4.884   4.427 -0.0009  0.0004 -0.7649
26958SOL    HW183766   2.779   4.943   4.493  0.3046  1.6653 -2.3475
26958SOL    HW283767   2.647   4.891   4.441  0.0202  0.9966 -0.9932
26959SOL     OW83768   6.445   0.025   5.333 -0.2962 -0.3256  0.0426
26959SOL    HW183769   6.455  -0.068   5.351  0.2456 -0.1233  0.8395
26959SOL    HW283770   6.413   0.062   5.416  1.2743  0.4809  0.3129
26960SOL     OW83771   7.299   5.942   7.561  0.2454  0.3739  0.1859
26960SOL    HW183772   7.357   6.016   7.543  3.2590 -1.1523  2.5881
26960SOL    HW283773   7.280   5.905   7.474 -0.2817  3.0970 -0.9598
26961SOL     OW83774   3.094   0.336   1.998  0.1601 -0.3013 -0.1605
26961SOL    HW183775   3.007   0.372   2.016 -0.1227 -1.2482  0.4514
26961SOL    HW283776   3.105   0.346   1.903 -0.7356 -0.4171 -0.2876
26962SOL     OW83777   5.207   0.329   7.161 -0.3647 -0.3799 -0.3625
26962SOL    HW183778   5.132   0.271   7.166 -0.5059 -0.2819 -1.2319
26962SOL    HW283779   5.277   0.281   7.206 -0.1630 -1.7423 -2.0347
26963SOL     OW83780   3.319   9.610   0.247  0.3878 -0.6741  0.6211
26963SOL    HW183781   3.322   9.643   0.337  1.2181  2.1617 -0.3589
26963SOL    HW283782   3.257   9.666   0.202 -0.8181 -2.7235 -0.4168
26964SOL     OW83783   4.139   2.052   3.117  0.3311 -0.2627  1.0294
26964SOL    HW183784   4.190   2.108   3.059  0.3964 -0.9115  0.4405
26964SOL    HW283785   4.048   2.063   3.088  0.3977 -0.8255  0.5827
26965SOL     OW83786   3.658   3.765   6.432  0.3529 -0.5041 -0.1245
26965SOL    HW183787   3.623   3.736   6.516 -0.0849 -0.6149 -0.3404
26965SOL    HW283788   3.582   3.763   6.373 -0.8899  5.0367  0.7189
26966SOL     OW83789   7.207   4.200   4.677 -0.5289 -0.0481  0.0276
26966SOL    HW183790   7.200   4.110   4.646  0.3894  0.7973 -3.0265
26966SOL    HW283791   7.207   4.193   4.772 -0.6858 -3.2246 -0.0962
26967SOL     OW83792   0.772   0.969   0.862 -0.9171 -0.8764  0.5556
26967SOL    HW183793   0.722   0.925   0.794  1.3803  0.2679 -2.0732
26967SOL    HW283794   0.839   0.905   0.887  0.9598  0.1023 -1.5770
26968SOL     OW83795   2.621   1.499   9.130  0.2177  0.3036 -0.2111
26968SOL    HW183796   2.597   1.407   9.144 -1.6247  0.7419 -0.1215
26968SOL    HW283797   2.659   1.501   9.042 -0.2666 -0.4787 -0.4555
26969SOL     OW83798   2.957   3.299   0.769  0.2093 -0.2514  0.0193
26969SOL    HW183799   2.979   3.341   0.853  1.0899  0.2429 -0.4443
26969SOL    HW283800   2.878   3.248   0.788 -1.0534  1.7835  0.5747
26970SOL     OW83801   5.996   1.764   5.564 -0.7084  0.1173  0.3744
26970SOL    HW183802   5.936   1.690   5.572  0.6730 -1.3944 -1.9849
26970SOL    HW283803   6.077   1.726   5.530  0.7953  2.4318  1.1256
26971SOL     OW83804   1.742   2.856   2.574 -0.4966 -0.1452 -0.7389
26971SOL    HW183805   1.827   2.824   2.605 -0.2932  1.7110  0.8131
26971SOL    HW283806   1.710   2.913   2.644 -2.1690  0.6739 -2.0724
26972SOL     OW83807   7.574   3.007   5.255 -0.1725 -0.2820  0.5472
26972SOL    HW183808   7.666   2.993   5.233 -0.4135 -2.1463  0.5742
26972SOL    HW283809   7.538   3.053   5.179  0.5607 -0.4227  0.1061
26973SOL     OW83810   1.003   3.383   4.378  0.0766  0.0375 -0.3584
26973SOL    HW183811   1.044   3.304   4.412  0.1263  0.0718 -0.3371
26973SOL    HW283812   1.026   3.383   4.285  0.7691  0.4445 -0.1970
26974SOL     OW83813   2.745   7.480   4.017  0.0020 -0.4098 -0.0516
26974SOL    HW183814   2.751   7.568   3.978  1.4477 -1.2303 -1.8398
26974SOL    HW283815   2.835   7.458   4.041 -0.4757 -1.0771  1.2128
26975SOL     OW83816   0.722   3.534   5.881  0.0532  0.6599 -0.3939
26975SOL    HW183817   0.706   3.625   5.905 -2.0347  0.5831 -1.2310
26975SOL    HW283818   0.781   3.538   5.806 -2.3236  1.5924 -2.3583
26976SOL     OW83819   7.548   7.728   4.508 -0.3451  0.0019 -0.2863
26976SOL    HW183820   7.504   7.690   4.431 -1.4645 -1.0407  0.8178
26976SOL    HW283821   7.563   7.653   4.566 -0.3828  0.9016  0.9176
26977SOL     OW83822   1.378   0.234   2.785  0.6933  0.0067 -0.4157
26977SOL    HW183823   1.402   0.148   2.818 -1.7783 -1.1128 -1.3180
26977SOL    HW283824   1.350   0.218   2.695 -1.3898  1.4577 -0.0909
26978SOL     OW83825   6.561   6.773   5.894  0.4808  0.4360  0.2257
26978SOL    HW183826   6.651   6.746   5.878  0.0410 -0.0674 -1.5933
26978SOL    HW283827   6.518   6.765   5.809 -1.7021 -0.9922  1.3837
26979SOL     OW83828   4.637   3.611   4.441  0.0872 -0.2719 -0.3184
26979SOL    HW183829   4.699   3.683   4.424 -0.1570  0.0206  0.0040
26979SOL    HW283830   4.617   3.619   4.534  0.2980 -0.9573 -0.2167
26980SOL     OW83831   7.928   6.708   2.050 -0.3390 -0.3050 -0.0443
26980SOL    HW183832   7.924   6.802   2.031 -0.2298  0.0543  1.5189
26980SOL    HW283833   7.993   6.674   1.989  0.9981  1.0042  0.5694
26981SOL     OW83834   9.271   5.429   2.653  0.4989 -0.0380 -0.1938
26981SOL    HW183835   9.293   5.521   2.667  1.7586 -0.4645  0.7012
26981SOL    HW283836   9.280   5.417   2.558  0.1868  0.7806 -0.3378
26982SOL     OW83837   1.426   1.428   9.507  0.1972 -0.1707  0.2951
26982SOL    HW183838   1.487   1.500   9.526  0.3107 -0.1470 -0.1409
26982SOL    HW283839   1.473   1.350   9.536  1.2338 -0.3596 -1.6565
26983SOL     OW83840   0.300   7.482   0.858  0.0256 -0.1541  0.1370
26983SOL    HW183841   0.339   7.451   0.776  2.9198 -0.7970  1.6083
26983SOL    HW283842   0.310   7.408   0.919 -1.7705  0.4062  1.1945
26984SOL     OW83843   3.380   5.579   6.310  0.5078  0.2681 -0.0334
26984SOL    HW183844   3.384   5.509   6.244  0.6508 -0.8741  1.1381
26984SOL    HW283845   3.309   5.636   6.280  1.2199  0.3545 -1.6934
26985SOL     OW83846   1.068   4.438   6.065  0.0198 -0.0486 -0.1059
26985SOL    HW183847   1.097   4.367   6.121  1.3134 -0.1490 -0.8534
26985SOL    HW283848   0.975   4.449   6.085  0.2610 -0.6083  1.4402
26986SOL     OW83849   8.012   0.369   6.324  0.0097 -0.1459  0.2937
26986SOL    HW183850   8.050   0.281   6.329 -1.3023 -0.7119  0.4727
26986SOL    HW283851   8.006   0.387   6.230 -0.5414 -0.6218  0.2310
26987SOL     OW83852   0.421   4.684   5.944  0.3629 -0.1304 -0.1599
26987SOL    HW183853   0.375   4.635   5.876  2.5005 -0.7234 -1.2698
26987SOL    HW283854   0.493   4.627   5.971 -0.2268  0.2168  2.4412
26988SOL     OW83855   8.634   6.249   3.242 -0.6205 -0.7613  0.3476
26988SOL    HW183856   8.699   6.308   3.281  0.3927  0.2666 -2.5707
26988SOL    HW283857   8.552   6.296   3.249 -0.3985 -0.4308  0.8355
26989SOL     OW83858   5.463   0.549   0.683  0.5328  0.0923 -0.4097
26989SOL    HW183859   5.483   0.539   0.590  1.7776  0.3727 -0.1921
26989SOL    HW283860   5.408   0.474   0.704  2.0671 -1.2136 -0.8767
26990SOL     OW83861   6.268   7.865   7.306 -0.6106 -0.6282 -0.1299
26990SOL    HW183862   6.327   7.939   7.292  0.7530 -1.6223  0.1814
26990SOL    HW283863   6.279   7.843   7.399  0.0799 -2.0917 -0.5301
26991SOL     OW83864   2.721   1.929   3.347  0.5623 -0.4782 -0.2404
26991SOL    HW183865   2.701   1.999   3.284  0.8413 -1.0519 -0.9740
26991SOL    HW283866   2.771   1.865   3.297  2.9316  0.1599  1.1110
26992SOL     OW83867   3.337   5.035   1.375  0.2009  0.2014 -0.4212
26992SOL    HW183868   3.295   4.984   1.305 -0.9917 -0.1025  0.4891
26992SOL    HW283869   3.425   4.996   1.383  1.2506  1.7112 -3.2498
26993SOL     OW83870   5.207   0.771   1.970 -0.2440 -0.2947  0.4604
26993SOL    HW183871   5.256   0.710   1.915 -0.9399 -0.0995 -0.3979
26993SOL    HW283872   5.260   0.851   1.969  0.5123 -0.7602  1.3362
26994SOL     OW83873   6.757   0.990   7.192 -0.2614 -0.3746  0.5877
26994SOL    HW183874   6.695   0.955   7.256 -0.5921 -0.2127  0.3639
26994SOL    HW283875   6.794   1.068   7.234 -0.4472 -0.2921  0.6017
26995SOL     OW83876   9.535   0.571   4.940 -0.4287 -0.6197  0.0055
26995SOL    HW183877   9.593   0.618   4.881 -2.1475 -1.8387 -2.9009
26995SOL    HW283878   9.592   0.536   5.008  1.9123 -0.1996 -1.6445
26996SOL     OW83879   4.640   7.161   5.458  0.5056 -0.1098  0.0939
26996SOL    HW183880   4.555   7.205   5.464  1.7985  2.4103  3.2616
26996SOL    HW283881   4.694   7.220   5.405  0.8663 -0.6074 -0.1011
26997SOL     OW83882   5.399   5.465   1.690 -0.1239 -0.3531  0.1674
26997SOL    HW183883   5.477   5.471   1.636  0.1621  0.8510  0.6951
26997SOL    HW283884   5.333   5.426   1.632 -0.0610  1.5986 -1.3362
26998SOL     OW83885   9.220   5.496   2.401  0.5901 -0.0872  0.4907
26998SOL    HW183886   9.250   5.570   2.349  1.9549 -2.1812 -1.9793
26998SOL    HW283887   9.142   5.465   2.355  0.3935 -0.5297  1.1163
26999SOL     OW83888   1.050   8.023   8.857  0.3109  0.0750  0.0411
26999SOL    HW183889   1.053   8.105   8.907  0.6429  0.4483 -0.5827
26999SOL    HW283890   1.023   7.957   8.921  0.6754  0.5581  0.7096
27000SOL     OW83891   0.353   3.612   3.808  0.4753  0.0602 -0.1383
27000SOL    HW183892   0.375   3.519   3.801 -0.8165 -0.4028  1.4762
27000SOL    HW283893   0.438   3.657   3.805  1.0285 -0.9468 -3.0707
27001SOL     OW83894   1.814   5.274   0.492 -0.3361  0.5539 -0.0041
27001SOL    HW183895   1.832   5.272   0.398  0.0979 -0.3844  0.0895
27001SOL    HW283896   1.755   5.200   0.507 -0.3737  0.6746  0.4675
27002SOL     OW83897   7.427   5.797   0.054  0.3867 -0.0713 -0.2325
27002SOL    HW183898   7.352   5.778  -0.003  0.2784 -1.6184  0.3839
27002SOL    HW283899   7.400   5.876   0.102 -0.0072  0.5582 -1.4352
27003SOL     OW83900   4.894   0.997   7.307 -0.0795  0.3996  0.1752
27003SOL    HW183901   4.867   1.072   7.254 -1.7748 -1.2926 -1.5385
27003SOL    HW283902   4.925   1.036   7.389 -1.4337  2.9346 -0.3947
27004SOL     OW83903   3.348   8.863   2.772 -0.8581  0.1657  0.3531
27004SOL    HW183904   3.410   8.893   2.838 -1.4466  1.1737  0.4674
27004SOL    HW283905   3.291   8.801   2.819 -0.9473  0.4801  0.6655
27005SOL     OW83906   2.401   4.126   8.495  0.2108  0.3259 -0.4919
27005SOL    HW183907   2.356   4.160   8.572  1.0204  0.0675  0.1187
27005SOL    HW283908   2.336   4.073   8.450 -1.3366  3.2513 -1.9096
27006SOL     OW83909   8.675   0.816   8.888 -0.0335  0.9157 -0.1331
27006SOL    HW183910   8.700   0.864   8.967 -0.6265  2.3871 -0.8036
27006SOL    HW283911   8.740   0.746   8.881  1.3239  2.0638  0.4895
27007SOL     OW83912   5.801   2.713   1.121 -0.5248  0.1994 -0.1554
27007SOL    HW183913   5.716   2.755   1.112 -1.1740 -1.0782 -0.3071
27007SOL    HW283914   5.823   2.684   1.033  0.5650  1.3945 -0.3008
27008SOL     OW83915   4.300   9.147   6.455 -0.4517  0.0877  0.3224
27008SOL    HW183916   4.330   9.159   6.545 -0.6330 -0.9163  0.5258
27008SOL    HW283917   4.242   9.071   6.459 -0.8227  0.3104 -0.5637
27009SOL     OW83918   8.383   4.402   1.402 -0.6767 -0.0468  0.1171
27009SOL    HW183919   8.324   4.407   1.327  0.6672 -2.5482 -1.2408
27009SOL    HW283920   8.326   4.412   1.478 -2.4784 -0.0242 -1.1747
27010SOL     OW83921   7.210   5.159   4.321  0.5129 -0.4062  0.1941
27010SOL    HW183922   7.135   5.203   4.362  0.6423 -0.2935  0.3124
27010SOL    HW283923   7.273   5.229   4.305  1.1931 -0.7089  1.4459
27011SOL     OW83924   8.480   9.067   7.481 -0.3425  0.2109  0.1467
27011SOL    HW183925   8.460   9.158   7.460  0.5312  0.1177 -1.2475
27011SOL    HW283926   8.575   9.064   7.483 -0.3678 -0.6755  0.2072
27012SOL     OW83927   2.453   6.592   0.391 -0.0408 -0.2159  0.4898
27012SOL    HW183928   2.377   6.578   0.448  0.2938 -0.5846  0.8498
27012SOL    HW283929   2.460   6.688   0.383 -1.8248 -0.1620 -1.2814
27013SOL     OW83930   7.782   5.725   5.140  0.7149 -0.3041  0.4672
27013SOL    HW183931   7.764   5.686   5.054  1.7153 -0.7620  0.4601
27013SOL    HW283932   7.771   5.819   5.126  1.2616 -0.3419 -0.2663
27014SOL     OW83933   2.683   8.980   4.062 -0.3998  0.2486 -0.4695
27014SOL    HW183934   2.689   8.999   3.968  0.4167  0.9855 -0.2860
27014SOL    HW283935   2.613   9.037   4.094  1.0277  1.9674 -0.1976
27015SOL     OW83936   3.652   3.064   7.849 -0.2700  0.2252 -0.5628
27015SOL    HW183937   3.571   3.048   7.802  0.4638 -1.2594 -1.3930
27015SOL    HW283938   3.628   3.125   7.919 -2.2998 -0.9469 -0.1800
27016SOL     OW83939   8.709   9.045   4.002  0.2195 -0.1468 -0.2021
27016SOL    HW183940   8.629   8.996   4.022 -0.7380  1.7482  0.8246
27016SOL    HW283941   8.691   9.088   3.919  1.5138 -2.3168 -1.7473
27017SOL     OW83942   6.779   6.112   2.302  0.3784  0.0368  0.1233
27017SOL    HW183943   6.687   6.115   2.328  0.1462  0.3888 -0.6893
27017SOL    HW283944   6.828   6.112   2.384 -0.3704 -1.5944  0.6061
27018SOL     OW83945   4.967   0.716   8.735  0.2179 -0.7252 -0.6177
27018SOL    HW183946   4.992   0.806   8.716  0.6315 -0.9205 -1.0161
27018SOL    HW283947   4.871   0.717   8.738  0.1726 -0.4857 -1.7245
27019SOL     OW83948   0.425   9.092   3.423 -0.8744 -0.5552 -0.0886
27019SOL    HW183949   0.508   9.124   3.457 -0.2545  0.9720 -2.8012
27019SOL    HW283950   0.361   9.113   3.491  0.5877  0.3239  1.0539
27020SOL     OW83951   9.019   6.693   1.063 -0.3035  0.3531 -0.1053
27020SOL    HW183952   9.094   6.636   1.043 -0.4733 -0.3702  1.2026
27020SOL    HW283953   9.056   6.764   1.116 -0.0731  1.5675 -1.8225
27021SOL     OW83954   0.606   6.414   8.522  0.0068  0.1240  0.2092
27021SOL    HW183955   0.591   6.321   8.538 -0.3882  0.2681  0.7001
27021SOL    HW283956   0.542   6.438   8.455  1.3054 -0.3579 -1.2561
27022SOL     OW83957   0.970   5.916   2.383 -0.0599 -0.0021 -0.1291
27022SOL    HW183958   1.016   5.859   2.445  0.0245 -0.3828 -0.5312
27022SOL    HW283959   0.951   5.858   2.309 -0.4640  0.3604 -0.3085
27023SOL     OW83960   8.823   3.851   1.935  0.2283 -0.1907 -0.4936
27023SOL    HW183961   8.794   3.895   1.855 -1.4817 -0.0047  0.1899
27023SOL    HW283962   8.751   3.863   1.997  0.1076 -3.0571  0.0726
27024SOL     OW83963   0.480   9.174   0.640  0.1845  0.4847 -0.0414
27024SOL    HW183964   0.389   9.201   0.655  0.8318  2.8962  0.0546
27024SOL    HW283965   0.478   9.128   0.556 -1.0635  0.8796 -0.2550
27025SOL     OW83966   9.489   8.713   8.492 -0.2551 -0.3880 -0.3599
27025SOL    HW183967   9.458   8.623   8.482 -1.6765  0.3506 -4.8994
27025SOL    HW283968   9.435   8.749   8.563 -0.2555 -2.7592  0.9698
27026SOL     OW83969   8.134   1.706   7.258  0.1971 -0.6452  0.0101
27026SOL    HW183970   8.190   1.707   7.336  0.1531  1.2660  0.0581
27026SOL    HW283971   8.072   1.635   7.275  0.4456 -0.5391  1.5471
27027SOL     OW83972   6.997   0.894   8.620 -0.4082  0.2543  0.1561
27027SOL    HW183973   6.947   0.893   8.538  0.7884  1.0942 -0.6265
27027SOL    HW283974   7.027   0.803   8.630  0.6215  0.4169 -1.1318
27028SOL     OW83975   8.887   2.854   8.291  0.3874 -0.4794  0.0564
27028SOL    HW183976   8.969   2.883   8.252 -0.6692 -1.0217 -2.8296
27028SOL    HW283977   8.905   2.765   8.321  1.1859 -0.1272  0.6544
27029SOL     OW83978   8.367   5.913   2.862 -0.0297 -0.3524 -0.1731
27029SOL    HW183979   8.382   5.876   2.949  1.8420 -0.7980 -0.6545
27029SOL    HW283980   8.292   5.863   2.828 -0.2544 -0.7341  0.8546
27030SOL     OW83981   8.346   8.225   9.415 -0.0571 -0.8924 -0.9468
27030SOL    HW183982   8.373   8.238   9.324  0.8852  3.9001 -0.2398
27030SOL    HW283983   8.250   8.221   9.412 -0.2628  2.2464 -2.0861
27031SOL     OW83984   3.508   0.256   2.865 -0.5882 -0.2085 -0.2996
27031SOL    HW183985   3.576   0.249   2.798  0.1703 -1.7241  0.5625
27031SOL    HW283986   3.432   0.212   2.827 -0.2552 -0.7899 -0.3112
27032SOL     OW83987   4.741   6.153   0.456 -0.2808  0.4419 -0.0131
27032SOL    HW183988   4.784   6.214   0.517  1.3738 -0.5302 -0.1473
27032SOL    HW283989   4.651   6.149   0.486 -0.2453  2.3351  0.4857
27033SOL     OW83990   7.481   7.407   5.277 -0.0407  0.1804 -0.0922
27033SOL    HW183991   7.568   7.367   5.278  0.6796  1.5837 -1.6453
27033SOL    HW283992   7.433   7.358   5.211 -1.3045 -2.1215  2.3381
27034SOL     OW83993   1.767   2.374   0.133  0.8733 -0.4539 -0.4870
27034SOL    HW183994   1.840   2.416   0.086  0.9195  0.6215  0.4933
27034SOL    HW283995   1.708   2.345   0.064  1.3560  0.3153 -1.2461
27035SOL     OW83996   0.743   4.907   4.789  0.3124  0.0265 -0.0651
27035SOL    HW183997   0.760   4.908   4.883  0.6265 -0.7801 -0.1090
27035SOL    HW283998   0.697   4.989   4.773 -2.7737 -1.2559  1.3559
27036SOL     OW83999   9.242   8.872   5.430 -0.4542  0.2114  0.3969
27036SOL    HW184000   9.281   8.905   5.349  1.3722 -2.1836  0.1865
27036SOL    HW284001   9.148   8.887   5.419 -0.0089  2.7158 -0.7784
27037SOL     OW84002   4.548   8.989   8.888 -0.0035 -0.2093 -0.0507
27037SOL    HW184003   4.590   9.002   8.973 -0.5330 -0.3745  0.2359
27037SOL    HW284004   4.621   8.971   8.829  0.5064  1.2315  0.0930
27038SOL     OW84005   1.965   6.803   5.373 -0.4012  0.1788 -0.1754
27038SOL    HW184006   1.972   6.862   5.448  0.5040 -0.9076  0.6096
27038SOL    HW284007   1.962   6.862   5.297  2.8129  1.2459  0.3856
27039SOL     OW84008   3.742   6.682   4.434 -0.3311 -0.1722  0.3087
27039SOL    HW184009   3.725   6.723   4.519  0.3816  1.1141 -0.1353
27039SOL    HW284010   3.750   6.756   4.373  1.9705 -0.8997 -0.3654
27040SOL     OW84011   3.950   1.321   7.875 -0.2268 -0.2922  0.0156
27040SOL    HW184012   4.006   1.393   7.844 -1.1152  1.2175  1.6917
27040SOL    HW284013   3.982   1.302   7.963 -1.1125 -0.7425  0.2526
27041SOL     OW84014   7.908   7.669   9.110  0.4405 -0.4694  0.2937
27041SOL    HW184015   7.838   7.734   9.116 -0.7905 -1.7879  0.6609
27041SOL    HW284016   7.962   7.699   9.037 -0.3164  0.7397  0.1977
27042SOL     OW84017   3.050   8.851   7.972 -0.0216 -0.0920  0.2458
27042SOL    HW184018   2.966   8.874   7.932 -0.4443 -1.1849  0.4686
27042SOL    HW284019   3.062   8.916   8.041 -0.0667  0.8323 -0.6065
27043SOL     OW84020   4.132   0.546   6.990  0.6632  0.7186 -0.3326
27043SOL    HW184021   4.064   0.507   6.935  1.0953 -0.8771  0.1919
27043SOL    HW284022   4.197   0.579   6.928 -0.5241  2.2078 -0.8355
27044SOL     OW84023   3.348   4.055   0.021 -0.7608  0.6282 -0.0929
27044SOL    HW184024   3.381   4.003   0.094 -1.0928  0.3943 -0.1039
27044SOL    HW284025   3.422   4.061  -0.040 -1.0152 -0.7074 -0.5604
27045SOL     OW84026   5.671   5.207   2.122  0.1240  0.4014  0.6965
27045SOL    HW184027   5.616   5.269   2.171  0.1104  1.5724 -0.7375
27045SOL    HW284028   5.690   5.252   2.040 -1.5548 -2.2369 -1.3133
27046SOL     OW84029   5.012   1.872   0.145 -0.5451  0.1218  0.0845
27046SOL    HW184030   5.066   1.839   0.073 -1.0495 -0.0053 -0.2412
27046SOL    HW284031   4.922   1.855   0.117 -0.8472  1.8997 -0.1589
27047SOL     OW84032   1.740   9.315   9.594  0.0346  0.2005  0.3983
27047SOL    HW184033   1.673   9.274   9.539  0.8900  0.6308 -1.0248
27047SOL    HW284034   1.706   9.307   9.683 -1.0804 -1.1500 -0.1088
27048SOL     OW84035   7.669   9.279   8.935 -0.0571  0.2428 -0.0581
27048SOL    HW184036   7.594   9.229   8.904  0.3418 -0.9728  0.8768
27048SOL    HW284037   7.745   9.226   8.910  0.3626  0.2635  1.1227
27049SOL     OW84038   0.006   2.469   9.618 -0.2009  0.5264 -0.5466
27049SOL    HW184039  -0.052   2.444   9.545  1.8440 -1.5028 -1.6029
27049SOL    HW284040   0.070   2.398   9.623 -0.2774  0.5321  3.3316
27050SOL     OW84041   4.630   3.754   8.268 -0.1271  0.4253  0.2106
27050SOL    HW184042   4.703   3.728   8.323 -0.0299 -2.0919 -0.9497
27050SOL    HW284043   4.552   3.731   8.318 -0.0459 -0.8282 -0.1995
27051SOL     OW84044   6.182   3.586   3.213  0.4307 -0.7112 -0.1981
27051SOL    HW184045   6.175   3.506   3.265  0.3461  0.4930  1.7368
27051SOL    HW284046   6.275   3.595   3.194  0.7041 -0.3357  1.1965
27052SOL     OW84047   8.597   3.979   8.580  0.0791  0.1163  0.0795
27052SOL    HW184048   8.598   4.015   8.491  1.5224  1.7350  0.6942
27052SOL    HW284049   8.552   4.045   8.632 -1.7616 -1.3164  0.4340
27053SOL     OW84050   5.100   4.754   1.594  0.1041 -0.1628  0.2515
27053SOL    HW184051   5.047   4.702   1.533  0.7837 -0.3687 -0.1787
27053SOL    HW284052   5.062   4.842   1.591  0.3665 -0.0725 -0.7785
27054SOL     OW84053   3.713   9.448   0.462 -0.6633  0.3645 -0.4012
27054SOL    HW184054   3.706   9.485   0.374 -1.7243  0.1937 -0.4058
27054SOL    HW284055   3.771   9.507   0.509  0.5530  0.0233 -1.4359
27055SOL     OW84056   7.409   5.483   1.554  0.2581  0.1850 -0.2190
27055SOL    HW184057   7.346   5.473   1.625  0.5920  0.5300  0.1291
27055SOL    HW284058   7.407   5.576   1.532 -0.5833 -0.0838 -1.3552
27056SOL     OW84059   4.497   5.931   3.395 -0.1641 -0.1018 -0.4141
27056SOL    HW184060   4.584   5.964   3.376 -0.0669 -0.8912 -1.4399
27056SOL    HW284061   4.447   6.007   3.424  0.3994  0.6876 -1.4680
27057SOL     OW84062   6.073   7.257   6.859  0.1780 -0.3739 -0.0920
27057SOL    HW184063   6.142   7.317   6.887  0.8249 -0.4175 -1.5019
27057SOL    HW284064   6.102   7.171   6.888  0.3850 -0.3070 -0.0986
27058SOL     OW84065   2.994   0.812   2.046  0.3987 -0.9866  0.2332
27058SOL    HW184066   2.922   0.864   2.009 -0.8245 -2.9096 -0.2496
27058SOL    HW284067   3.035   0.869   2.110 -0.3482  0.8442 -0.8445
27059SOL     OW84068   3.454   3.921   4.764  0.9229 -0.1818 -0.5505
27059SOL    HW184069   3.475   3.843   4.815 -1.3205 -0.3155  0.3120
27059SOL    HW284070   3.390   3.891   4.700  2.8107  0.2417 -2.7541
27060SOL     OW84071   0.361   2.140   8.717  0.5696  0.2698 -0.2514
27060SOL    HW184072   0.424   2.196   8.762  0.9164 -0.1757 -0.1709
27060SOL    HW284073   0.311   2.200   8.661 -0.8173  1.0655  1.7363
27061SOL     OW84074   3.055   8.781   6.783 -0.4402  0.4467  0.0784
27061SOL    HW184075   3.149   8.766   6.793 -0.1890  1.0243 -1.1839
27061SOL    HW284076   3.046   8.818   6.695 -1.7404  1.3805  0.5758
27062SOL     OW84077   6.365   9.640   4.957  0.1717 -0.1075  0.1959
27062SOL    HW184078   6.409   9.722   4.937 -1.2798  0.7086  0.2063
27062SOL    HW284079   6.286   9.666   5.005 -0.2023 -1.5262  0.3996
27063SOL     OW84080   0.619   2.105   2.269 -0.8559  0.2861  0.1196
27063SOL    HW184081   0.705   2.121   2.309 -0.3713  0.6204 -1.0345
27063SOL    HW284082   0.559   2.102   2.344  0.3897 -1.7851  1.1460
27064SOL     OW84083   4.753   4.097   6.141  0.0121 -0.3798  0.0151
27064SOL    HW184084   4.800   4.151   6.078 -0.8074  1.3446  0.8024
27064SOL    HW284085   4.815   4.086   6.213 -0.3144  0.8774  0.5258
27065SOL     OW84086   5.572   6.994   3.344  0.0412 -0.7451  0.4226
27065SOL    HW184087   5.643   7.035   3.393 -1.5097  1.9252  0.6404
27065SOL    HW284088   5.498   6.992   3.405 -1.2343  0.4206 -0.9796
27066SOL     OW84089   5.381   0.419   2.666  0.4672  0.5079  0.5953
27066SOL    HW184090   5.347   0.377   2.746  1.7688 -0.3688  0.7188
27066SOL    HW284091   5.425   0.348   2.619 -0.3877  0.9879 -0.9929
27067SOL     OW84092   8.716   7.953   5.716 -0.5462  0.2587 -0.4226
27067SOL    HW184093   8.693   7.875   5.765  0.2803 -0.1638 -0.6736
27067SOL    HW284094   8.718   7.924   5.624  0.6658  0.3283 -0.4362
27068SOL     OW84095   7.755   8.269   5.725  0.3587  0.3845 -0.0821
27068SOL    HW184096   7.737   8.175   5.730 -0.2526  0.5382  0.7565
27068SOL    HW284097   7.820   8.277   5.655  0.2949 -0.6413 -0.2772
27069SOL     OW84098   7.900   7.036   6.232 -0.6401 -0.2987 -0.0650
27069SOL    HW184099   7.813   6.997   6.238 -0.5689 -0.3512  0.6346
27069SOL    HW284100   7.894   7.118   6.281 -0.9040  0.8252 -1.8594
27070SOL     OW84101   2.333   0.486   4.597  0.0816  0.3393  0.2915
27070SOL    HW184102   2.406   0.464   4.655  0.8934  1.0016 -0.4439
27070SOL    HW284103   2.257   0.443   4.636  0.8070 -0.1107  1.2451
27071SOL     OW84104   0.604   0.575   3.877 -0.2746  0.4604 -0.5004
27071SOL    HW184105   0.692   0.596   3.909 -0.6778 -0.6462  1.5995
27071SOL    HW284106   0.603   0.602   3.786  2.5721 -0.3685 -0.8687
27072SOL     OW84107   3.667   9.146   6.857 -0.0433 -0.3845  0.1756
27072SOL    HW184108   3.731   9.106   6.916  0.1516  2.0008  1.7346
27072SOL    HW284109   3.589   9.160   6.911 -1.0862 -1.1510 -1.0726
27073SOL     OW84110   3.550   2.101   7.822  0.4102  0.5241  0.3830
27073SOL    HW184111   3.561   2.079   7.729 -0.4278 -0.0870  0.4191
27073SOL    HW284112   3.580   2.023   7.869 -0.7881  0.1555  0.5640
27074SOL     OW84113   1.033   3.366   9.095  0.4424 -0.0861 -0.4907
27074SOL    HW184114   1.011   3.350   9.003  1.5407 -1.2560 -0.5845
27074SOL    HW284115   0.974   3.310   9.144  0.3736 -0.0509 -0.5345
27075SOL     OW84116   0.336   4.586   7.562  0.1890 -0.2123  0.3746
27075SOL    HW184117   0.371   4.675   7.570  0.4284 -0.3263  0.6541
27075SOL    HW284118   0.325   4.572   7.468  2.0843 -0.6093  0.1562
27076SOL     OW84119   2.094   8.419   0.378 -0.0052  0.2839 -0.5906
27076SOL    HW184120   2.085   8.424   0.473  3.1498 -0.0862 -0.1826
27076SOL    HW284121   2.188   8.421   0.362 -0.3950 -0.5120 -3.6890
27077SOL     OW84122   0.138   4.162   2.053 -0.0044  0.5247  0.2656
27077SOL    HW184123   0.050   4.172   2.090 -0.2422  0.8554 -0.3618
27077SOL    HW284124   0.160   4.070   2.066 -1.1706  0.0212 -1.1306
27078SOL     OW84125   2.796   3.324   3.986  0.1415 -0.4675 -0.3993
27078SOL    HW184126   2.838   3.255   4.038  2.4390  2.4573  2.0286
27078SOL    HW284127   2.859   3.343   3.917 -1.3871 -2.0132 -2.3296
27079SOL     OW84128   9.490   2.360   5.248  0.4096 -0.2093  0.6225
27079SOL    HW184129   9.566   2.405   5.213  0.5273  0.5950  1.8681
27079SOL    HW284130   9.472   2.290   5.184  1.0583  0.7205 -0.6217
27080SOL     OW84131   9.492   6.916   8.079  0.5974  0.0261 -0.1891
27080SOL    HW184132   9.491   6.889   8.171 -1.7253 -0.9541 -0.4389
27080SOL    HW284133   9.541   6.998   8.079 -0.0888  0.5025  2.0764
27081SOL     OW84134   4.732   2.362   8.474 -0.3787  0.0280  0.7064
27081SOL    HW184135   4.660   2.336   8.417 -0.5464  0.3222  0.7798
27081SOL    HW284136   4.722   2.457   8.483 -1.7893 -0.2537  3.1045
27082SOL     OW84137   4.257   8.899   7.586  0.0253 -0.6421 -0.8080
27082SOL    HW184138   4.196   8.973   7.586  1.0946  0.3006  0.1442
27082SOL    HW284139   4.261   8.872   7.678 -1.3912 -2.8329 -1.3319
27083SOL     OW84140   4.749   1.417   1.805 -0.0931 -0.7468 -0.6660
27083SOL    HW184141   4.730   1.357   1.732 -0.6025  0.1804 -1.3169
27083SOL    HW284142   4.691   1.491   1.790 -0.1301 -0.4927  0.6435
27084SOL     OW84143   5.687   4.539   5.638  0.2100  0.2938  0.5766
27084SOL    HW184144   5.743   4.607   5.601 -0.7149  0.6305 -0.2551
27084SOL    HW284145   5.614   4.532   5.577 -0.6198 -0.1897  1.5890
27085SOL     OW84146   9.588   3.188   3.917 -0.5868 -0.0565 -0.2617
27085SOL    HW184147   9.622   3.217   4.002 -0.6532 -1.3984  0.2378
27085SOL    HW284148   9.506   3.236   3.906 -0.5804  0.1210  0.4323
27086SOL     OW84149   2.474   1.221   6.439 -0.3132 -0.1229  0.2183
27086SOL    HW184150   2.501   1.253   6.525 -2.9752  0.1679  1.0327
27086SOL    HW284151   2.479   1.298   6.382  0.1715  0.0081  0.4369
27087SOL     OW84152   5.605   3.251   7.154 -0.2690  0.1419  0.4477
27087SOL    HW184153   5.576   3.159   7.154 -0.1775  0.0550  2.7771
27087SOL    HW284154   5.700   3.246   7.160 -0.3510  0.2857  3.0494
27088SOL     OW84155   6.143   7.618   8.328  0.0072 -0.1405 -0.8516
27088SOL    HW184156   6.168   7.680   8.396 -0.2839  0.2033 -1.0556
27088SOL    HW284157   6.084   7.667   8.271  1.7194  0.1785 -2.4428
27089SOL     OW84158   5.361   4.674   4.568 -0.1545  0.1264 -0.0752
27089SOL    HW184159   5.370   4.668   4.472 -0.6174 -0.1711 -0.1012
27089SOL    HW284160   5.304   4.750   4.582  0.4715  0.5914 -0.0035
27090SOL     OW84161   5.396   1.202   5.587  0.3796 -0.4025  0.4898
27090SOL    HW184162   5.396   1.156   5.671  0.3370  0.3762  0.9309
27090SOL    HW284163   5.303   1.212   5.565  0.3862 -0.4630  0.4372
27091SOL     OW84164   9.533   6.189   3.298 -0.1994  0.3863  0.5536
27091SOL    HW184165   9.585   6.228   3.367  1.2992 -1.0365  0.2810
27091SOL    HW284166   9.505   6.263   3.244  1.3492  1.2195  0.8403
27092SOL     OW84167   0.670   4.588   7.163  0.0096 -0.1626  0.6479
27092SOL    HW184168   0.646   4.645   7.236  1.1619  0.2147  0.7493
27092SOL    HW284169   0.662   4.644   7.085  1.2259  0.1782  0.7569
27093SOL     OW84170   7.025   8.594   3.700 -0.2013 -0.3314 -0.1383
27093SOL    HW184171   6.963   8.664   3.678  0.0954  0.6070  1.8075
27093SOL    HW284172   7.110   8.628   3.671 -0.3601 -0.9549 -1.3943
27094SOL     OW84173   4.345   2.666   1.081 -0.3722 -0.1944  0.2073
27094SOL    HW184174   4.406   2.739   1.093 -0.4304 -0.0409 -0.4038
27094SOL    HW284175   4.346   2.649   0.987 -0.4137 -0.9367  0.3354
27095SOL     OW84176   8.118   1.839   3.691  0.1775  0.7622  0.1192
27095SOL    HW184177   8.114   1.833   3.786  1.2753  1.4044  0.2241
27095SOL    HW284178   8.183   1.908   3.674  2.2362 -1.3362 -1.1149
27096SOL     OW84179   3.143   1.828   6.264 -0.3494 -0.0065  0.0577
27096SOL    HW184180   3.133   1.832   6.169 -2.3508 -0.0469  0.2318
27096SOL    HW284181   3.154   1.734   6.283  0.1411  0.0098 -0.1289
27097SOL     OW84182   3.810   7.095   9.146 -0.0519 -0.1579  0.0574
27097SOL    HW184183   3.897   7.055   9.150 -0.0935 -0.1737  0.9375
27097SOL    HW284184   3.781   7.101   9.237  0.0389  2.0651  0.0131
27098SOL     OW84185   6.197   0.401   4.374  0.0145 -0.2594 -0.1644
27098SOL    HW184186   6.168   0.319   4.413 -3.2379  0.3300 -1.0632
27098SOL    HW284187   6.216   0.458   4.448  2.8715 -1.8659  0.4822
27099SOL     OW84188   8.437   0.033   4.674 -0.4705 -0.8733 -0.1612
27099SOL    HW184189   8.407   0.094   4.742 -0.9540 -2.1440  0.8123
27099SOL    HW284190   8.380  -0.043   4.683 -0.4988 -1.1149 -1.9776
27100SOL     OW84191   1.525   5.949   4.234  0.5559 -0.7306 -0.0522
27100SOL    HW184192   1.436   5.945   4.198 -0.6958  4.3092  1.6950
27100SOL    HW284193   1.515   5.916   4.324  1.1568 -2.5823 -0.6163
27101SOL     OW84194   3.384   2.309   8.994 -0.4316 -0.3454 -0.0767
27101SOL    HW184195   3.320   2.331   9.062  0.5308 -2.9466  1.8355
27101SOL    HW284196   3.346   2.345   8.914 -1.7800  2.6193  1.7132
27102SOL     OW84197   3.670   8.810   0.679 -0.3827 -0.2677 -0.0163
27102SOL    HW184198   3.687   8.821   0.585 -1.0921  0.1486 -0.0977
27102SOL    HW284199   3.604   8.741   0.683 -0.1936 -0.4384  0.1955
27103SOL     OW84200   6.423   3.671   5.768 -0.5446  0.1047 -0.2857
27103SOL    HW184201   6.375   3.624   5.836 -0.8922  1.3463  0.3527
27103SOL    HW284202   6.506   3.695   5.809 -0.2691 -0.1421 -0.6852
27104SOL     OW84203   7.547   6.965   8.261 -0.0533  0.1601 -0.1314
27104SOL    HW184204   7.622   6.934   8.211  1.3533  0.4102  1.6806
27104SOL    HW284205   7.505   6.886   8.294  0.3508  0.0327  0.0926
27105SOL     OW84206   3.170   5.394   7.425 -0.1234  0.3401 -0.7451
27105SOL    HW184207   3.079   5.402   7.399 -0.5664 -1.1666  0.2073
27105SOL    HW284208   3.175   5.437   7.510 -0.0923 -0.1097 -0.5162
27106SOL     OW84209   7.181   3.407   0.717 -0.1725 -0.3155 -0.2033
27106SOL    HW184210   7.154   3.492   0.685 -2.3717 -1.5723 -1.9494
27106SOL    HW284211   7.104   3.373   0.763  1.1937 -0.7465  1.9170
27107SOL     OW84212   7.516   0.304   8.425  0.4563  0.1501 -0.2233
27107SOL    HW184213   7.456   0.349   8.365  1.0985 -0.2882 -1.2374
27107SOL    HW284214   7.583   0.369   8.445 -1.2793  1.2811  2.4468
27108SOL     OW84215   5.503   6.987   4.162  0.2948 -0.4642  0.0130
27108SOL    HW184216   5.509   6.946   4.076 -1.5742  0.0011 -0.3733
27108SOL    HW284217   5.534   6.921   4.223  1.7709 -0.7588 -0.9988
27109SOL     OW84218   5.724   8.660   8.019 -0.3748  0.2834 -0.0415
27109SOL    HW184219   5.784   8.654   7.945 -0.4957 -2.5538 -0.0211
27109SOL    HW284220   5.776   8.701   8.089  1.4187 -1.5953 -0.1899
27110SOL     OW84221   1.409   1.130   0.762  0.0355 -0.0137  0.0865
27110SOL    HW184222   1.490   1.109   0.716  0.3211  0.8997  0.1475
27110SOL    HW284223   1.408   1.070   0.837  0.0328 -0.8690 -0.5784
27111SOL     OW84224   6.303   7.611   5.549  0.6304 -0.0232  0.1872
27111SOL    HW184225   6.207   7.615   5.547  0.6333  0.0305  0.1430
27111SOL    HW284226   6.325   7.534   5.497  0.5702 -0.6905  1.1236
27112SOL     OW84227   6.294   2.349   8.452 -0.7507  0.1914  0.1774
27112SOL    HW184228   6.231   2.337   8.523 -0.7051 -1.6634 -0.0335
27112SOL    HW284229   6.257   2.300   8.378  0.2487  0.2738 -0.3994
27113SOL     OW84230   5.633   7.529   6.779 -0.0394 -0.6041 -0.1180
27113SOL    HW184231   5.609   7.590   6.848 -3.3485 -0.7942 -0.9187
27113SOL    HW284232   5.664   7.584   6.707  0.5848 -0.1858  0.4649
27114SOL     OW84233   2.358   2.519   4.828  0.2024 -0.0402 -0.3476
27114SOL    HW184234   2.310   2.464   4.890  2.5734  0.2125  1.8844
27114SOL    HW284235   2.311   2.602   4.828 -0.2076 -0.2498  0.6702
27115SOL     OW84236   6.958   0.662   6.919 -0.2843  0.0863 -0.1053
27115SOL    HW184237   6.936   0.587   6.974 -2.1092  1.8350  1.7200
27115SOL    HW284238   7.029   0.706   6.967 -0.0395  0.1621 -0.5376
27116SOL     OW84239   1.917   2.242   6.790 -0.3734  0.5361  0.1745
27116SOL    HW184240   1.827   2.256   6.761 -0.0686  2.9857  0.1264
27116SOL    HW284241   1.942   2.326   6.829  2.2888  0.3947 -0.9947
27117SOL     OW84242   0.587   0.730   3.653 -0.1251  0.2118 -0.2605
27117SOL    HW184243   0.657   0.795   3.657  0.3450 -0.3505  1.8088
27117SOL    HW284244   0.513   0.777   3.613  0.6047  1.6117 -0.0244
27118SOL     OW84245   5.017   8.049   8.276  0.3837  0.5780 -0.5466
27118SOL    HW184246   5.005   7.963   8.316 -0.0231  0.6781 -0.4462
27118SOL    HW284247   5.101   8.043   8.230  1.4735  0.8211  1.2997
27119SOL     OW84248   6.994   1.351   8.978  0.3442 -0.2115 -0.5025
27119SOL    HW184249   7.051   1.275   8.964  2.6165  1.5299 -1.1680
27119SOL    HW284250   7.012   1.409   8.904 -1.6155  0.8588 -0.2118
27120SOL     OW84251   6.173   0.791   9.486 -0.0733 -0.2186  0.1240
27120SOL    HW184252   6.252   0.769   9.437  0.4172  0.7046  0.4866
27120SOL    HW284253   6.174   0.732   9.562  0.5585  0.1530  0.4115
27121SOL     OW84254   3.060   6.701   6.069 -0.2646 -0.1126  0.1198
27121SOL    HW184255   2.983   6.675   6.119 -0.6741 -1.1949 -1.0267
27121SOL    HW284256   3.033   6.779   6.020 -0.0199  0.6425  1.1529
27122SOL     OW84257   7.496   2.275   6.669  0.1077 -0.2004  0.1263
27122SOL    HW184258   7.440   2.260   6.593 -1.8273  1.7429  1.0472
27122SOL    HW284259   7.480   2.200   6.727 -0.2548 -0.4996 -0.3576
27123SOL     OW84260   1.320   2.301   1.796  0.0882 -0.6393 -0.3752
27123SOL    HW184261   1.374   2.240   1.746  1.6172  1.0448 -0.9063
27123SOL    HW284262   1.381   2.341   1.858 -0.8196  0.4286 -0.1456
27124SOL     OW84263   8.098   3.976   9.002 -0.6373  0.1602  0.1398
27124SOL    HW184264   8.119   3.970   8.909 -1.7560 -0.9265 -0.0620
27124SOL    HW284265   8.064   4.065   9.014  0.1607  0.5445 -0.3287
27125SOL     OW84266   9.182   7.981   1.119  0.2312  0.4342  0.3521
27125SOL    HW184267   9.202   7.913   1.184  0.5951  0.3196  0.1253
27125SOL    HW284268   9.107   8.028   1.155 -2.3184 -2.2191 -0.9720
27126SOL     OW84269   6.701   2.017   7.981 -0.1552 -0.7688 -0.4566
27126SOL    HW184270   6.637   2.079   7.946 -0.1073 -0.7272 -0.4704
27126SOL    HW284271   6.764   2.005   7.910 -0.0518 -0.6754 -0.3809
27127SOL     OW84272   0.050   5.463   0.502 -0.5434 -0.3894 -0.1771
27127SOL    HW184273   0.142   5.443   0.489 -0.1398  0.8978  0.5385
27127SOL    HW284274   0.003   5.394   0.454  0.7800 -0.6731 -1.1065
27128SOL     OW84275   5.479   7.519   6.156  0.0392 -0.6009  0.4113
27128SOL    HW184276   5.415   7.585   6.180  0.2436 -0.1173 -0.3571
27128SOL    HW284277   5.559   7.568   6.137  0.1087 -1.0406 -0.4712
27129SOL     OW84278   5.125   8.430   6.460 -0.4456 -0.6320  0.2150
27129SOL    HW184279   5.052   8.378   6.494 -1.6179  0.9504  0.2025
27129SOL    HW284280   5.084   8.495   6.403  0.7741  1.3858  1.5106
27130SOL     OW84281   1.749   9.154   2.391  0.3651 -0.1219  0.2296
27130SOL    HW184282   1.843   9.151   2.373  0.5266 -0.8766  1.1211
27130SOL    HW284283   1.726   9.064   2.414 -1.5052 -1.0892 -4.2677
27131SOL     OW84284   8.270   1.136   3.991  0.7540  0.2123  0.0244
27131SOL    HW184285   8.342   1.122   4.053  1.4654  0.4258 -0.7339
27131SOL    HW284286   8.297   1.090   3.912  0.6119  1.2793 -0.6720
27132SOL     OW84287   0.450   4.806   1.025 -0.0384  0.3431  0.2239
27132SOL    HW184288   0.400   4.840   0.951 -0.9327  0.9006  1.0484
27132SOL    HW284289   0.452   4.879   1.087  3.5714  1.0734 -0.5471
27133SOL     OW84290   6.100   5.585   9.151 -0.1315 -0.2158  0.5981
27133SOL    HW184291   6.074   5.498   9.120  1.1593 -0.4728  0.1502
27133SOL    HW284292   6.116   5.636   9.072 -0.4009  0.2779  0.8558
27134SOL     OW84293   3.228   2.147   3.566  0.6270 -0.3206  0.2819
27134SOL    HW184294   3.304   2.091   3.558  0.1765 -0.8767 -0.1619
27134SOL    HW284295   3.154   2.092   3.540  0.3340  0.9314 -1.7398
27135SOL     OW84296   1.340   8.068   9.351 -0.2049 -0.1717  0.0557
27135SOL    HW184297   1.257   8.088   9.393  0.7777  2.0836  1.0620
27135SOL    HW284298   1.316   8.010   9.278 -2.4856 -0.5011  0.9759
27136SOL     OW84299   2.097   2.910   1.587  0.1806 -0.3323  0.3748
27136SOL    HW184300   2.059   2.973   1.648  1.6394  0.1935  0.7894
27136SOL    HW284301   2.024   2.853   1.563 -1.5123  2.2287 -1.0056
27137SOL     OW84302   8.792   5.649   7.397  0.3179  0.1730  0.1523
27137SOL    HW184303   8.725   5.643   7.466 -0.8864  1.4028 -0.8642
27137SOL    HW284304   8.796   5.561   7.361  0.3228 -0.2769  1.1969
27138SOL     OW84305   8.202   9.432   3.878 -0.1498 -0.6458 -0.5087
27138SOL    HW184306   8.291   9.458   3.900 -0.3537 -0.8960  0.6766
27138SOL    HW284307   8.197   9.441   3.783  1.6541 -2.2081 -0.8108
27139SOL     OW84308   7.838   6.031   0.696 -0.5826 -0.2725  0.0693
27139SOL    HW184309   7.776   6.097   0.662 -1.2674 -0.4290  0.9910
27139SOL    HW284310   7.918   6.081   0.713 -0.9251  0.2253  0.2601
27140SOL     OW84311   8.814   1.756   0.714 -0.2771  0.2637  0.0951
27140SOL    HW184312   8.802   1.674   0.666 -0.6603 -1.3719  2.7610
27140SOL    HW284313   8.905   1.780   0.698  0.2933 -1.5380  0.4312
27141SOL     OW84314   0.579   6.696   1.263  0.4032  0.4241  0.0435
27141SOL    HW184315   0.484   6.705   1.258 -0.2883 -3.4296  2.1458
27141SOL    HW284316   0.604   6.745   1.341 -0.0187  0.4754  0.1472
27142SOL     OW84317   2.037   4.584   7.349  0.0080  0.3811  0.2365
27142SOL    HW184318   1.948   4.549   7.347 -0.3523  1.3152 -0.5970
27142SOL    HW284319   2.089   4.518   7.303 -0.3851  0.1668  0.0919
27143SOL     OW84320   0.916   2.871   8.726  0.2625  0.4833  0.6796
27143SOL    HW184321   0.904   2.778   8.705  2.9102  0.4190 -1.0681
27143SOL    HW284322   0.910   2.915   8.641  2.0188  1.4842  1.0266
27144SOL     OW84323   5.939   0.384   1.416  0.4351 -0.2316 -0.4130
27144SOL    HW184324   5.850   0.384   1.451  0.4893  1.1652 -0.2275
27144SOL    HW284325   5.995   0.398   1.492  0.7554 -0.1861 -0.6557
27145SOL     OW84326   5.733   2.035   0.496 -0.3766  0.3945  0.0691
27145SOL    HW184327   5.678   2.110   0.518 -0.0350  0.6356  0.1132
27145SOL    HW284328   5.714   2.017   0.404  0.0082  0.9467 -0.1271
27146SOL     OW84329   3.513   5.318   0.640  0.2627  0.5599 -0.5555
27146SOL    HW184330   3.446   5.330   0.572  1.5574  0.5062 -1.8835
27146SOL    HW284331   3.563   5.399   0.640  0.2463  0.5870  0.4026
27147SOL     OW84332   9.085   5.924   9.117  0.2914  0.0768  0.2150
27147SOL    HW184333   9.108   5.836   9.088 -0.7163  0.3286 -1.5056
27147SOL    HW284334   9.109   5.981   9.044  1.5777  1.3780  1.5618
27148SOL     OW84335   8.794   4.155   5.658  0.0069 -0.4582 -0.2041
27148SOL    HW184336   8.804   4.248   5.639 -1.5462 -0.3602 -0.6775
27148SOL    HW284337   8.865   4.113   5.610  0.2059  0.4089 -0.6900
27149SOL     OW84338   6.035   3.819   6.985 -0.1479  0.0041  0.4598
27149SOL    HW184339   6.118   3.854   6.955 -0.6128  1.1080  0.4386
27149SOL    HW284340   6.017   3.866   7.067 -0.7553 -0.2177  0.4567
27150SOL     OW84341   2.384   1.687   2.619  0.1512 -0.0746 -0.0097
27150SOL    HW184342   2.424   1.752   2.561 -0.0276 -0.2946 -0.3874
27150SOL    HW284343   2.401   1.603   2.575  0.8028 -0.3320  0.7148
27151SOL     OW84344   5.681   7.186   5.080  0.6778 -0.2475 -0.2302
27151SOL    HW184345   5.594   7.151   5.059  0.8712 -1.1133  0.3674
27151SOL    HW284346   5.663   7.257   5.142  0.4230 -0.9021  0.4725
27152SOL     OW84347   8.365   3.679   5.871  0.8967 -0.3193 -0.3062
27152SOL    HW184348   8.346   3.590   5.902 -0.4870  0.3657  0.9249
27152SOL    HW284349   8.458   3.691   5.889  1.1219 -1.5085 -0.5302
27153SOL     OW84350   7.429   2.210   7.846  0.5518  0.9161 -0.1372
27153SOL    HW184351   7.382   2.167   7.917 -0.7978 -0.8418 -1.9943
27153SOL    HW284352   7.495   2.146   7.819 -0.5560  0.4932 -2.0127
27154SOL     OW84353   1.574   7.355   1.811  0.1639 -0.7091 -0.5197
27154SOL    HW184354   1.488   7.375   1.774  0.5763 -1.1431 -1.7858
27154SOL    HW284355   1.635   7.378   1.741  1.4550  3.0961  1.5771
27155SOL     OW84356   2.048   0.431   9.209  0.6896 -1.3133 -0.2626
27155SOL    HW184357   2.065   0.341   9.234  1.5695 -0.5218  2.3111
27155SOL    HW284358   1.989   0.465   9.276 -0.3166 -0.1624 -1.6337
27156SOL     OW84359   8.928   5.009   3.102  0.6824  0.2283  0.2927
27156SOL    HW184360   8.834   5.014   3.085  0.5071  0.6352  1.2618
27156SOL    HW284361   8.965   4.972   3.023  0.0566  2.6363 -1.2616
27157SOL     OW84362   4.847   5.266   1.526  0.2914 -0.1672 -0.3494
27157SOL    HW184363   4.803   5.346   1.556 -0.6539 -0.5726 -0.6206
27157SOL    HW284364   4.911   5.297   1.462  0.6869  0.4730  0.3295
27158SOL     OW84365   2.219   8.152   8.348  0.0018 -0.1043  0.1033
27158SOL    HW184366   2.243   8.129   8.438 -1.1833 -0.7530  0.2838
27158SOL    HW284367   2.159   8.082   8.321  1.9954 -1.1215 -2.0031
27159SOL     OW84368   8.471   2.662   4.889  0.1123  0.0848  0.1873
27159SOL    HW184369   8.467   2.706   4.803  0.5532 -1.0124 -0.4151
27159SOL    HW284370   8.535   2.713   4.938 -1.9233  2.2340  0.7985
27160SOL     OW84371   4.736   8.388   9.391  0.0289 -0.1488 -0.1290
27160SOL    HW184372   4.753   8.356   9.479  0.1880  1.3151  0.4023
27160SOL    HW284373   4.822   8.416   9.359 -0.2840  0.9498 -0.0560
27161SOL     OW84374   0.672   4.529   5.514 -0.2617  0.2748  0.8574
27161SOL    HW184375   0.593   4.513   5.463 -0.4123  0.6791  0.9615
27161SOL    HW284376   0.653   4.609   5.563 -1.1992 -1.5317  3.6844
27162SOL     OW84377   3.159   6.026   5.565  0.3571 -0.0074  0.5780
27162SOL    HW184378   3.229   6.088   5.548  0.6790 -0.8783 -1.5510
27162SOL    HW284379   3.081   6.081   5.575  0.6724  0.8005 -1.0118
27163SOL     OW84380   7.202   2.052   5.630 -0.2175 -0.3607 -0.4905
27163SOL    HW184381   7.204   2.142   5.664 -1.6596 -0.7696  0.8434
27163SOL    HW284382   7.195   2.062   5.535  0.3634  0.9161 -0.4193
27164SOL     OW84383   3.785   1.020   3.466  0.4710 -0.1114  0.8964
27164SOL    HW184384   3.805   1.110   3.443  0.9405  0.0946  2.0305
27164SOL    HW284385   3.744   0.983   3.388 -0.5695  1.3396  0.7180
27165SOL     OW84386   6.559   7.528   8.079  0.4734  0.7040  0.3450
27165SOL    HW184387   6.606   7.456   8.121 -0.2752  0.0082  0.0124
27165SOL    HW284388   6.472   7.526   8.120  0.7049  1.9610  0.9427
27166SOL     OW84389   3.055   0.816   8.957 -0.2185 -0.0404  0.2321
27166SOL    HW184390   3.036   0.751   9.025 -0.2984 -0.2998 -0.0391
27166SOL    HW284391   2.971   0.832   8.914 -0.5339  1.4045  1.3010
27167SOL     OW84392   4.358   1.370   5.555  0.3280  0.2080  0.6470
27167SOL    HW184393   4.405   1.409   5.628  1.2957 -0.6688  0.5105
27167SOL    HW284394   4.356   1.438   5.488  0.7756  0.5042  0.9318
27168SOL     OW84395   1.896   6.772   2.718 -0.0495  0.4186 -0.3308
27168SOL    HW184396   1.932   6.707   2.779 -0.1524  1.0181  0.3794
27168SOL    HW284397   1.956   6.846   2.725 -0.5209  0.8019 -0.3639
27169SOL     OW84398   9.006   4.436   1.654  0.0316 -0.5708  0.0184
27169SOL    HW184399   9.075   4.422   1.719 -0.3131 -0.9722  0.3084
27169SOL    HW284400   8.985   4.529   1.662  1.1953 -0.2331 -0.7505
27170SOL     OW84401   4.809   2.131   0.229 -0.9570 -0.0993 -0.5995
27170SOL    HW184402   4.759   2.054   0.254  0.0697 -1.0315 -1.2991
27170SOL    HW284403   4.899   2.109   0.251 -1.0115  2.5486  3.0714
27171SOL     OW84404   5.211   2.845   7.036  0.5072  0.6786  0.0999
27171SOL    HW184405   5.129   2.797   7.020  2.2789 -2.1770 -1.3184
27171SOL    HW284406   5.208   2.864   7.130 -1.1066 -0.7786  0.4227
27172SOL     OW84407   6.224   5.015   7.669  0.2933  0.4254  0.2860
27172SOL    HW184408   6.224   4.921   7.648  0.2656  0.3433  0.6511
27172SOL    HW284409   6.282   5.054   7.603 -0.8598  0.3626 -0.7898
27173SOL     OW84410   5.703   4.279   9.140  0.5820  0.1615 -0.7726
27173SOL    HW184411   5.663   4.235   9.215  1.4061  0.7546  0.0417
27173SOL    HW284412   5.796   4.255   9.144  1.0159  1.7462 -0.4221
27174SOL     OW84413   3.261   7.244   1.244  0.0074 -0.1190 -0.0548
27174SOL    HW184414   3.248   7.154   1.272  0.7424  0.3562  1.9269
27174SOL    HW284415   3.326   7.238   1.174 -0.6268 -1.1769 -0.5899
27175SOL     OW84416   1.876   5.609   8.930  0.2049  0.6186 -0.2467
27175SOL    HW184417   1.827   5.628   9.010  0.5446 -0.1432  0.1551
27175SOL    HW284418   1.835   5.530   8.895 -1.7524  2.4376 -2.3615
27176SOL     OW84419   8.764   6.133   2.523  0.3828  0.6230  0.6444
27176SOL    HW184420   8.706   6.200   2.487  2.0655  2.0238  0.3670
27176SOL    HW284421   8.761   6.147   2.618 -1.6676 -1.0346  0.8920
27177SOL     OW84422   9.240   0.426   9.417 -0.1714  0.2408 -0.2163
27177SOL    HW184423   9.251   0.340   9.376 -0.9528  0.2602 -0.4758
27177SOL    HW284424   9.153   0.455   9.391  0.1125  1.1608 -0.2072
27178SOL     OW84425   6.979   5.119   6.226 -0.4625  0.4402  0.0155
27178SOL    HW184426   6.914   5.051   6.238  0.2091 -0.0336  1.1386
27178SOL    HW284427   7.057   5.073   6.195 -0.2676  0.8168 -0.0654
27179SOL     OW84428   2.641   5.823   7.935 -0.3381  0.0675  0.2106
27179SOL    HW184429   2.609   5.748   7.985 -0.4927 -0.3564 -0.5137
27179SOL    HW284430   2.561   5.865   7.902 -0.2687  0.7718  0.9267
27180SOL     OW84431   3.208   7.002   0.313 -0.4286  0.6936 -0.3941
27180SOL    HW184432   3.120   7.022   0.283 -0.4165 -0.1491 -1.0484
27180SOL    HW284433   3.198   6.977   0.404 -0.8682  0.6338 -0.4576
27181SOL     OW84434   6.069   4.535   0.542 -0.3679 -0.4045  0.0639
27181SOL    HW184435   6.099   4.449   0.514 -2.5052 -0.7961 -1.2696
27181SOL    HW284436   6.093   4.593   0.469 -0.7927 -0.2838  0.0182
27182SOL     OW84437   8.789   2.909   4.975 -0.2682  0.1420  0.0659
27182SOL    HW184438   8.876   2.873   4.992  0.6801  1.8832 -0.8679
27182SOL    HW284439   8.785   2.917   4.880  0.3331  4.1473  0.2397
27183SOL     OW84440   4.548   8.450   4.901 -0.1193 -0.5214  0.1743
27183SOL    HW184441   4.583   8.539   4.908  2.2108 -1.3303 -0.0876
27183SOL    HW284442   4.516   8.443   4.810 -1.0866  0.2739  0.4420
27184SOL     OW84443   4.019   1.923   7.709  0.4611 -0.8950 -0.5808
27184SOL    HW184444   3.934   1.881   7.701 -0.0568  0.3798 -3.0983
27184SOL    HW284445   4.002   2.016   7.693  2.2162 -0.4899 -0.4030
27185SOL     OW84446   0.092   6.552   3.758 -0.2037  0.2466  0.5002
27185SOL    HW184447   0.064   6.461   3.760 -1.5917  0.6495  0.9582
27185SOL    HW284448   0.093   6.575   3.665  0.6040 -0.3618  0.3580
27186SOL     OW84449   6.256   9.552   0.008 -0.0402 -0.0576 -0.1967
27186SOL    HW184450   6.170   9.540   0.048 -0.3687  1.4591 -0.4032
27186SOL    HW284451   6.238   9.554  -0.086  0.6466 -2.9451 -0.4891
27187SOL     OW84452   0.620   2.312   7.909 -0.0044  0.1465  0.2409
27187SOL    HW184453   0.574   2.348   7.985 -2.6661  0.6654 -1.4902
27187SOL    HW284454   0.597   2.219   7.909 -0.5183  0.2688 -0.2473
27188SOL     OW84455   3.198   2.464   7.653  0.2715 -0.0772  0.0435
27188SOL    HW184456   3.125   2.517   7.621  0.5879  0.4286  0.1468
27188SOL    HW284457   3.204   2.485   7.746  2.5737  2.4121 -0.5338
27189SOL     OW84458   3.305   0.611   3.652  0.2238  0.1660 -0.3353
27189SOL    HW184459   3.359   0.677   3.696  1.2671 -0.0778 -1.1857
27189SOL    HW284460   3.219   0.618   3.694  0.3194  2.0040 -0.3476
27190SOL     OW84461   5.325   5.652   9.268  0.2748  0.1856  0.3048
27190SOL    HW184462   5.378   5.575   9.290  1.3125 -0.2409 -3.0830
27190SOL    HW284463   5.275   5.669   9.347 -0.3950 -4.2862  1.1513
27191SOL     OW84464   1.462   2.782   8.401 -0.1645  0.3060  0.4419
27191SOL    HW184465   1.473   2.735   8.483 -0.0581  0.7216  0.6635
27191SOL    HW284466   1.375   2.821   8.406  0.6580  2.1425  1.2875
27192SOL     OW84467   5.491   0.130   2.986  0.0038 -0.6020  0.0204
27192SOL    HW184468   5.430   0.110   3.056  0.5296  0.6298  0.8709
27192SOL    HW284469   5.437   0.165   2.915 -0.2391  1.6560  1.2177
27193SOL     OW84470   0.108   3.136   6.544 -0.4032 -0.2164 -0.0953
27193SOL    HW184471   0.146   3.053   6.514 -0.3819 -1.0206  2.0021
27193SOL    HW284472   0.157   3.203   6.497  1.2192 -1.3294 -0.0822
27194SOL     OW84473   2.782   5.458   6.156 -0.4825  0.4586 -0.7381
27194SOL    HW184474   2.818   5.461   6.244 -0.3434  0.8071 -0.8041
27194SOL    HW284475   2.853   5.424   6.102 -0.4508  0.5812 -0.7733
27195SOL     OW84476   8.483   0.607   9.343  0.1150 -0.2796 -0.0963
27195SOL    HW184477   8.570   0.567   9.339  0.4799  0.2298  1.9440
27195SOL    HW284478   8.423   0.536   9.321  0.8711 -1.5471  1.6883
27196SOL     OW84479   2.185   3.422   5.848 -0.3477 -0.0835 -0.1890
27196SOL    HW184480   2.228   3.496   5.805 -0.3198 -1.5025 -2.8052
27196SOL    HW284481   2.228   3.345   5.811 -1.8118 -1.4615  0.8487
27197SOL     OW84482   4.701   1.392   4.192 -0.0118  0.1079 -0.6050
27197SOL    HW184483   4.793   1.374   4.211 -0.1601  0.2122  0.2370
27197SOL    HW284484   4.688   1.358   4.103  0.4543 -1.2691 -0.1656
27198SOL     OW84485   4.440   9.184   5.459 -0.7444  0.0126  0.0113
27198SOL    HW184486   4.497   9.245   5.412  0.8672 -1.4018  0.0522
27198SOL    HW284487   4.362   9.177   5.403  0.7727 -0.9945 -2.1314
27199SOL     OW84488   1.640   9.524   5.419  0.2122  0.0677 -0.3821
27199SOL    HW184489   1.664   9.547   5.329  0.5886  1.7725  0.1148
27199SOL    HW284490   1.712   9.559   5.472 -0.2295 -0.5109  0.6290
27200SOL     OW84491   4.838   2.466   9.334  0.3007 -0.2637 -0.1562
27200SOL    HW184492   4.781   2.490   9.407 -1.6197  0.4119 -1.7639
27200SOL    HW284493   4.796   2.390   9.295 -1.2176  1.8510 -3.0253
27201SOL     OW84494   0.235   5.715   0.621  0.6915 -0.4181 -0.3714
27201SOL    HW184495   0.162   5.729   0.560  1.5932 -1.9238 -1.8729
27201SOL    HW284496   0.306   5.769   0.586  0.8308 -0.2745  0.1257
27202SOL     OW84497   3.328   1.696   3.443 -0.2384 -0.0521 -0.1740
27202SOL    HW184498   3.247   1.716   3.491  1.2160 -0.2490  2.6128
27202SOL    HW284499   3.393   1.755   3.481  1.3459 -1.2759 -0.8730
27203SOL     OW84500   0.257   3.884   2.106 -0.4556  0.4107  0.5498
27203SOL    HW184501   0.177   3.844   2.138  0.4025  0.4498  2.9858
27203SOL    HW284502   0.326   3.845   2.160  1.3996 -0.6299 -2.3336
27204SOL     OW84503   6.573   1.055   4.763  0.5096 -0.5025  0.5868
27204SOL    HW184504   6.624   1.118   4.713 -1.2299  0.7017  0.2334
27204SOL    HW284505   6.545   0.990   4.698  1.7731 -1.3358  0.8353
27205SOL     OW84506   1.143   8.556   4.298 -0.2738  0.4254  0.0622
27205SOL    HW184507   1.096   8.615   4.357  0.6897 -0.6078  1.9635
27205SOL    HW284508   1.217   8.608   4.266 -0.1973  0.6758  0.6305
27206SOL     OW84509   0.432   1.263   1.119  0.3699 -0.4754  0.1127
27206SOL    HW184510   0.406   1.320   1.046  0.8383  0.3261  0.5586
27206SOL    HW284511   0.501   1.207   1.083  1.2947  0.5815  0.1811
27207SOL     OW84512   3.766   3.424   2.105  0.2269  0.0734  0.0535
27207SOL    HW184513   3.776   3.515   2.134 -1.2959 -0.1846  1.5889
27207SOL    HW284514   3.708   3.429   2.029 -1.4429  0.2926  1.2896
27208SOL     OW84515   2.358   3.674   0.448  0.0291  0.2487 -0.1447
27208SOL    HW184516   2.340   3.767   0.433  0.1252  0.0098 -1.9348
27208SOL    HW284517   2.376   3.639   0.361  0.3281 -1.3867  0.5469
27209SOL     OW84518   2.942   7.812   0.681  0.2015 -0.2841 -0.1089
27209SOL    HW184519   3.026   7.837   0.645  0.4937 -0.5947  0.3462
27209SOL    HW284520   2.962   7.781   0.769 -0.4072 -0.2052  0.0642
27210SOL     OW84521   2.457   5.131   5.994 -0.2931  0.1639  0.3840
27210SOL    HW184522   2.474   5.198   6.060 -0.3453 -1.0602  1.6951
27210SOL    HW284523   2.522   5.147   5.926 -0.2165  1.4387  0.7271
27211SOL     OW84524   7.100   3.158   7.703 -0.2190 -0.5207  0.0080
27211SOL    HW184525   7.090   3.223   7.773  1.3997  0.8245 -0.9620
27211SOL    HW284526   7.061   3.199   7.626  0.3481 -0.9183 -0.4981
27212SOL     OW84527   4.842   6.369   9.282  0.3818 -0.0908 -0.2338
27212SOL    HW184528   4.844   6.312   9.359  0.8853 -1.5906 -1.2832
27212SOL    HW284529   4.929   6.409   9.279  1.3836 -2.1154 -1.3986
27213SOL     OW84530   8.881   3.096   6.906 -0.3275  0.2037 -0.3649
27213SOL    HW184531   8.926   3.031   6.959 -0.8836 -0.2060 -0.3940
27213SOL    HW284532   8.932   3.101   6.825 -1.5128 -1.8221 -1.2950
27214SOL     OW84533   5.837   1.842   7.616  0.9199  0.0372 -0.6262
27214SOL    HW184534   5.882   1.785   7.679 -0.8189  0.5185  1.1640
27214SOL    HW284535   5.786   1.782   7.562  0.3690 -0.2359  0.1793
27215SOL     OW84536   8.631   0.529   6.260  0.2568 -0.1147 -0.1519
27215SOL    HW184537   8.655   0.597   6.322 -0.1429 -1.2880  1.3456
27215SOL    HW284538   8.541   0.506   6.282 -0.1271 -0.1189 -1.6097
27216SOL     OW84539   4.647   6.926   1.947  0.3533 -0.0920 -0.0949
27216SOL    HW184540   4.655   6.982   2.025 -0.2138  0.0335 -0.1208
27216SOL    HW284541   4.627   6.987   1.876 -0.2433 -0.3180 -0.1285
27217SOL     OW84542   1.245   1.116   6.773 -0.0667  0.2870  0.3686
27217SOL    HW184543   1.230   1.182   6.705  1.0394  0.6427  0.4537
27217SOL    HW284544   1.250   1.167   6.854  1.2820  0.1718  0.3736
27218SOL     OW84545   8.741   1.406   4.182 -0.2174  0.6915 -0.7011
27218SOL    HW184546   8.729   1.342   4.112 -0.1061  1.8916 -1.8788
27218SOL    HW284547   8.787   1.359   4.251  0.1287 -0.4025 -1.6468
27219SOL     OW84548   1.812   4.841   8.787 -0.1022  0.0965 -0.0158
27219SOL    HW184549   1.905   4.828   8.808 -0.3948 -2.1634  0.1367
27219SOL    HW284550   1.779   4.895   8.859  0.4764 -1.6121  1.6056
27220SOL     OW84551   1.975   8.915   8.145 -0.4997  0.4587  0.2761
27220SOL    HW184552   1.946   8.838   8.098 -0.4118  1.9670 -2.4433
27220SOL    HW284553   1.903   8.935   8.205 -1.9069  0.0183 -1.1990
27221SOL     OW84554   9.601   7.242   4.147 -0.3821 -0.3646  0.0141
27221SOL    HW184555   9.593   7.172   4.083 -0.0847  0.7282 -1.2587
27221SOL    HW284556   9.655   7.205   4.217  0.3283 -1.1900 -0.9464
27222SOL     OW84557   6.627   1.668   4.266 -0.1608  0.5255 -0.4270
27222SOL    HW184558   6.693   1.635   4.327 -1.5658 -1.7982 -0.0630
27222SOL    HW284559   6.564   1.715   4.321 -0.1575  0.5208 -0.4190
27223SOL     OW84560   9.564   1.594   5.029 -0.2861 -0.0276  0.3275
27223SOL    HW184561   9.556   1.504   4.999  1.0497 -0.1892  0.3896
27223SOL    HW284562   9.523   1.595   5.115  0.6438 -0.8439  0.7952
27224SOL     OW84563   7.005   1.342   2.871  0.6627 -0.3516  0.6733
27224SOL    HW184564   6.936   1.408   2.879 -0.0039 -1.2244  2.6369
27224SOL    HW284565   7.076   1.374   2.926  1.2964 -0.1518 -0.2296
27225SOL     OW84566   0.997   9.092   0.296 -0.2982 -0.2620 -0.2158
27225SOL    HW184567   1.070   9.114   0.353 -1.7214  0.2158  1.5383
27225SOL    HW284568   1.035   9.039   0.226  1.5674 -0.6937  1.0545
27226SOL     OW84569   0.322   8.480   5.570 -0.0466  0.0153  0.0443
27226SOL    HW184570   0.295   8.511   5.657  0.4718  1.6145 -0.3214
27226SOL    HW284571   0.304   8.386   5.571 -0.2960  0.0455  1.7852
27227SOL     OW84572   1.159   4.252   0.195 -0.2524 -0.8931 -0.0590
27227SOL    HW184573   1.206   4.327   0.231 -0.2715 -1.6106  1.5863
27227SOL    HW284574   1.211   4.224   0.120  0.3375  0.1037 -0.0411
27228SOL     OW84575   4.631   6.232   3.540  0.3889 -0.1847 -0.0454
27228SOL    HW184576   4.637   6.327   3.552 -1.7480  0.0006 -0.0572
27228SOL    HW284577   4.675   6.217   3.456 -0.0874  0.9618 -0.5392
27229SOL     OW84578   6.980   8.338   0.505  0.3636 -0.6663 -0.7242
27229SOL    HW184579   7.021   8.267   0.555 -0.5942  0.0343  1.1294
27229SOL    HW284580   7.053   8.396   0.482  0.9879 -1.6230 -1.2640
27230SOL     OW84581   3.875   6.633   3.678 -0.2278  0.4513  0.4931
27230SOL    HW184582   3.953   6.613   3.628 -0.9669 -1.1804 -0.0700
27230SOL    HW284583   3.803   6.626   3.615 -1.0684 -0.6047  1.5189
27231SOL     OW84584   0.169   3.871   8.949  0.4189 -0.1307  0.4228
27231SOL    HW184585   0.158   3.876   8.854  0.5585 -0.6447  0.3763
27231SOL    HW284586   0.144   3.781   8.971 -0.5342  0.2633  1.0040
27232SOL     OW84587   8.885   2.079   3.858 -0.4604  0.7374 -1.6406
27232SOL    HW184588   8.856   2.002   3.906 -0.5651  1.6621 -0.1601
27232SOL    HW284589   8.897   2.048   3.768 -0.5029 -0.9878 -1.0908
27233SOL     OW84590   3.373   4.593   4.361 -0.1985  0.5802  0.5396
27233SOL    HW184591   3.398   4.594   4.269  0.2582 -2.6317  0.5140
27233SOL    HW284592   3.435   4.651   4.405  0.7172  0.7268 -0.9240
27234SOL     OW84593   2.604   4.080   4.616 -0.1070 -0.7210 -0.1971
27234SOL    HW184594   2.692   4.113   4.635  0.0679 -2.5936  2.8607
27234SOL    HW284595   2.549   4.118   4.685 -1.4604 -0.5891 -1.3133
27235SOL     OW84596   2.288   8.812   1.482  0.2367  0.2592  0.3633
27235SOL    HW184597   2.225   8.792   1.552 -0.1015 -0.1658 -0.0559
27235SOL    HW284598   2.332   8.891   1.512  1.4681 -0.9636  1.9907
27236SOL     OW84599   9.477   0.112   0.067 -0.3960 -0.1420 -0.2376
27236SOL    HW184600   9.548   0.099   0.130 -0.1517 -3.9868 -1.0164
27236SOL    HW284601   9.507   0.183   0.011  1.5954  0.1509  1.0960
27237SOL     OW84602   1.189   0.784   8.123  0.1230 -0.0015  0.4038
27237SOL    HW184603   1.223   0.838   8.052  0.0892  0.7423  0.9498
27237SOL    HW284604   1.265   0.734   8.153 -0.0575 -1.0181 -0.7570
27238SOL     OW84605   8.887   5.191   0.939 -0.3493  0.2071  0.0405
27238SOL    HW184606   8.811   5.199   0.996 -1.0945  0.9924 -1.0283
27238SOL    HW284607   8.882   5.102   0.904 -0.0938 -0.1512  0.8909
27239SOL     OW84608   4.810   7.909   1.868 -0.1823  0.3500 -0.0155
27239SOL    HW184609   4.838   7.899   1.959  2.6158 -0.8549 -0.9185
27239SOL    HW284610   4.885   7.880   1.816 -0.6189  3.5778 -2.7738
27240SOL     OW84611   5.360   6.256   6.983 -0.3976 -0.4742  0.9944
27240SOL    HW184612   5.452   6.228   6.990  0.2180  1.2727  0.5022
27240SOL    HW284613   5.334   6.232   6.894 -0.3202 -0.6989  1.0317
27241SOL     OW84614   5.123   8.741   5.896  0.1066 -0.1722 -0.0197
27241SOL    HW184615   5.122   8.726   5.990  1.2187 -2.1369 -0.2477
27241SOL    HW284616   5.203   8.697   5.866  0.9690  2.2916 -1.6187
27242SOL     OW84617   2.157   7.408   0.131 -0.0946 -0.3236  0.2746
27242SOL    HW184618   2.182   7.331   0.183  0.4453 -0.4374 -0.1427
27242SOL    HW284619   2.238   7.435   0.088 -0.1735  0.7632  0.7739
27243SOL     OW84620   0.382   4.213   6.823  0.2841  0.0707  0.3356
27243SOL    HW184621   0.355   4.218   6.731  1.8236 -0.2136 -0.1588
27243SOL    HW284622   0.396   4.304   6.848 -1.1819  0.2331  0.6381
27244SOL     OW84623   4.440   4.420   3.090  0.3203 -0.2154  0.4505
27244SOL    HW184624   4.504   4.357   3.124  1.4185  0.6736  0.1155
27244SOL    HW284625   4.462   4.428   2.997  0.5207  1.0094  0.5888
27245SOL     OW84626   7.045   8.501   4.225 -0.0511  0.4803 -0.0312
27245SOL    HW184627   7.004   8.448   4.294 -0.2369  0.8543  0.1483
27245SOL    HW284628   6.976   8.512   4.159 -0.7618  2.3719  0.9499
27246SOL     OW84629   8.993   6.855   8.861  0.3504  0.1488 -0.1387
27246SOL    HW184630   9.019   6.857   8.953 -0.8512  0.2618  0.2165
27246SOL    HW284631   8.945   6.773   8.851  0.5169  0.1128 -0.6768
27247SOL     OW84632   3.384   8.563   6.183 -0.2287 -0.1303 -0.1691
27247SOL    HW184633   3.348   8.630   6.241 -0.2239  0.6779 -1.0959
27247SOL    HW284634   3.308   8.518   6.147 -0.2480  0.0095 -0.2980
27248SOL     OW84635   5.795   3.146   3.080  0.7796  0.4687  0.1111
27248SOL    HW184636   5.875   3.199   3.080  0.8112  0.4837 -1.8435
27248SOL    HW284637   5.725   3.208   3.061  0.3516  0.3449  1.1898
27249SOL     OW84638   6.576   7.215   7.488 -0.5429 -0.4635 -0.0661
27249SOL    HW184639   6.609   7.225   7.399 -2.5533  1.0042 -0.7282
27249SOL    HW284640   6.499   7.159   7.480  0.0790 -1.5393  1.0136
27250SOL     OW84641   9.573   3.757   6.954  0.8818  0.1632 -0.1005
27250SOL    HW184642   9.581   3.775   7.047  0.9427  0.4217 -0.1533
27250SOL    HW284643   9.648   3.702   6.933  0.8778  0.1209 -0.0003
27251SOL     OW84644   0.585   1.287   3.531  0.1914 -0.0012 -0.4234
27251SOL    HW184645   0.534   1.219   3.574  1.5750 -0.4647  0.5511
27251SOL    HW284646   0.526   1.363   3.529 -0.3255 -0.3057  1.2834
27252SOL     OW84647   4.817   5.929   8.563  0.4872 -0.0830 -0.0048
27252SOL    HW184648   4.794   5.971   8.647 -1.4579 -1.4243  0.2012
27252SOL    HW284649   4.894   5.977   8.533  0.8211  0.9164  2.2003
27253SOL     OW84650   3.405   4.111   6.149 -0.0491  0.0816  0.0788
27253SOL    HW184651   3.334   4.174   6.163 -1.3388 -1.0545 -0.9997
27253SOL    HW284652   3.475   4.162   6.108 -1.7020  0.5443 -2.3661
27254SOL     OW84653   7.466   2.827   4.081 -0.5843 -0.3167 -0.0493
27254SOL    HW184654   7.419   2.907   4.059  0.3642  0.4436  0.6091
27254SOL    HW284655   7.546   2.831   4.030  0.1356 -0.1155  1.0571
27255SOL     OW84656   1.274   6.261   6.300  0.0212 -0.3603 -0.9763
27255SOL    HW184657   1.264   6.166   6.296 -0.2824 -0.3348 -0.8916
27255SOL    HW284658   1.293   6.279   6.392 -0.0230 -0.3298 -0.9734
27256SOL     OW84659   9.043   5.926   6.264 -0.1930  0.3063 -0.1961
27256SOL    HW184660   9.026   5.856   6.327 -1.3567  0.3758 -0.4163
27256SOL    HW284661   9.131   5.906   6.230  0.4875  0.3131  1.4644
27257SOL     OW84662   4.885   5.381   8.193  0.1063 -0.2415  0.1822
27257SOL    HW184663   4.965   5.336   8.220  0.2999  1.0017  1.7922
27257SOL    HW284664   4.893   5.469   8.228 -0.7430  0.7876 -2.0190
27258SOL     OW84665   4.202   5.035   2.803 -0.4331 -0.6721  0.1868
27258SOL    HW184666   4.212   5.053   2.897  3.1363 -0.8887 -0.0179
27258SOL    HW284667   4.195   5.122   2.763  0.4803 -0.4340  0.5045
27259SOL     OW84668   5.975   9.088   8.297 -0.2094  0.4592  0.5645
27259SOL    HW184669   5.945   9.166   8.250 -1.9162  0.5525  1.7484
27259SOL    HW284670   6.065   9.109   8.323  0.1191  1.1427 -0.9639
27260SOL     OW84671   2.959   5.739   4.708  0.4697 -0.1149 -0.3002
27260SOL    HW184672   2.931   5.684   4.781  1.1198 -0.9023 -0.6306
27260SOL    HW284673   3.031   5.691   4.668 -0.3564 -0.0705 -1.9354
27261SOL     OW84674   6.725   2.204   1.313  0.4358  0.5571  0.0024
27261SOL    HW184675   6.817   2.227   1.325  0.7500 -0.1390 -0.9518
27261SOL    HW284676   6.684   2.222   1.398  1.0414  2.6736 -0.0987
27262SOL     OW84677   6.543   6.678   3.377  0.0112  0.4512 -0.3548
27262SOL    HW184678   6.495   6.613   3.428 -0.5192  0.7726 -0.4378
27262SOL    HW284679   6.602   6.627   3.322  1.8297  0.1175  1.7254
27263SOL     OW84680   2.503   3.991   6.636 -0.5720  0.2778 -0.3593
27263SOL    HW184681   2.434   3.971   6.573 -1.6863  0.2054  0.8561
27263SOL    HW284682   2.485   3.935   6.711  0.6495  0.4591  0.0951
27264SOL     OW84683   9.562   8.931   2.058  0.0852 -0.3144  0.1250
27264SOL    HW184684   9.576   8.860   1.995 -2.1278 -1.8996  1.2998
27264SOL    HW284685   9.479   8.971   2.033 -0.6667 -0.7510  1.7790
27265SOL     OW84686   6.745   4.558   6.026 -0.3690  0.0699 -0.1456
27265SOL    HW184687   6.826   4.594   5.990 -0.4182 -0.1323 -0.4577
27265SOL    HW284688   6.756   4.564   6.121  0.6767 -1.4166 -0.1405
27266SOL     OW84689   7.269   1.746   7.254  0.0945  0.3320  0.1157
27266SOL    HW184690   7.255   1.766   7.161 -1.2932  0.2102  0.2788
27266SOL    HW284691   7.198   1.791   7.299  1.0167  0.7548  1.1782
27267SOL     OW84692   8.895   6.672   7.021  0.4518 -0.0340 -0.1206
27267SOL    HW184693   8.876   6.731   7.094  0.8623 -1.0205  0.8206
27267SOL    HW284694   8.868   6.586   7.052  0.3640 -0.4320 -1.2574
27268SOL     OW84695   4.296   6.544   4.891 -0.3654  0.2725  0.3166
27268SOL    HW184696   4.363   6.499   4.943  0.1311  0.2905 -0.2828
27268SOL    HW284697   4.262   6.476   4.832 -0.8851  0.2619  0.6284
27269SOL     OW84698   1.801   2.810   9.304  0.2408 -0.7788  0.4984
27269SOL    HW184699   1.893   2.783   9.299  1.2354  1.9401  2.0378
27269SOL    HW284700   1.768   2.768   9.383  0.6399 -0.5349  0.8003
27270SOL     OW84701   7.932   4.403   5.987 -0.4498 -0.3866  0.6509
27270SOL    HW184702   7.838   4.387   5.999 -0.5354 -0.7831 -0.4285
27270SOL    HW284703   7.973   4.342   6.048 -0.8904 -0.5926  0.7535
27271SOL     OW84704   2.679   5.138   1.775 -0.1434 -0.3083  0.2139
27271SOL    HW184705   2.608   5.203   1.774 -0.0879 -0.2308 -1.4532
27271SOL    HW284706   2.670   5.091   1.693  2.0410  0.0595 -0.3142
27272SOL     OW84707   2.908   4.041   4.362  0.1070  0.0892  0.3771
27272SOL    HW184708   2.864   3.986   4.297  0.7994 -2.1267  1.7021
27272SOL    HW284709   2.995   4.057   4.324  0.5819 -1.3641  0.7840
27273SOL     OW84710   7.249   6.240   3.553  0.0943  0.1524  0.0664
27273SOL    HW184711   7.170   6.240   3.498 -0.3925 -0.0328  0.7449
27273SOL    HW284712   7.305   6.307   3.515 -0.3023  0.1373 -0.5578
27274SOL     OW84713   0.790   5.985   4.762 -0.8573 -0.1678 -0.0588
27274SOL    HW184714   0.777   6.011   4.671  1.2682  0.1843 -0.3126
27274SOL    HW284715   0.796   6.068   4.809 -0.6514 -0.3271  0.1940
27275SOL     OW84716   4.824   2.349   8.008 -0.0881 -0.0097  0.4717
27275SOL    HW184717   4.756   2.382   7.949 -0.6892 -1.3130  0.4092
27275SOL    HW284718   4.796   2.379   8.095 -0.3604  0.0518  0.3650
27276SOL     OW84719   1.175   8.595   4.013  0.1915 -0.7074 -0.5867
27276SOL    HW184720   1.169   8.556   4.100  1.3261 -0.2055 -0.2650
27276SOL    HW284721   1.253   8.649   4.016 -2.2228  3.1060 -0.4366
27277SOL     OW84722   7.345   0.036   0.910 -0.4752  0.2766  0.6999
27277SOL    HW184723   7.268  -0.008   0.947  0.0689 -2.5123 -1.1762
27277SOL    HW284724   7.333   0.028   0.815  1.7920  0.3696  0.3606
27278SOL     OW84725   7.580   5.903   8.854  0.8808 -0.1882  0.2091
27278SOL    HW184726   7.616   5.876   8.769  2.8408 -1.1387  1.2763
27278SOL    HW284727   7.506   5.845   8.868  1.5503 -1.1487 -0.1282
27279SOL     OW84728   7.887   4.171   1.136  0.1664  0.3261 -0.0590
27279SOL    HW184729   7.895   4.083   1.100 -2.0960  0.4579 -1.0836
27279SOL    HW284730   7.969   4.186   1.183  0.8631 -2.0618 -0.3986
27280SOL     OW84731   9.513   3.146   0.578  0.6478  0.9848 -0.5848
27280SOL    HW184732   9.537   3.080   0.512  0.4007 -1.2511  1.4104
27280SOL    HW284733   9.475   3.095   0.650  0.0234  3.3926  0.9163
27281SOL     OW84734   6.387   1.201   6.978 -0.1573 -0.6810 -0.1124
27281SOL    HW184735   6.333   1.215   6.900  0.4009 -0.2898 -0.4382
27281SOL    HW284736   6.375   1.281   7.029  0.5173 -0.3584 -0.4409
27282SOL     OW84737   7.190   0.616   5.558  0.4805 -0.1055  0.4335
27282SOL    HW184738   7.163   0.589   5.646  0.2237 -1.6231 -0.0686
27282SOL    HW284739   7.271   0.567   5.543 -0.8724 -2.0247 -1.1562
27283SOL     OW84740   5.806   1.403   9.269 -0.2180  0.0893  0.2702
27283SOL    HW184741   5.897   1.400   9.240 -0.1144 -0.1245  0.6170
27283SOL    HW284742   5.806   1.359   9.354 -0.2233  2.1945  1.4211
27284SOL     OW84743   3.068   1.274   6.467  0.1093 -0.1551 -0.0525
27284SOL    HW184744   2.986   1.234   6.435 -0.1610 -0.4680  0.9887
27284SOL    HW284745   3.041   1.325   6.543  0.6192  1.2400 -0.7889
27285SOL     OW84746   4.650   5.434   7.498 -0.2423  0.2819 -0.9610
27285SOL    HW184747   4.584   5.406   7.561  0.7344  0.6016  0.2333
27285SOL    HW284748   4.733   5.422   7.543  0.4052  1.8203 -1.6735
27286SOL     OW84749   9.174   0.726   1.173 -0.5368  0.0612 -0.0040
27286SOL    HW184750   9.153   0.641   1.134 -1.4000  1.0496 -1.8049
27286SOL    HW284751   9.132   0.725   1.259 -0.3577 -1.3894  0.0888
27287SOL     OW84752   6.102   6.598   6.842  0.2270  0.3335 -0.7135
27287SOL    HW184753   6.163   6.607   6.769  0.8806  1.0583 -0.0924
27287SOL    HW284754   6.030   6.546   6.806  2.1603 -2.4735 -0.8981
27288SOL     OW84755   5.617   5.494   6.251  0.3023 -0.0048  0.2589
27288SOL    HW184756   5.579   5.518   6.167 -0.6005 -1.3385  0.2622
27288SOL    HW284757   5.695   5.443   6.229 -1.1927 -2.3963  0.1237
27289SOL     OW84758   7.257   6.491   5.051 -0.1956 -0.2697  0.3928
27289SOL    HW184759   7.194   6.546   5.005 -0.4823 -0.5383  0.4617
27289SOL    HW284760   7.286   6.544   5.125 -1.2522 -0.5948  1.0534
27290SOL     OW84761   7.951   7.884   2.022 -0.2665 -0.3491  0.0172
27290SOL    HW184762   8.015   7.817   1.999 -0.4851 -0.7491  0.5410
27290SOL    HW284763   7.882   7.836   2.068 -1.6983 -0.1837 -1.8316
27291SOL     OW84764   4.110   7.091   4.195  0.6752 -0.1975 -0.3109
27291SOL    HW184765   4.179   7.099   4.129 -0.2867  0.4899 -1.2563
27291SOL    HW284766   4.067   7.176   4.195 -1.4712 -1.2068 -1.2256
27292SOL     OW84767   5.828   4.790   2.573  0.2939  0.0639  0.3079
27292SOL    HW184768   5.869   4.706   2.550 -0.1450  0.1581 -0.8995
27292SOL    HW284769   5.892   4.856   2.544  1.2135  0.1689  2.3990
27293SOL     OW84770   7.541   1.527   3.639 -0.1177 -0.0582 -0.0218
27293SOL    HW184771   7.590   1.445   3.631  0.2380  0.1605 -0.0801
27293SOL    HW284772   7.601   1.586   3.684  0.4156  0.8185 -1.7827
27294SOL     OW84773   6.350   0.775   4.766 -0.2073 -0.1096  0.0623
27294SOL    HW184774   6.398   0.779   4.850  0.3208  1.8212 -0.2667
27294SOL    HW284775   6.268   0.731   4.788  0.0357  0.0949  1.5414
27295SOL     OW84776   6.127   5.065   8.565  0.0983 -0.4471  0.6252
27295SOL    HW184777   6.156   5.069   8.656  2.3902  2.1256 -0.0880
27295SOL    HW284778   6.122   5.156   8.537 -0.5046 -1.1654 -1.8396
27296SOL     OW84779   8.789   6.047   8.652  0.1842  0.4908  0.1666
27296SOL    HW184780   8.823   5.958   8.643 -0.2339  0.3268  0.1850
27296SOL    HW284781   8.862   6.103   8.629  0.4958  0.1428  0.2966
27297SOL     OW84782   6.983   0.067   4.345 -0.0863  0.3283 -0.2225
27297SOL    HW184783   7.048   0.137   4.342  0.4133 -0.1491 -0.7463
27297SOL    HW284784   6.909   0.101   4.296 -0.0372  0.6801 -0.0573
27298SOL     OW84785   0.725   2.824   5.067  0.2522 -0.1014 -0.2284
27298SOL    HW184786   0.704   2.917   5.055  1.8471  0.4731  1.0252
27298SOL    HW284787   0.677   2.798   5.145 -0.3815 -0.4210 -0.7134
27299SOL     OW84788   4.148   1.076   5.268  0.0186  0.7332  0.0371
27299SOL    HW184789   4.149   1.040   5.357  1.1587  3.6580  1.3453
27299SOL    HW284790   4.067   1.043   5.229  0.4783 -2.3008  1.3619
27300SOL     OW84791   0.828   2.694   4.653  0.7397  0.3365  0.3483
27300SOL    HW184792   0.918   2.677   4.681  0.9122  0.7708  0.0612
27300SOL    HW284793   0.776   2.682   4.733  0.9015 -1.0853  0.2585
27301SOL     OW84794   2.012   8.651   9.116  0.5708 -0.5979 -0.2801
27301SOL    HW184795   2.013   8.610   9.029 -1.5632 -1.4234  0.0336
27301SOL    HW284796   2.103   8.643   9.147  1.0994 -1.3801 -1.9317
27302SOL     OW84797   5.745   0.204   6.961 -0.2918 -0.0393  0.2633
27302SOL    HW184798   5.709   0.239   7.042  0.3079  0.1399  0.4619
27302SOL    HW284799   5.837   0.233   6.961 -0.1320 -0.5244 -0.1952
27303SOL     OW84800   8.261   4.541   4.868 -0.1702  0.0123 -0.2822
27303SOL    HW184801   8.295   4.563   4.955  0.2337  0.8555 -0.6426
27303SOL    HW284802   8.334   4.560   4.809 -0.8338  0.5531 -0.9285
27304SOL     OW84803   7.362   5.366   4.136 -0.5817  0.4727  0.2699
27304SOL    HW184804   7.306   5.391   4.063 -1.9478  0.4184  1.2621
27304SOL    HW284805   7.370   5.445   4.189 -0.5356  0.2150  0.6505
27305SOL     OW84806   8.542   8.521   1.979  0.3114 -0.1687 -0.0273
27305SOL    HW184807   8.604   8.547   1.911 -1.4093  1.1438 -1.1760
27305SOL    HW284808   8.575   8.563   2.059  1.0325  0.3057 -0.5636
27306SOL     OW84809   6.010   9.600   3.200  0.1594  0.0690  0.1647
27306SOL    HW184810   6.056   9.517   3.209  1.0060  0.2352 -2.0678
27306SOL    HW284811   6.075   9.660   3.163 -1.5169  0.5927 -2.1328
27307SOL     OW84812   6.592   8.040   6.924 -0.4180 -0.0973 -0.2170
27307SOL    HW184813   6.565   7.972   6.985  0.5209  0.6088  1.0483
27307SOL    HW284814   6.665   8.084   6.969  0.2065  0.5399 -1.7982
27308SOL     OW84815   7.347   8.791   1.975 -1.0776 -0.8159 -0.1068
27308SOL    HW184816   7.360   8.847   1.899 -1.4051 -0.7213 -0.0951
27308SOL    HW284817   7.430   8.744   1.985 -0.0983  1.0261  1.0035
27309SOL     OW84818   4.240   3.737   7.005  0.9634  0.4231  0.2435
27309SOL    HW184819   4.274   3.789   6.932 -0.6073 -0.8958 -1.5214
27309SOL    HW284820   4.145   3.751   7.002  0.6485 -1.3773  0.6276
27310SOL     OW84821   3.015   3.339   7.870 -0.1187  0.7036 -0.3760
27310SOL    HW184822   2.944   3.367   7.928 -0.5524 -0.4575 -0.3205
27310SOL    HW284823   3.056   3.266   7.917 -1.0605 -0.8802 -1.9153
27311SOL     OW84824   1.640   4.393   5.110  0.3769 -0.1115  0.1205
27311SOL    HW184825   1.644   4.403   5.015  0.1113  2.2118  0.2947
27311SOL    HW284826   1.726   4.359   5.134  0.6155 -0.2565 -0.8893
27312SOL     OW84827   5.128   9.451   2.001  0.2352  0.1652 -0.2400
27312SOL    HW184828   5.152   9.387   1.934 -0.4085 -0.2485 -0.0871
27312SOL    HW284829   5.158   9.412   2.084 -0.5774 -0.1746 -0.0925
27313SOL     OW84830   8.842   1.737   1.009 -0.3399  0.2289 -0.6185
27313SOL    HW184831   8.794   1.740   0.926 -0.2507  2.7715 -0.6526
27313SOL    HW284832   8.797   1.800   1.065  1.0777  0.3433  0.4344
27314SOL     OW84833   3.534   4.502   0.275 -0.0454  0.4020 -0.3485
27314SOL    HW184834   3.569   4.461   0.196  2.6638  0.1747  0.8833
27314SOL    HW284835   3.552   4.595   0.264 -1.8197  0.7127 -0.9822
27315SOL     OW84836   9.607   8.852   7.491  0.3647  0.6773  0.4114
27315SOL    HW184837   9.626   8.845   7.397  0.7320  0.3495  0.5098
27315SOL    HW284838   9.547   8.927   7.497  0.6484  0.9471 -0.0409
27316SOL     OW84839   2.494   3.902   8.088  0.3873 -0.5304 -0.1201
27316SOL    HW184840   2.500   3.888   7.993  1.9829  1.1309 -0.3311
27316SOL    HW284841   2.570   3.956   8.108  0.2145 -1.0596  2.1746
27317SOL     OW84842   7.660   3.827   6.816  0.0188  0.0879 -0.1672
27317SOL    HW184843   7.702   3.832   6.902 -0.0312  0.2414 -0.1511
27317SOL    HW284844   7.584   3.770   6.830 -0.2792  0.5286  0.0096
27318SOL     OW84845   8.084   7.339   4.681 -0.1500 -0.8186  0.6109
27318SOL    HW184846   8.075   7.378   4.768 -0.9033  2.2828 -0.7059
27318SOL    HW284847   8.172   7.364   4.652 -0.5602 -0.1723 -0.1632
27319SOL     OW84848   4.864   1.935   5.720 -0.1957 -0.0697  0.2033
27319SOL    HW184849   4.910   1.969   5.643 -1.4554  0.5960 -0.2892
27319SOL    HW284850   4.847   2.013   5.774 -1.6032 -0.1303 -0.1121
27320SOL     OW84851   1.070   1.105   1.471  0.3781 -0.4199 -0.2456
27320SOL    HW184852   1.037   1.177   1.418  2.5989  1.3809  0.6773
27320SOL    HW284853   0.993   1.071   1.517 -0.8352  0.8488 -1.2801
27321SOL     OW84854   2.781   6.053   9.471  0.4573  0.1453  0.2125
27321SOL    HW184855   2.852   6.092   9.523 -0.7545  1.5935  0.8560
27321SOL    HW284856   2.723   6.127   9.452 -0.5920 -0.9060 -0.8017
27322SOL     OW84857   6.800   7.446   5.984  0.5034 -0.2749  0.2092
27322SOL    HW184858   6.833   7.384   5.920  1.5308 -1.2321  1.6132
27322SOL    HW284859   6.744   7.505   5.933 -0.1429 -2.0431 -1.2533
27323SOL     OW84860   8.138   6.823   9.037  0.5537 -0.1295  0.0414
27323SOL    HW184861   8.072   6.755   9.053 -0.6620  0.9596 -0.2016
27323SOL    HW284862   8.107   6.867   8.957  1.1052  0.9508  0.4068
27324SOL     OW84863   4.220   7.274   4.836 -0.3751 -0.1325  0.0661
27324SOL    HW184864   4.147   7.213   4.829 -0.9962  0.4190  1.3382
27324SOL    HW284865   4.181   7.360   4.826  0.1784  0.1507  0.2888
27325SOL     OW84866   0.027   4.632   1.553  0.0491  0.0830  0.2874
27325SOL    HW184867   0.111   4.625   1.507 -0.9513 -0.6929 -1.5304
27325SOL    HW284868  -0.014   4.710   1.518 -0.7912 -0.5939 -0.2827
27326SOL     OW84869   7.112   1.917   4.683  0.2336  0.6823  0.3501
27326SOL    HW184870   7.148   1.873   4.760  1.0115  1.9128  0.7231
27326SOL    HW284871   7.105   1.848   4.617  2.6872  0.2343  0.4745
27327SOL     OW84872   9.047   9.287   5.744 -0.2672  0.0820  0.2085
27327SOL    HW184873   9.114   9.233   5.702 -1.5415 -2.0628  0.7909
27327SOL    HW284874   8.975   9.289   5.681  0.0608  1.8578 -0.1515
27328SOL     OW84875   1.411   1.969   4.096 -0.3039  0.0798  0.0406
27328SOL    HW184876   1.401   1.919   4.015 -0.6782 -0.0529  0.1624
27328SOL    HW284877   1.413   2.061   4.068 -2.4636  0.1791  0.0009
27329SOL     OW84878   4.168   7.820   0.673 -0.4841  0.0423  0.1435
27329SOL    HW184879   4.207   7.906   0.686 -2.1404  0.8957 -0.3090
27329SOL    HW284880   4.121   7.828   0.590  1.1134 -1.9974 -1.0691
27330SOL     OW84881   7.095   6.234   8.529 -0.1603 -0.0575 -0.4206
27330SOL    HW184882   7.169   6.273   8.576  0.0440 -1.0227  0.0940
27330SOL    HW284883   7.033   6.212   8.598 -1.5325  1.8925 -0.9400
27331SOL     OW84884   8.686   1.408   1.980  0.1708 -0.1524 -0.7217
27331SOL    HW184885   8.598   1.388   1.948  0.0381 -0.4663 -0.1709
27331SOL    HW284886   8.704   1.340   2.045  0.9922 -0.3501 -1.1284
27332SOL     OW84887   3.081   2.553   5.904  0.6422  0.8137 -0.8207
27332SOL    HW184888   3.125   2.612   5.844  2.4694  0.6764  0.3187
27332SOL    HW284889   3.055   2.608   5.978 -0.7361  0.7994 -1.2561
27333SOL     OW84890   5.388   6.689   9.050 -0.0959 -0.1380 -0.4832
27333SOL    HW184891   5.376   6.658   8.960 -0.3661  0.6655 -0.7279
27333SOL    HW284892   5.369   6.782   9.046 -0.4563 -0.1628  0.4808
27334SOL     OW84893   5.584   6.956   1.001  0.5581 -0.4216 -0.0485
27334SOL    HW184894   5.612   6.901   0.927 -1.1667 -0.1996 -0.9271
27334SOL    HW284895   5.573   7.043   0.963 -2.5844 -0.7515 -0.2072
27335SOL     OW84896   9.183   3.475   3.027 -0.5100  0.7085  0.0635
27335SOL    HW184897   9.127   3.438   3.094 -1.1478  1.0130 -0.2951
27335SOL    HW284898   9.127   3.535   2.978 -0.5970 -0.8901 -1.9238
27336SOL     OW84899   9.133   1.378   0.044  0.2375 -0.1350 -0.1904
27336SOL    HW184900   9.145   1.326   0.124  0.5151  0.2395  0.0164
27336SOL    HW284901   9.219   1.417   0.028  0.1643 -0.1570 -0.6399
27337SOL     OW84902   6.166   3.508   1.599 -0.3325 -0.2164 -0.3598
27337SOL    HW184903   6.084   3.532   1.643  0.4749  2.3964 -0.1131
27337SOL    HW284904   6.144   3.510   1.506 -0.0803  3.1989 -0.4886
27338SOL     OW84905   8.040   6.106   6.632 -0.5855  0.1715 -0.3559
27338SOL    HW184906   7.973   6.054   6.677 -0.2800  0.9498  1.0557
27338SOL    HW284907   8.082   6.156   6.702  1.7292 -0.5510 -1.1276
27339SOL     OW84908   7.277   7.989   1.655 -0.0239 -0.3086 -0.5989
27339SOL    HW184909   7.205   7.992   1.593 -1.0882  1.1335  0.6353
27339SOL    HW284910   7.255   8.054   1.721  2.8472  0.8990 -0.6564
27340SOL     OW84911   0.804   4.691   6.538  0.1196 -0.5954 -0.9519
27340SOL    HW184912   0.844   4.698   6.625 -0.1265 -2.7956 -0.6062
27340SOL    HW284913   0.757   4.774   6.527 -0.1800 -0.4189  1.2017
27341SOL     OW84914   4.975   1.369   4.242  0.1748  1.2154  0.1753
27341SOL    HW184915   5.011   1.281   4.256 -1.6925  0.1224 -1.3602
27341SOL    HW284916   5.025   1.404   4.169  0.8283  1.4058  0.7001
27342SOL     OW84917   4.507   3.617   4.682  0.2092 -0.0727  0.1269
27342SOL    HW184918   4.517   3.630   4.776  1.2277 -2.4686  0.4198
27342SOL    HW284919   4.413   3.607   4.668 -0.3102  3.4704  0.3298
27343SOL     OW84920   2.985   4.578   1.989 -0.2193 -0.2697 -0.4949
27343SOL    HW184921   2.895   4.598   1.961 -0.4218 -0.1467  0.2173
27343SOL    HW284922   2.997   4.486   1.968 -0.4094 -0.2133 -0.8617
27344SOL     OW84923   1.722   7.201   1.123 -0.4469  0.0807  0.2153
27344SOL    HW184924   1.720   7.191   1.218  0.4953  0.3474  0.2786
27344SOL    HW284925   1.792   7.265   1.107 -0.2315 -0.3557 -0.6799
27345SOL     OW84926   5.960   0.946   8.158  0.0106  0.1555 -0.1509
27345SOL    HW184927   5.946   1.034   8.193  1.4458 -0.1536  1.3270
27345SOL    HW284928   5.902   0.890   8.209  1.5713 -0.1896  1.3501
27346SOL     OW84929   2.687   5.880   5.072 -0.3428  0.3879 -0.1626
27346SOL    HW184930   2.720   5.818   5.007 -2.1328  0.4386 -1.1742
27346SOL    HW284931   2.736   5.859   5.151 -0.0622 -1.5405 -0.7860
27347SOL     OW84932   6.004   1.682   1.994  0.0441  0.2189  0.0122
27347SOL    HW184933   6.043   1.606   1.951 -0.3508 -0.8388  1.4869
27347SOL    HW284934   6.076   1.745   2.000  0.7194 -0.5286 -0.0525
27348SOL     OW84935   6.361   5.841   7.846  0.0735  0.4421  0.2026
27348SOL    HW184936   6.408   5.923   7.834  0.1139  0.1914 -1.6599
27348SOL    HW284937   6.269   5.863   7.834  0.2695 -0.2751 -4.2582
27349SOL     OW84938   8.427   3.584   7.523  0.0372  0.5163 -0.4852
27349SOL    HW184939   8.451   3.676   7.517 -1.0329  0.9148  0.9664
27349SOL    HW284940   8.417   3.567   7.616 -2.7854 -0.2610 -0.8470
27350SOL     OW84941   1.583   7.787   3.881 -0.1421 -0.9994 -0.2701
27350SOL    HW184942   1.587   7.733   3.802 -1.3139 -1.9212  0.2505
27350SOL    HW284943   1.623   7.870   3.857 -0.0099 -1.4534 -1.6720
27351SOL     OW84944   7.358   8.716   7.830 -0.0905  0.5702 -0.5946
27351SOL    HW184945   7.354   8.689   7.738  1.7405  0.3123 -0.6316
27351SOL    HW284946   7.320   8.805   7.830 -0.6161  0.3669 -1.4822
27352SOL     OW84947   0.034   0.025   6.784 -0.1178  0.3498 -0.0277
27352SOL    HW184948  -0.056   0.004   6.757 -0.6555  2.4065 -0.0044
27352SOL    HW284949   0.029   0.033   6.879  0.2012  0.0722  0.0156
27353SOL     OW84950   5.245   5.824   2.046  0.5873 -0.5197 -0.2481
27353SOL    HW184951   5.307   5.775   2.099  0.5335  0.9895  1.2926
27353SOL    HW284952   5.269   5.803   1.955  3.4345  0.0618  0.2645
27354SOL     OW84953   3.643   8.114   9.137  0.1297 -0.4608  0.5418
27354SOL    HW184954   3.559   8.071   9.122  0.2475 -0.8259  0.9166
27354SOL    HW284955   3.689   8.106   9.053 -0.3535  0.0755  0.2175
27355SOL     OW84956   0.211   4.856   5.979 -0.2792  0.5339  0.0232
27355SOL    HW184957   0.249   4.905   6.052 -0.7070 -1.1663  1.4448
27355SOL    HW284958   0.282   4.798   5.949 -0.7236 -0.2849  0.5164
27356SOL     OW84959   2.750   7.377   1.892  0.0443 -0.1812 -0.3811
27356SOL    HW184960   2.780   7.441   1.826 -1.8858  2.3574  1.0305
27356SOL    HW284961   2.667   7.345   1.858 -0.4117  0.2941  0.2722
27357SOL     OW84962   4.928   8.799   0.174 -0.6092 -0.6556 -0.1230
27357SOL    HW184963   4.908   8.719   0.126 -1.1602 -1.0461  0.7482
27357SOL    HW284964   4.843   8.832   0.203 -0.2399 -0.9428  1.3913
27358SOL     OW84965   1.360   4.259   3.209 -0.1167  0.5424  0.1395
27358SOL    HW184966   1.400   4.346   3.207  0.2115  0.4067  0.6337
27358SOL    HW284967   1.298   4.259   3.136  1.7128  0.3069 -1.5111
27359SOL     OW84968   2.356   8.455   3.636 -0.0648 -0.8276  0.6586
27359SOL    HW184969   2.265   8.471   3.609  0.2201  0.1118  0.2352
27359SOL    HW284970   2.356   8.364   3.665 -1.6645 -0.2128  2.8273
27360SOL     OW84971   6.363   8.313   7.648  0.0608  0.0499  0.1362
27360SOL    HW184972   6.267   8.315   7.653  0.0274  1.1811 -0.6355
27360SOL    HW284973   6.390   8.400   7.679  0.6208  1.0563 -2.8655
27361SOL     OW84974   2.428   7.219   0.177 -0.2094  0.0654  0.0084
27361SOL    HW184975   2.437   7.283   0.246 -0.7610 -1.5943  1.7062
27361SOL    HW284976   2.339   7.184   0.188  0.2545 -1.3451 -0.4969
27362SOL     OW84977   5.965   8.488   6.281  0.2522  1.2258 -0.2178
27362SOL    HW184978   5.932   8.506   6.193 -0.3653  1.1263 -0.0114
27362SOL    HW284979   5.957   8.571   6.327  0.1153  1.1542 -0.1124
27363SOL     OW84980   1.032   5.050   6.798  0.5331  0.0876 -0.1794
27363SOL    HW184981   1.085   5.127   6.821 -2.2681  2.2258 -0.2840
27363SOL    HW284982   1.072   5.017   6.718  2.0998  1.1385  0.1153
27364SOL     OW84983   4.535   7.760   0.080 -0.1763 -0.5751  0.3935
27364SOL    HW184984   4.465   7.791   0.022  0.0170  0.1466  0.5382
27364SOL    HW284985   4.548   7.669   0.054 -0.5500 -0.4538 -0.2496
27365SOL     OW84986   3.850   2.301   0.261  0.2071  0.0555 -0.2485
27365SOL    HW184987   3.886   2.371   0.207  1.3692 -0.0208  0.3986
27365SOL    HW284988   3.862   2.222   0.208 -0.2584  0.2055 -0.5900
27366SOL     OW84989   0.500   5.378   2.842 -0.5834  0.4339 -0.4113
27366SOL    HW184990   0.541   5.364   2.757  0.3795  1.4528 -0.1462
27366SOL    HW284991   0.434   5.309   2.849  0.8425 -1.0659 -1.0120
27367SOL     OW84992   7.035   1.537   4.968  0.9019 -0.8091 -0.2248
27367SOL    HW184993   6.969   1.468   4.960  1.8752 -1.5977 -2.4972
27367SOL    HW284994   7.030   1.584   4.885  0.6992  1.5157  1.0341
27368SOL     OW84995   2.389   6.154   7.726 -0.2082 -0.3063 -0.3992
27368SOL    HW184996   2.441   6.178   7.650  0.9171 -0.0360  0.4278
27368SOL    HW284997   2.424   6.207   7.797 -0.7582 -1.0646  0.4661
27369SOL     OW84998   2.373   3.352   8.447 -0.3640 -0.1409  0.2055
27369SOL    HW184999   2.438   3.320   8.385 -0.6407 -1.5549  0.5919
27369SOL    HW285000   2.305   3.284   8.448 -0.7487  0.2261  1.4451
27370SOL     OW85001   2.120   1.388   4.690  0.6874  0.3001  0.9083
27370SOL    HW185002   2.088   1.414   4.777 -1.2728 -0.1639  0.3715
27370SOL    HW285003   2.076   1.447   4.630  1.3112  0.0056  0.1429
27371SOL     OW85004   5.112   1.495   7.068 -0.7793 -0.4364  0.6299
27371SOL    HW185005   5.085   1.469   6.980 -1.1119  2.2505 -0.1459
27371SOL    HW285006   5.030   1.508   7.116 -0.7211  1.1300  0.3486
27372SOL     OW85007   2.428   4.492   1.187  0.1928 -0.2158  0.5401
27372SOL    HW185008   2.347   4.518   1.230  0.5481 -0.0511  1.1284
27372SOL    HW285009   2.458   4.415   1.237  1.0675  0.5031  1.1782
27373SOL     OW85010   4.735   3.815   9.269 -0.0721 -0.4194  0.0967
27373SOL    HW185011   4.752   3.899   9.312 -1.2710 -0.9534  1.7147
27373SOL    HW285012   4.649   3.827   9.228 -0.4971 -1.0120  0.7958
27374SOL     OW85013   6.317   8.294   4.449 -0.1825 -0.2228  0.7790
27374SOL    HW185014   6.252   8.351   4.491  0.3307  0.7946  0.2223
27374SOL    HW285015   6.297   8.299   4.356  0.5282 -0.1206  0.6271
27375SOL     OW85016   2.370   4.463   1.664 -0.3880 -0.0346  0.1683
27375SOL    HW185017   2.331   4.472   1.751 -1.8610 -0.0418 -0.4565
27375SOL    HW285018   2.455   4.506   1.671 -0.7332  0.4796  1.4563
27376SOL     OW85019   4.082   9.015   8.133  0.4083  0.0429 -0.2849
27376SOL    HW185020   4.005   8.960   8.148 -0.3685  1.2586  0.2815
27376SOL    HW285021   4.145   8.956   8.092 -1.6639 -0.4568 -3.1336
27377SOL     OW85022   5.566   3.989   6.314 -0.1828 -0.5246  0.1386
27377SOL    HW185023   5.574   3.894   6.306 -0.1395 -0.4501 -0.8379
27377SOL    HW285024   5.594   4.023   6.229 -0.8654  0.3272  0.2330
27378SOL     OW85025   5.549   9.441   4.581 -0.0230 -0.1073 -0.7231
27378SOL    HW185026   5.606   9.490   4.521 -1.2526  1.3048 -0.8114
27378SOL    HW285027   5.474   9.499   4.595  1.0042  0.5179  3.7020
27379SOL     OW85028   8.176   8.742   1.394 -0.1962  0.8127 -0.0417
27379SOL    HW185029   8.216   8.673   1.447 -0.7295  0.4608 -0.0790
27379SOL    HW285030   8.215   8.823   1.426  1.2499  0.4171 -0.7314
27380SOL     OW85031   2.874   4.941   5.717  0.0273 -0.1285 -0.3919
27380SOL    HW185032   2.787   4.905   5.702 -0.0254 -0.1288 -0.0956
27380SOL    HW285033   2.929   4.900   5.651 -0.1245 -0.4046 -0.3466
27381SOL     OW85034   9.373   3.037   4.071 -0.8279 -0.6119  0.3971
27381SOL    HW185035   9.421   3.037   4.154 -0.2027 -0.3934  0.0486
27381SOL    HW285036   9.365   3.130   4.048  0.5370 -0.7200 -0.6296
27382SOL     OW85037   1.930   8.469   7.444  0.5423  0.1002 -0.5270
27382SOL    HW185038   1.934   8.407   7.517 -0.3687  2.4012  1.6314
27382SOL    HW285039   1.876   8.426   7.379 -0.0650 -1.3890  0.8895
27383SOL     OW85040   3.345   0.450   2.936  0.7038  0.4805 -0.8659
27383SOL    HW185041   3.402   0.374   2.927  1.2450  0.6321  0.9131
27383SOL    HW285042   3.403   0.525   2.921  1.0674  0.6423  1.1694
27384SOL     OW85043   5.207   3.906   4.273 -0.8937 -0.1097 -0.3937
27384SOL    HW185044   5.283   3.945   4.229  0.0299 -0.1886  1.0757
27384SOL    HW285045   5.236   3.891   4.363 -2.4553 -0.7382  0.0393
27385SOL     OW85046   5.072   5.674   6.932 -0.0263  0.5915  0.0531
27385SOL    HW185047   5.058   5.623   6.852  0.0673 -1.2972  1.1837
27385SOL    HW285048   5.166   5.668   6.948  0.0213  1.3321  0.0822
27386SOL     OW85049   0.049   2.656   3.001 -0.2191 -0.3810 -0.5516
27386SOL    HW185050  -0.005   2.680   2.925 -0.5849 -0.8768 -0.4519
27386SOL    HW285051   0.038   2.562   3.009  0.6386 -0.4864 -0.4988
27387SOL     OW85052   4.087   4.884   0.164  0.3477  0.6451  0.4497
27387SOL    HW185053   4.000   4.898   0.202 -0.6373  3.0106 -2.2663
27387SOL    HW285054   4.070   4.839   0.081  1.4751  2.2764 -0.7414
27388SOL     OW85055   4.998   9.157   4.709  0.4480  0.7204 -0.1524
27388SOL    HW185056   5.056   9.228   4.738  0.7517  0.2070  0.5433
27388SOL    HW285057   4.964   9.120   4.790 -1.3235  1.3704 -0.5667
27389SOL     OW85058   3.053   6.643   3.615  0.6922  0.0982  0.2357
27389SOL    HW185059   3.076   6.734   3.600  4.6465 -0.8516 -0.7219
27389SOL    HW285060   2.979   6.626   3.557 -0.5646  2.7706  0.9336
27390SOL     OW85061   9.059   1.446   5.976 -0.1007  0.0357  0.5984
27390SOL    HW185062   9.044   1.458   5.883 -0.2379  2.1890  0.8510
27390SOL    HW285063   9.010   1.367   5.999  0.0168 -0.5804 -1.1354
27391SOL     OW85064   5.247   5.258   2.499 -0.0784  0.4713  0.5568
27391SOL    HW185065   5.170   5.213   2.535  0.9745 -1.1468  0.9155
27391SOL    HW285066   5.305   5.270   2.574  0.7641  0.0399 -0.0092
27392SOL     OW85067   8.964   4.965   7.311  0.2457  0.0135  0.2274
27392SOL    HW185068   8.907   4.976   7.387 -0.5520 -1.5067 -0.1066
27392SOL    HW285069   8.924   4.893   7.261 -0.2843  2.1025 -2.5899
27393SOL     OW85070   1.634   0.582   7.755 -0.6700 -0.0903  0.1663
27393SOL    HW185071   1.655   0.633   7.676 -0.4336  1.3762  1.1390
27393SOL    HW285072   1.651   0.491   7.730 -0.2323  0.3753 -1.3515
27394SOL     OW85073   8.919   1.391   1.819  0.1154  0.2820 -0.0508
27394SOL    HW185074   8.846   1.407   1.880 -1.6788  1.2740 -2.2969
27394SOL    HW285075   8.897   1.308   1.777  0.4773  0.4057 -0.4875
27395SOL     OW85076   8.687   7.054   4.217 -0.2270 -0.0094  0.2907
27395SOL    HW185077   8.718   7.018   4.300  0.1523  0.0598  0.1782
27395SOL    HW285078   8.766   7.085   4.173 -0.3200 -0.7607 -0.4462
27396SOL     OW85079   6.881   9.050   5.085 -0.5576 -0.3681 -0.1084
27396SOL    HW185080   6.830   9.039   5.005 -1.4571  0.3833  0.3441
27396SOL    HW285081   6.899   9.144   5.089  0.3088 -0.5387  0.0770
27397SOL     OW85082   8.816   4.879   0.961  0.4991  0.5376 -0.1792
27397SOL    HW185083   8.844   4.789   0.940 -1.8141 -0.1796 -0.4224
27397SOL    HW285084   8.855   4.896   1.046 -1.3096 -1.8424  1.2544
27398SOL     OW85085   8.944   9.272   9.170 -0.4993  0.1161 -0.2014
27398SOL    HW185086   9.037   9.251   9.180 -0.6577 -0.1904  0.8030
27398SOL    HW285087   8.942   9.341   9.104  0.3879 -0.2728 -0.6578
27399SOL     OW85088   9.545   8.447   3.626  0.8963  0.3978  0.5067
27399SOL    HW185089   9.547   8.379   3.693  0.9877 -0.0846  0.0187
27399SOL    HW285090   9.486   8.414   3.559 -1.6896  2.2112  1.7106
27400SOL     OW85091   1.621   8.768   1.870 -0.1527 -0.3853 -0.2486
27400SOL    HW185092   1.704   8.806   1.901 -1.0950  0.3779  1.4789
27400SOL    HW285093   1.640   8.739   1.781  1.9326 -0.1051  0.0539
27401SOL     OW85094   8.459   7.831   1.252  1.0171  0.0351 -0.1457
27401SOL    HW185095   8.418   7.747   1.274  1.1446 -0.5783 -2.0324
27401SOL    HW285096   8.484   7.821   1.160  1.0512  2.1491 -0.3986
27402SOL     OW85097   0.007   5.789   5.889 -0.3680  0.4829  0.3008
27402SOL    HW185098  -0.069   5.804   5.833  0.2559  1.6045 -0.2746
27402SOL    HW285099   0.053   5.715   5.849 -0.2250  0.9260 -0.3531
27403SOL     OW85100   9.542   5.059   2.908  0.2778  0.2289  0.2577
27403SOL    HW185101   9.581   5.080   2.993  0.4350 -0.7532  0.4443
27403SOL    HW285102   9.613   5.020   2.858  0.1713  0.7602 -0.3183
27404SOL     OW85103   3.788   7.665   0.016 -0.5687 -0.1537 -0.1228
27404SOL    HW185104   3.700   7.700   0.004 -0.9868 -1.3142 -0.5605
27404SOL    HW285105   3.775   7.577   0.052  0.4510  0.0767  0.8790
27405SOL     OW85106   3.261   0.685   4.005 -0.0891 -0.6169 -0.1933
27405SOL    HW185107   3.309   0.714   4.082  0.7203 -1.9393 -0.1679
27405SOL    HW285108   3.303   0.603   3.980 -0.9949 -0.7306 -1.4396
27406SOL     OW85109   1.032   5.273   7.824  0.1936  0.4079 -0.4944
27406SOL    HW185110   0.980   5.339   7.780  1.7126  2.0912  0.0981
27406SOL    HW285111   0.969   5.218   7.871 -1.0780  1.7212 -0.6388
27407SOL     OW85112   6.507   8.355   1.013 -0.5482  0.5733 -0.6858
27407SOL    HW185113   6.525   8.349   1.107 -0.0219 -1.0101 -0.8532
27407SOL    HW285114   6.533   8.444   0.989 -1.0085  1.1223  0.7170
27408SOL     OW85115   7.812   9.394   6.977  0.1593  0.3054  0.1946
27408SOL    HW185116   7.797   9.361   6.888 -0.8900  0.8526  0.1538
27408SOL    HW285117   7.888   9.451   6.968  1.1437 -0.9802  0.0035
27409SOL     OW85118   1.997   4.318   9.575  0.0824 -0.6365 -0.4702
27409SOL    HW185119   2.013   4.244   9.632  2.1255  0.3297  0.2856
27409SOL    HW285120   2.055   4.304   9.500  0.6751  0.2968 -0.2031
27410SOL     OW85121   5.145   1.056   6.680  0.0652 -0.0663 -0.2540
27410SOL    HW185122   5.092   1.048   6.759 -0.4023  0.5092 -0.5024
27410SOL    HW285123   5.204   0.981   6.682 -1.8673 -1.6677 -0.8345
27411SOL     OW85124   5.975   4.398   4.930  0.0634  0.1215  0.4229
27411SOL    HW185125   5.975   4.395   4.834  4.9270 -0.9493  0.1891
27411SOL    HW285126   5.921   4.324   4.956 -0.6257 -0.1305 -1.5378
27412SOL     OW85127   7.856   1.656   3.173  0.2687  0.7927 -0.6739
27412SOL    HW185128   7.802   1.730   3.146 -1.3233 -0.5642 -1.3868
27412SOL    HW285129   7.941   1.695   3.195 -0.2104  2.6887 -1.9497
27413SOL     OW85130   5.003   4.871   8.193 -0.2747 -0.2125  0.1756
27413SOL    HW185131   5.062   4.828   8.132 -0.2681 -0.1539  0.1402
27413SOL    HW285132   4.948   4.928   8.138 -1.6029 -1.6180 -0.0309
27414SOL     OW85133   6.690   6.634   8.532 -0.6320  0.1546 -0.3261
27414SOL    HW185134   6.728   6.603   8.614  0.8963  1.2739 -0.5625
27414SOL    HW285135   6.721   6.572   8.466 -1.0583 -0.1883 -0.2101
27415SOL     OW85136   2.674   1.575   0.708 -0.4543  1.0150  0.5657
27415SOL    HW185137   2.740   1.536   0.766 -1.9156 -1.0981  0.9163
27415SOL    HW285138   2.707   1.560   0.620 -1.0275 -1.2626  0.6827
27416SOL     OW85139   4.899   2.843   2.236 -0.0828  0.5462 -0.2697
27416SOL    HW185140   4.884   2.925   2.281 -1.0906 -1.3293  3.1573
27416SOL    HW285141   4.819   2.826   2.187 -0.5622  0.8062  0.4175
27417SOL     OW85142   0.972   7.983   8.022  0.2132 -0.4103 -0.0738
27417SOL    HW185143   1.049   7.931   8.044 -0.6261 -1.7092 -0.0543
27417SOL    HW285144   0.898   7.931   8.057 -0.7652  0.0196 -1.4420
27418SOL     OW85145   6.814   8.722   3.531  0.1291  0.2168 -0.3860
27418SOL    HW185146   6.763   8.775   3.470  0.5348 -0.1247 -1.0377
27418SOL    HW285147   6.788   8.753   3.618 -0.5242  0.6472 -0.7291
27419SOL     OW85148   7.739   4.947   9.630 -0.4060  0.1850  0.1091
27419SOL    HW185149   7.708   5.018   9.685 -2.3798 -0.9410  0.5536
27419SOL    HW285150   7.751   4.874   9.690  1.6256  0.1037 -0.3259
27420SOL     OW85151   1.531   2.133   6.041  0.1459 -0.0326 -0.0001
27420SOL    HW185152   1.517   2.227   6.027 -1.3161 -0.2814 -0.3166
27420SOL    HW285153   1.557   2.099   5.956 -1.6005 -0.2964 -0.4494
27421SOL     OW85154   5.013   0.098   7.240 -0.1666  0.2884 -0.6243
27421SOL    HW185155   4.988   0.009   7.263  0.2581  0.5532  1.0044
27421SOL    HW285156   4.936   0.136   7.199  0.1277 -1.2807 -2.8139
27422SOL     OW85157   7.731   2.482   7.873 -0.2769 -0.2320  0.1368
27422SOL    HW185158   7.783   2.561   7.885  0.3248 -0.7285  0.8969
27422SOL    HW285159   7.698   2.461   7.961 -0.6209 -0.6905 -0.0968
27423SOL     OW85160   0.402   0.330   7.516  0.7752 -0.3062  0.1556
27423SOL    HW185161   0.311   0.318   7.545  0.6662 -0.5675 -0.2865
27423SOL    HW285162   0.449   0.258   7.558  0.2524 -1.9571 -1.9012
27424SOL     OW85163   6.621   1.392   5.515  0.4228 -0.0599 -0.1891
27424SOL    HW185164   6.577   1.386   5.430  1.7037  0.4816 -0.9094
27424SOL    HW285165   6.566   1.451   5.567  0.8058  1.4019 -1.4028
27425SOL     OW85166   5.460   5.855   6.215 -0.4315 -0.0584  0.5536
27425SOL    HW185167   5.521   5.828   6.283  0.4541 -2.2910 -1.0201
27425SOL    HW285168   5.515   5.872   6.139 -1.5153  1.0787 -0.0109
27426SOL     OW85169   0.305   9.007   8.618 -0.5227  0.2779  0.1398
27426SOL    HW185170   0.243   8.942   8.583 -0.8882  0.8626 -0.3181
27426SOL    HW285171   0.382   8.955   8.642  0.2337 -0.0666 -2.6485
27427SOL     OW85172   1.738   1.370   2.291 -0.3066 -0.6339 -0.6274
27427SOL    HW185173   1.645   1.385   2.271 -0.8320 -1.2995  1.0824
27427SOL    HW285174   1.736   1.306   2.363  1.4808 -0.4806 -0.4072
27428SOL     OW85175   0.272   0.882   8.245 -0.1653  0.1397  0.5379
27428SOL    HW185176   0.281   0.959   8.301 -0.3224 -0.2908  1.1655
27428SOL    HW285177   0.348   0.829   8.267  0.0595  0.2147 -0.0556
27429SOL     OW85178   7.323   9.607   0.354 -0.0608 -0.7577 -0.7953
27429SOL    HW185179   7.397   9.665   0.369  0.8089 -2.1329  0.5939
27429SOL    HW285180   7.317   9.598   0.259  1.1743 -0.1701 -0.9391
27430SOL     OW85181   1.446   0.808   2.191  0.2438 -0.0235  0.0506
27430SOL    HW185182   1.452   0.836   2.100 -0.4658 -1.5550 -0.5012
27430SOL    HW285183   1.425   0.887   2.239 -2.2222  0.3511 -1.5011
27431SOL     OW85184   3.622   3.034   8.454  0.3935 -0.1345 -0.3225
27431SOL    HW185185   3.565   2.958   8.467 -0.6529  0.8458  1.1506
27431SOL    HW285186   3.569   3.095   8.403  0.6685  0.2047 -0.2052
27432SOL     OW85187   8.312   3.885   5.709 -0.3176  0.3516 -0.3821
27432SOL    HW185188   8.356   3.876   5.625 -1.3480  0.7082 -0.9686
27432SOL    HW285189   8.333   3.804   5.756  1.2993  0.6847 -0.4635
27433SOL     OW85190   4.966   9.013   5.483  0.0752 -0.1563 -0.4289
27433SOL    HW185191   4.987   8.975   5.569  2.5900  0.3574 -0.7363
27433SOL    HW285192   4.921   8.943   5.437  2.2199 -1.9277 -0.0316
27434SOL     OW85193   3.557   8.511   2.714 -0.0259 -0.0967  0.0711
27434SOL    HW185194   3.567   8.418   2.696  2.2591  0.0561  0.2916
27434SOL    HW285195   3.618   8.528   2.785  0.0886  1.7079 -0.4199
27435SOL     OW85196   1.831   3.132   5.823  0.3776 -0.0337  0.2760
27435SOL    HW185197   1.819   3.165   5.734  2.4119 -0.1454 -0.0894
27435SOL    HW285198   1.880   3.050   5.812  0.9789  0.1361  1.4938
27436SOL     OW85199   0.818   1.041   8.219  0.2103  1.0251 -0.2703
27436SOL    HW185200   0.910   1.046   8.245  0.0621 -0.1959  0.5513
27436SOL    HW285201   0.783   1.127   8.240  0.6921  0.8615  1.3554
27437SOL     OW85202   1.020   3.176   8.383  0.2800 -0.2378  0.1347
27437SOL    HW185203   1.074   3.253   8.400  0.7414 -0.4901 -0.1651
27437SOL    HW285204   0.940   3.210   8.343  0.9304 -0.0030 -0.9979
27438SOL     OW85205   5.749   3.772   5.524 -0.0623  0.1566 -0.1424
27438SOL    HW185206   5.832   3.807   5.559  0.2264 -0.4499 -0.2143
27438SOL    HW285207   5.701   3.743   5.602  0.8642 -1.8215 -0.2439
27439SOL     OW85208   3.068   3.167   7.534  0.2510  0.4952  0.5411
27439SOL    HW185209   3.104   3.133   7.452  0.7271 -0.3251  1.0870
27439SOL    HW285210   2.991   3.217   7.506  1.6239  2.0858 -0.6196
27440SOL     OW85211   4.240   9.350   4.142 -0.1645 -0.2062  0.3018
27440SOL    HW185212   4.291   9.396   4.208 -0.3116  0.5033 -0.0778
27440SOL    HW285213   4.217   9.267   4.184  0.3856 -0.0859  0.8625
27441SOL     OW85214   8.046   3.640   8.949 -0.2553 -0.3370 -0.3694
27441SOL    HW185215   8.070   3.619   9.039 -2.9564 -2.0057  0.0783
27441SOL    HW285216   8.128   3.633   8.900  0.7145 -3.1023  1.3789
27442SOL     OW85217   4.211   0.413   8.673  0.0095  0.1894  0.1344
27442SOL    HW185218   4.284   0.469   8.700  0.4297 -0.3883  0.2241
27442SOL    HW285219   4.215   0.338   8.733 -1.3502  0.6719  0.8789
27443SOL     OW85220   4.560   8.086   1.776 -0.7272  0.6383 -0.0779
27443SOL    HW185221   4.612   8.006   1.766 -1.7945 -0.1195  0.1642
27443SOL    HW285222   4.617   8.156   1.744 -0.1097 -0.3354 -1.2125
27444SOL     OW85223   0.157   2.197   2.129  0.0268  0.0712  0.2744
27444SOL    HW185224   0.156   2.110   2.088  0.6916 -0.0765  0.5698
27444SOL    HW285225   0.140   2.258   2.057 -0.1787 -0.2807  0.0216
27445SOL     OW85226   3.523   0.220   8.589  0.2407  0.7291 -0.0115
27445SOL    HW185227   3.535   0.258   8.676 -0.6495  1.0552 -0.0272
27445SOL    HW285228   3.591   0.262   8.536 -0.3510  1.8947  0.1128
27446SOL     OW85229   3.048   5.312   4.983 -0.0710 -0.3506 -0.3633
27446SOL    HW185230   2.984   5.362   5.033 -0.5038 -0.4630 -0.7941
27446SOL    HW285231   3.024   5.220   4.997  0.8883 -0.4629  0.6467
27447SOL     OW85232   8.649   2.336   0.855  0.0019 -0.2161 -0.3050
27447SOL    HW185233   8.744   2.343   0.856 -0.0690  1.9851 -1.8082
27447SOL    HW285234   8.628   2.303   0.768 -0.6257  0.0518 -0.2625
27448SOL     OW85235   2.523   8.832   8.164 -0.4613  0.5915  0.3819
27448SOL    HW185236   2.428   8.831   8.176 -0.4590  0.3706  0.3958
27448SOL    HW285237   2.536   8.788   8.080 -0.4508  1.7600 -0.2476
27449SOL     OW85238   6.465   2.674   6.261 -1.0530  0.1334 -0.6091
27449SOL    HW185239   6.502   2.705   6.344 -1.1821 -1.2151 -0.0167
27449SOL    HW285240   6.542   2.657   6.206 -0.9065 -0.0780 -0.3440
27450SOL     OW85241   8.808   8.239   6.974 -0.2195  0.1155  0.6591
27450SOL    HW185242   8.738   8.246   7.039  0.0574  0.0462  0.9653
27450SOL    HW285243   8.880   8.197   7.020  0.0599  0.2704  0.3702
27451SOL     OW85244   2.672   0.124   4.493 -1.0191  0.8878  0.0533
27451SOL    HW185245   2.617   0.121   4.572 -0.7524 -0.3644  0.2126
27451SOL    HW285246   2.648   0.045   4.444  2.5355 -1.3845  1.5073
27452SOL     OW85247   8.283   4.010   4.638 -0.3295  0.1468  0.1141
27452SOL    HW185248   8.357   4.070   4.645 -0.5451  0.5242 -0.7228
27452SOL    HW285249   8.278   3.989   4.545 -1.3843  0.2778  0.1333
27453SOL     OW85250   3.415   1.435   0.490  0.5680  0.6415 -0.0949
27453SOL    HW185251   3.395   1.361   0.433 -0.6587  0.5879  0.3798
27453SOL    HW285252   3.450   1.502   0.431 -2.4264  1.2963 -1.2968
27454SOL     OW85253   9.399   8.463   6.145  0.4550 -0.4540 -0.3878
27454SOL    HW185254   9.428   8.554   6.157  0.4033 -0.5981  0.9532
27454SOL    HW285255   9.480   8.412   6.151  0.2552 -0.6502  0.9053
27455SOL     OW85256   2.445   8.818   2.654 -0.0077  0.4149 -0.2885
27455SOL    HW185257   2.526   8.798   2.701 -0.5396  1.8579  1.3503
27455SOL    HW285258   2.382   8.838   2.723 -0.9557  2.1599 -1.5734
27456SOL     OW85259   6.490   7.356   4.256 -0.3629 -0.1917 -0.1422
27456SOL    HW185260   6.436   7.426   4.291 -1.9224 -1.6415  0.5133
27456SOL    HW285261   6.549   7.399   4.194 -1.3573  1.6416  0.1239
27457SOL     OW85262   8.971   2.897   2.777 -0.8042 -0.4714  0.1729
27457SOL    HW185263   9.033   2.935   2.715 -1.9753  1.6079  0.1876
27457SOL    HW285264   8.948   2.970   2.835 -2.0815 -1.5831  1.1140
27458SOL     OW85265   7.223   4.939   5.357  0.4809  0.0185 -0.7917
27458SOL    HW185266   7.245   4.905   5.444  1.0443 -1.0265 -1.3225
27458SOL    HW285267   7.264   4.878   5.296 -1.8205 -0.6195 -1.8291
27459SOL     OW85268   4.242   2.510   4.644  0.2311 -0.5132 -0.3604
27459SOL    HW185269   4.174   2.458   4.688 -2.3759  2.6997 -0.2096
27459SOL    HW285270   4.293   2.548   4.715 -1.0580  1.0039 -0.1924
27460SOL     OW85271   8.437   3.713   0.390 -0.3396  0.0971  0.0009
27460SOL    HW185272   8.449   3.655   0.314 -2.4291  0.2229 -0.4726
27460SOL    HW285273   8.492   3.790   0.370  0.7313 -0.7417 -0.3880
27461SOL     OW85274   8.158   7.018   6.369 -0.5504 -0.4185 -0.0235
27461SOL    HW185275   8.150   6.963   6.447 -0.4775 -2.7678 -1.5652
27461SOL    HW285276   8.070   7.053   6.355 -0.4282  0.5464  1.4184
27462SOL     OW85277   4.653   6.457   2.699  0.0261 -0.4664 -0.2278
27462SOL    HW185278   4.743   6.446   2.729 -0.0122 -1.2888 -0.3810
27462SOL    HW285279   4.603   6.473   2.779  0.0398 -1.8727  0.0809
27463SOL     OW85280   7.193   3.269   5.054 -0.2236  0.0652 -0.3628
27463SOL    HW185281   7.157   3.319   4.980 -0.4040  1.5470  0.6768
27463SOL    HW285282   7.131   3.197   5.066 -0.5931  0.2282 -1.1955
27464SOL     OW85283   5.292   8.363   2.498 -0.0488  0.2782  0.6093
27464SOL    HW185284   5.383   8.355   2.469 -0.6903  0.3089 -1.5677
27464SOL    HW285285   5.265   8.449   2.469 -0.2301  1.1452  3.0850
27465SOL     OW85286   7.671   3.327   5.610  0.7143  0.2053 -0.1451
27465SOL    HW185287   7.750   3.291   5.571  0.7824  0.0424  0.1381
27465SOL    HW285288   7.600   3.293   5.556  0.8571  0.6111 -0.5914
27466SOL     OW85289   1.752   0.359   2.036  0.0771  0.2071  0.1520
27466SOL    HW185290   1.734   0.311   2.116  1.4415 -0.6595 -0.0278
27466SOL    HW285291   1.740   0.451   2.059 -0.2421 -0.0775  1.1427
27467SOL     OW85292   5.116   8.024   4.441 -0.4314  0.4198  0.0380
27467SOL    HW185293   5.170   8.101   4.422  0.3851 -0.1215  0.1150
27467SOL    HW285294   5.026   8.054   4.428 -0.1681  1.5900  0.7934
27468SOL     OW85295   3.854   7.765   9.302  0.0834  0.1357 -0.4124
27468SOL    HW185296   3.801   7.718   9.237 -1.0314 -0.6871  1.0349
27468SOL    HW285297   3.799   7.838   9.330  0.0362 -0.2307  0.4845
27469SOL     OW85298   9.110   8.882   0.519 -0.5940  0.5778 -0.3860
27469SOL    HW185299   9.146   8.968   0.497  0.6911  0.4508  1.0288
27469SOL    HW285300   9.185   8.823   0.517 -0.8925  0.0645  1.5047
27470SOL     OW85301   8.381   2.978   2.454  0.2178 -0.5090 -0.9187
27470SOL    HW185302   8.393   2.883   2.443 -1.6897 -0.8060 -0.8359
27470SOL    HW285303   8.336   2.987   2.538 -0.7561  0.3377 -1.5027
27471SOL     OW85304   9.430   8.764   4.879 -0.4480  0.4575 -0.1629
27471SOL    HW185305   9.469   8.708   4.812  0.8041 -0.6606  1.4347
27471SOL    HW285306   9.336   8.744   4.875 -0.3220  0.0289 -1.2302
27472SOL     OW85307   2.450   4.282   5.536  0.0457  0.1332  0.2571
27472SOL    HW185308   2.443   4.187   5.545 -2.1529  0.0607 -1.4753
27472SOL    HW285309   2.544   4.297   5.520  0.6375 -1.5790  1.7817
27473SOL     OW85310   3.264   6.159   3.702 -0.6182 -0.1985 -0.0646
27473SOL    HW185311   3.353   6.149   3.669 -0.9046 -0.7396 -0.6907
27473SOL    HW285312   3.224   6.224   3.645 -0.9023 -0.6360 -0.3772
27474SOL     OW85313   1.559   2.099   4.784 -0.4742  0.0960 -0.4525
27474SOL    HW185314   1.485   2.159   4.774  0.0932  0.9376  0.2821
27474SOL    HW285315   1.548   2.061   4.872  0.2361  0.6064 -0.1388
27475SOL     OW85316   9.409   1.457   3.967  0.0695 -0.4147 -0.1817
27475SOL    HW185317   9.348   1.528   3.984 -0.3184 -0.5429 -0.9677
27475SOL    HW285318   9.354   1.379   3.960  0.4014 -0.6547 -0.1556
27476SOL     OW85319   5.158   6.772   2.504 -0.3905  0.3619  0.0252
27476SOL    HW185320   5.114   6.748   2.586  0.9000  1.7064  1.1617
27476SOL    HW285321   5.221   6.701   2.489 -1.2141 -0.3176 -0.2823
27477SOL     OW85322   4.035   7.842   2.294  0.3083  0.2153 -0.0553
27477SOL    HW185323   4.026   7.753   2.328 -0.6454  0.6996  1.0379
27477SOL    HW285324   4.025   7.898   2.371 -0.5782  1.3030 -0.9264
27478SOL     OW85325   8.901   5.140   6.638  0.2037 -0.2096  0.0802
27478SOL    HW185326   8.859   5.154   6.723 -0.0253 -0.9437  0.0973
27478SOL    HW285327   8.987   5.180   6.647  0.2963 -0.5459  0.7680
27479SOL     OW85328   8.467   2.306   0.102  0.1619  0.1880  0.1016
27479SOL    HW185329   8.444   2.214   0.113 -0.0133  0.3872  1.6216
27479SOL    HW285330   8.519   2.309   0.022 -0.5628 -1.0914 -0.4385
27480SOL     OW85331   2.785   5.745   4.293 -0.0071  0.1658  0.2382
27480SOL    HW185332   2.743   5.750   4.379  2.3437  1.6606  1.3910
27480SOL    HW285333   2.757   5.824   4.248  1.7081  1.3166  1.1217
27481SOL     OW85334   9.475   3.421   9.594  0.2971  0.1135 -0.2622
27481SOL    HW185335   9.511   3.507   9.575  1.6572 -0.5230 -0.6750
27481SOL    HW285336   9.433   3.431   9.680  1.7190  0.8199  0.3898
27482SOL     OW85337   0.582   1.313   9.452 -0.1857 -0.3152  0.4532
27482SOL    HW185338   0.629   1.394   9.431  2.3639 -1.4312  1.4493
27482SOL    HW285339   0.503   1.343   9.496  0.3748  1.6514  0.2325
27483SOL     OW85340   1.545   0.700   6.318  0.0217  0.3884 -0.6936
27483SOL    HW185341   1.592   0.777   6.287 -0.0484  0.1597 -1.3767
27483SOL    HW285342   1.511   0.726   6.404  0.5707  0.8822 -0.6188
27484SOL     OW85343   9.441   5.405   5.863 -0.3706  0.1757  0.3556
27484SOL    HW185344   9.384   5.453   5.923  0.7210  0.6871  1.0135
27484SOL    HW285345   9.511   5.371   5.918 -0.2147 -0.7474 -0.3861
27485SOL     OW85346   5.235   5.287   5.626 -0.2867  0.3684  0.7259
27485SOL    HW185347   5.156   5.325   5.587 -0.1528  1.1388  1.1883
27485SOL    HW285348   5.260   5.349   5.695 -0.0979 -0.5875  1.5424
27486SOL     OW85349   3.805   5.399   8.944 -0.3930  0.3672 -0.0509
27486SOL    HW185350   3.818   5.347   8.865  0.0266 -0.1833  0.3725
27486SOL    HW285351   3.735   5.461   8.921  0.8295  1.3293 -1.3799
27487SOL     OW85352   1.968   2.594   5.845 -0.0939  0.7555  0.6320
27487SOL    HW185353   1.949   2.688   5.838 -0.8081  0.6692  1.2635
27487SOL    HW285354   2.058   2.590   5.877  0.4699  1.2002 -0.8251
27488SOL     OW85355   1.299   9.639   3.271  0.3412 -0.3428  0.1385
27488SOL    HW185356   1.354   9.590   3.209 -0.1516  0.6494 -1.1399
27488SOL    HW285357   1.361   9.689   3.324  0.7614 -0.8534  0.1346
27489SOL     OW85358   2.715   6.876   3.774 -0.3261 -0.4219  0.0956
27489SOL    HW185359   2.723   6.955   3.720 -2.8285  0.1500  0.4686
27489SOL    HW285360   2.633   6.887   3.821 -1.7804 -4.0929 -1.2385
27490SOL     OW85361   1.973   8.017   1.534  0.2526  0.1955  0.0353
27490SOL    HW185362   1.988   8.010   1.629  1.5317 -0.3989 -0.1857
27490SOL    HW285363   1.939   7.931   1.509  3.7513 -1.1756 -0.6299
27491SOL     OW85364   9.016   4.994   8.571  0.5838  0.1777  0.4451
27491SOL    HW185365   9.109   4.984   8.587  0.9267  0.9914 -0.8206
27491SOL    HW285366   8.995   4.928   8.505  0.2663  0.0291  0.6883
27492SOL     OW85367   3.682   4.025   3.534 -0.3364 -0.2967 -0.5138
27492SOL    HW185368   3.657   4.008   3.625 -1.8682 -0.3427 -0.9092
27492SOL    HW285369   3.605   3.998   3.483  0.8068 -1.0795 -1.8967
27493SOL     OW85370   4.815   2.870   3.252  0.0600 -0.1367 -0.2715
27493SOL    HW185371   4.725   2.862   3.221  0.1883 -3.2101 -0.1614
27493SOL    HW285372   4.806   2.881   3.347 -0.1735  1.4148 -0.4421
27494SOL     OW85373   7.747   5.755   0.676  0.0012 -0.2623 -0.1866
27494SOL    HW185374   7.684   5.738   0.746 -0.5655 -2.4870 -1.1347
27494SOL    HW285375   7.775   5.845   0.690 -2.4235  0.3957  1.0451
27495SOL     OW85376   7.495   5.466   0.662 -0.5016  0.2740 -0.2603
27495SOL    HW185377   7.513   5.510   0.745 -0.0737 -0.7409  0.2125
27495SOL    HW285378   7.416   5.507   0.628  1.3770  3.3669 -1.2766
27496SOL     OW85379   6.468   8.447   2.730  0.0188  0.0926 -0.4351
27496SOL    HW185380   6.456   8.372   2.672 -0.9261  0.3227 -0.5564
27496SOL    HW285381   6.380   8.465   2.764  0.3657  0.6838  0.1687
27497SOL     OW85382   9.362   6.417   0.037  0.2198  0.6537 -0.0654
27497SOL    HW185383   9.373   6.322   0.045 -0.9719  0.0789 -3.4352
27497SOL    HW285384   9.292   6.438   0.100 -2.5560 -1.5874 -2.1006
27498SOL     OW85385   2.715   3.497   8.814 -0.1385  0.1628  0.8476
27498SOL    HW185386   2.690   3.572   8.868  1.6520  1.3216  0.1465
27498SOL    HW285387   2.636   3.475   8.764 -0.7588  1.4034  1.2537
27499SOL     OW85388   0.100   6.921   1.160 -0.2424  0.3512 -0.0031
27499SOL    HW185389   0.118   6.921   1.254 -1.4974  1.0708  0.2676
27499SOL    HW285390   0.006   6.908   1.154 -0.5220  2.4484 -1.0506
27500SOL     OW85391   0.425   1.528   2.297 -0.0344 -0.2311  0.1465
27500SOL    HW185392   0.388   1.442   2.278 -1.7225  0.4227  0.3196
27500SOL    HW285393   0.394   1.549   2.385 -0.9274  1.1765 -0.4656
27501SOL     OW85394   1.668   0.865   9.585  0.2337  0.2607 -0.8263
27501SOL    HW185395   1.649   0.955   9.614 -1.0085  0.1447 -1.2321
27501SOL    HW285396   1.651   0.866   9.491  0.2655 -0.3827 -0.8391
27502SOL     OW85397   7.992   2.532   3.999 -0.3284 -0.1113  0.0063
27502SOL    HW185398   7.946   2.452   4.023 -0.1463 -0.4493 -0.7292
27502SOL    HW285399   8.064   2.539   4.062 -0.1631 -0.6961 -0.1098
27503SOL     OW85400   1.708   3.660   0.491  0.6970 -0.1260 -0.0989
27503SOL    HW185401   1.696   3.593   0.423 -0.2901 -1.4716  1.3280
27503SOL    HW285402   1.778   3.625   0.546 -1.7515 -1.5581  2.3497
27504SOL     OW85403   5.705   5.114   8.667 -0.0233  0.4109 -0.5624
27504SOL    HW185404   5.651   5.156   8.601 -2.0003  2.1868  1.9839
27504SOL    HW285405   5.750   5.186   8.711  0.5689 -0.6169  0.5838
27505SOL     OW85406   4.127   7.430   5.273 -0.2742 -0.3548 -0.0542
27505SOL    HW185407   4.033   7.414   5.274 -0.2183 -0.7512 -0.6078
27505SOL    HW285408   4.167   7.343   5.277  0.1154 -0.1292  2.2280
27506SOL     OW85409   7.970   7.909   9.535  0.0028 -0.1124 -0.0077
27506SOL    HW185410   8.036   7.893   9.603  0.1406 -0.4860 -0.2259
27506SOL    HW285411   8.016   7.960   9.468  0.4077 -1.3208 -0.6903
27507SOL     OW85412   5.713   6.738   3.942 -0.1213  0.0049 -0.1656
27507SOL    HW185413   5.630   6.709   3.904 -0.1931  0.5570 -0.4362
27507SOL    HW285414   5.777   6.726   3.872 -0.4184  1.9173 -0.8306
27508SOL     OW85415   5.949   7.159   6.329  0.2637  0.0928  0.2724
27508SOL    HW185416   5.908   7.139   6.413 -1.3505  0.6991 -0.3324
27508SOL    HW285417   5.880   7.148   6.264  0.6700  2.3851 -0.6675
27509SOL     OW85418   5.541   4.606   9.607  0.3016  0.3237 -0.1440
27509SOL    HW185419   5.450   4.605   9.638  0.4426 -1.0776  0.3194
27509SOL    HW285420   5.572   4.694   9.627 -0.4948  0.3544  1.1178
27510SOL     OW85421   8.330   2.683   3.422  0.1184  0.3472 -0.1340
27510SOL    HW185422   8.350   2.703   3.330  0.0110  1.5359  0.0835
27510SOL    HW285423   8.370   2.598   3.437 -0.1685 -0.0316 -1.3843
27511SOL     OW85424   1.057   1.925   6.019  0.1489 -0.5133 -0.1883
27511SOL    HW185425   1.068   1.984   6.094  0.2731 -0.2986 -0.3724
27511SOL    HW285426   0.999   1.973   5.960  0.2490 -0.5784 -0.3393
27512SOL     OW85427   7.395   5.449   3.866 -0.0612  0.1975  0.1220
27512SOL    HW185428   7.423   5.402   3.787  0.2584  0.0393  0.3247
27512SOL    HW285429   7.476   5.458   3.917 -0.4258 -0.4858  0.8372
27513SOL     OW85430   5.204   5.644   6.137 -0.1955 -0.1105  0.0170
27513SOL    HW185431   5.247   5.710   6.083  0.7284 -0.3766  0.3968
27513SOL    HW285432   5.148   5.694   6.196  0.3181  0.3209  0.1463
27514SOL     OW85433   5.592   3.374   0.495 -0.0111  0.3497 -0.0694
27514SOL    HW185434   5.559   3.375   0.584 -0.8074 -0.7447 -0.3320
27514SOL    HW285435   5.648   3.452   0.489 -0.2407  0.6367  1.2551
27515SOL     OW85436   7.755   8.273   4.926 -0.8637 -0.3155 -0.2334
27515SOL    HW185437   7.672   8.261   4.972 -0.0197  0.0554  1.4558
27515SOL    HW285438   7.791   8.184   4.919  0.3606 -0.1319  2.5578
27516SOL     OW85439   3.488   6.181   2.730  0.4649  0.3376 -0.0764
27516SOL    HW185440   3.408   6.207   2.774 -0.4964 -0.8698 -1.0401
27516SOL    HW285441   3.503   6.249   2.664  0.3324  0.6447  0.2089
27517SOL     OW85442   4.425   3.383   5.275  0.2818  0.2227  0.1580
27517SOL    HW185443   4.505   3.423   5.241  1.0849 -1.1498  0.3731
27517SOL    HW285444   4.424   3.405   5.368  0.8546 -0.4595  0.3298
27518SOL     OW85445   5.047   4.717   5.303  0.3902  0.0035 -0.5473
27518SOL    HW185446   5.118   4.782   5.297 -0.6505  1.4054  1.1796
27518SOL    HW285447   4.967   4.770   5.308 -0.7557 -1.5266 -1.8288
27519SOL     OW85448   0.936   5.478   7.683  0.1300 -0.6319 -0.3051
27519SOL    HW185449   0.988   5.475   7.602 -1.3192  1.9278 -1.4477
27519SOL    HW285450   0.847   5.456   7.656 -0.3624  0.1585  0.5851
27520SOL     OW85451   6.379   5.230   3.380 -0.0271  0.2317  0.4703
27520SOL    HW185452   6.317   5.303   3.375 -1.0308 -0.6551 -0.5610
27520SOL    HW285453   6.329   5.157   3.415  0.2200 -0.6746 -0.9547
27521SOL     OW85454   4.492   6.698   1.119 -0.4021  0.0739  0.4866
27521SOL    HW185455   4.535   6.782   1.101  0.2948 -0.3723  0.0658
27521SOL    HW285456   4.537   6.664   1.196 -1.3677  0.5479  1.2982
27522SOL     OW85457   5.922   9.033   2.766 -0.5215 -0.1750  0.2135
27522SOL    HW185458   5.960   9.104   2.715 -1.3231  0.0443 -0.0893
27522SOL    HW285459   5.982   9.022   2.840 -0.7071  1.2372  0.5976
27523SOL     OW85460   8.790   3.835   9.000 -0.6201  0.0611 -0.5491
27523SOL    HW185461   8.752   3.828   9.088  2.6122 -3.0022  0.8390
27523SOL    HW285462   8.818   3.927   8.994 -0.3869  0.2361  1.9221
27524SOL     OW85463   0.509   2.386   3.386  0.2799 -0.7407  0.0782
27524SOL    HW185464   0.463   2.447   3.443  0.0773 -0.4983 -0.3395
27524SOL    HW285465   0.467   2.301   3.402 -1.3871 -0.2613 -1.4208
27525SOL     OW85466   7.085   8.111   4.622  0.0953  0.5052  0.1597
27525SOL    HW185467   7.072   8.020   4.649 -0.9555 -0.1231 -2.1822
27525SOL    HW285468   7.109   8.106   4.529  1.7473  2.5608  0.3926
27526SOL     OW85469   1.056   0.109   4.384  0.4337 -0.2580 -0.4030
27526SOL    HW185470   1.075   0.061   4.464  0.0764 -0.2605 -0.3220
27526SOL    HW285471   1.092   0.196   4.399 -0.9605  0.2164  0.3547
27527SOL     OW85472   4.913   6.923   1.130 -0.0415 -0.1926 -0.1627
27527SOL    HW185473   4.911   6.837   1.087 -1.5666  0.0798 -0.6921
27527SOL    HW285474   4.997   6.961   1.104 -0.1515 -0.7765 -1.4308
27528SOL     OW85475   7.838   8.770   7.944 -0.7481  0.4901 -0.2916
27528SOL    HW185476   7.761   8.727   7.908 -0.5009 -1.3624  1.2544
27528SOL    HW285477   7.812   8.797   8.032  0.6502 -1.1976  0.7049
27529SOL     OW85478   6.667   3.883   8.851 -0.4404  0.0035 -0.7809
27529SOL    HW185479   6.605   3.891   8.923 -0.3929 -0.4486 -0.6898
27529SOL    HW285480   6.622   3.922   8.776 -0.6918  0.0033 -0.6319
27530SOL     OW85481   8.121   1.433   3.651 -0.2996 -0.4835  0.5945
27530SOL    HW185482   8.027   1.421   3.664 -0.2853  0.8885  2.1215
27530SOL    HW285483   8.145   1.363   3.590 -2.2958 -0.8589  0.1724
27531SOL     OW85484   5.549   0.872   1.360  0.0294 -0.1414 -0.7260
27531SOL    HW185485   5.481   0.861   1.294 -0.4194 -2.0232  0.0114
27531SOL    HW285486   5.572   0.783   1.387  1.2123  0.5344  0.6373
27532SOL     OW85487   6.766   5.411   7.528  0.3684  0.5086 -0.3636
27532SOL    HW185488   6.701   5.349   7.563  0.0120  0.6456 -0.7729
27532SOL    HW285489   6.850   5.367   7.541  0.4605  1.3364  2.3746
27533SOL     OW85490   2.445   2.659   1.111  0.6829  0.0145 -0.2811
27533SOL    HW185491   2.480   2.650   1.200 -2.6648  0.0897  1.1877
27533SOL    HW285492   2.501   2.724   1.069  0.6609  2.2288  2.8161
27534SOL     OW85493   5.115   2.496   8.062 -0.1488  0.1271  0.2248
27534SOL    HW185494   5.076   2.493   8.149  0.4458 -0.5437  0.4798
27534SOL    HW285495   5.114   2.589   8.038  1.4641  0.6012  1.7769
27535SOL     OW85496   0.345   8.363   3.550  0.3487  0.3169 -0.6221
27535SOL    HW185497   0.284   8.331   3.483 -1.1384  2.0686 -0.1899
27535SOL    HW285498   0.412   8.411   3.501  0.0476  0.4012 -0.9547
27536SOL     OW85499   7.925   5.951   3.568 -0.0871 -0.2785  0.2865
27536SOL    HW185500   7.976   6.027   3.542 -2.0074  1.5383  1.4846
27536SOL    HW285501   7.841   5.961   3.522 -1.3938 -0.1120  2.5645
27537SOL     OW85502   0.273   3.248   4.461  0.6615 -0.0275 -0.4283
27537SOL    HW185503   0.221   3.325   4.436 -0.3608 -1.0146 -1.4433
27537SOL    HW285504   0.350   3.253   4.405  0.1383 -0.2518 -1.1761
27538SOL     OW85505   7.877   6.800   7.055 -0.6964 -0.4529  0.0893
27538SOL    HW185506   7.925   6.853   7.118 -2.3084  2.2688 -0.8176
27538SOL    HW285507   7.893   6.709   7.083  0.5374  0.5320  2.9630
27539SOL     OW85508   1.793   0.886   3.215  0.3211  1.4294  0.0336
27539SOL    HW185509   1.883   0.867   3.240 -0.2151  2.3584  3.0247
27539SOL    HW285510   1.747   0.803   3.226  0.5019  1.3436  0.1485
27540SOL     OW85511   6.860   7.478   6.521 -0.0104  0.0266  0.2691
27540SOL    HW185512   6.851   7.445   6.432  0.5444  1.1565 -0.2200
27540SOL    HW285513   6.772   7.504   6.546 -0.4809 -1.7984  0.6883
27541SOL     OW85514   0.758   3.017   3.863 -0.6278 -0.5367 -0.4592
27541SOL    HW185515   0.846   3.028   3.827 -1.1789 -1.0196 -2.0700
27541SOL    HW285516   0.767   2.946   3.926  0.6243  1.1546  1.3765
27542SOL     OW85517   3.647   8.594   0.908  0.3562  0.1171  0.0197
27542SOL    HW185518   3.650   8.520   0.848  0.4857 -0.4680  0.7424
27542SOL    HW285519   3.717   8.578   0.971 -0.4335  0.1811  0.9435
27543SOL     OW85520   6.438   7.728   3.674 -0.7008  0.6407  0.0500
27543SOL    HW185521   6.528   7.747   3.700 -0.3352  1.4030 -1.6639
27543SOL    HW285522   6.446   7.679   3.592 -1.8028  2.9288 -1.5504
27544SOL     OW85523   6.656   2.585   7.750 -0.1405 -0.4988  0.1399
27544SOL    HW185524   6.578   2.632   7.781  0.4943  0.6525  0.0688
27544SOL    HW285525   6.661   2.607   7.657 -1.0561 -2.5196 -0.4274
27545SOL     OW85526   3.540   1.269   0.108 -0.1020 -0.0915  0.3816
27545SOL    HW185527   3.606   1.215   0.064 -0.1602  0.4147 -0.3505
27545SOL    HW285528   3.460   1.217   0.103  0.3552 -1.0173  1.8820
27546SOL     OW85529   8.755   8.799   0.924  0.1766 -0.1170  0.3583
27546SOL    HW185530   8.791   8.710   0.921  1.9760  0.5729  0.1467
27546SOL    HW285531   8.737   8.821   0.833 -0.0874 -0.1885  0.3924
27547SOL     OW85532   6.763   0.632   1.080 -0.2861 -0.2849 -0.0679
27547SOL    HW185533   6.739   0.725   1.070  0.4783 -0.1126 -0.4519
27547SOL    HW285534   6.857   0.630   1.061 -0.4150 -1.2339 -0.6688
27548SOL     OW85535   8.284   7.151   2.802 -0.4859  0.3763 -0.3102
27548SOL    HW185536   8.221   7.081   2.822 -0.0468 -0.9223 -3.0007
27548SOL    HW285537   8.315   7.131   2.714  0.8375  3.1523 -0.5900
27549SOL     OW85538   2.373   6.813   8.881 -0.2159 -0.6744  0.3620
27549SOL    HW185539   2.313   6.753   8.924  0.3067 -1.5721 -0.1416
27549SOL    HW285540   2.397   6.769   8.799  2.3204 -1.0833  1.2317
27550SOL     OW85541   1.574   8.644   3.356 -0.4846 -0.0225  0.3103
27550SOL    HW185542   1.530   8.718   3.399 -0.7444 -0.0900  0.1685
27550SOL    HW285543   1.520   8.627   3.278  0.3905  0.5896 -0.4518
27551SOL     OW85544   7.239   4.421   6.769 -0.4409  0.2710 -0.5009
27551SOL    HW185545   7.261   4.342   6.817  0.8808  0.0185 -1.4668
27551SOL    HW285546   7.147   4.409   6.744 -1.0207  0.2106  1.4874
27552SOL     OW85547   3.279   9.561   8.218  0.3621  0.3193 -0.1537
27552SOL    HW185548   3.321   9.586   8.301 -0.8469 -3.4622  1.8536
27552SOL    HW285549   3.185   9.573   8.234  0.0082 -1.7978 -0.3387
27553SOL     OW85550   5.228   2.971   2.575  0.0877 -0.0685 -0.2293
27553SOL    HW185551   5.318   3.003   2.584 -0.0154  0.3171 -0.5672
27553SOL    HW285552   5.215   2.964   2.481 -0.8958  1.7688 -0.2732
27554SOL     OW85553   0.099   6.942   0.881  0.4381  0.2624  0.6762
27554SOL    HW185554   0.073   7.034   0.888  0.9823  0.3306  2.4427
27554SOL    HW285555   0.123   6.918   0.971  0.8860 -1.4322  0.1291
27555SOL     OW85556   6.477   2.654   3.513  0.4011 -0.0307  0.0766
27555SOL    HW185557   6.492   2.597   3.437 -0.2155  0.4066 -0.3807
27555SOL    HW285558   6.544   2.722   3.504 -0.3577  0.6395 -0.7013
27556SOL     OW85559   8.370   5.863   6.387 -0.4975  0.2581 -0.0789
27556SOL    HW185560   8.396   5.893   6.300  1.0512  1.3791  0.7233
27556SOL    HW285561   8.441   5.804   6.414 -1.3326 -0.6671  0.1594
27557SOL     OW85562   8.556   6.343   6.064 -0.1560  0.1723  0.2516
27557SOL    HW185563   8.617   6.357   6.136  0.3616 -2.4292  0.4306
27557SOL    HW285564   8.479   6.303   6.105 -1.5203  2.1905 -0.1684
27558SOL     OW85565   9.449   8.449   5.179  0.4058  0.2800 -0.3266
27558SOL    HW185566   9.444   8.524   5.237 -0.7983 -0.4365  0.5558
27558SOL    HW285567   9.359   8.416   5.175  0.9856 -1.4000 -0.3008
27559SOL     OW85568   5.556   1.296   5.872 -0.0424  0.0689 -0.4758
27559SOL    HW185569   5.591   1.376   5.910  1.2163 -1.0590  0.8440
27559SOL    HW285570   5.633   1.246   5.845 -0.5834 -1.9458  1.3781
27560SOL     OW85571   7.081   9.277   1.141 -0.1868 -0.7397  0.1400
27560SOL    HW185572   7.007   9.313   1.190 -0.2741 -0.2135 -0.3625
27560SOL    HW285573   7.053   9.190   1.113  0.2521 -1.4768  1.8933
27561SOL     OW85574   3.827   7.674   5.271  0.2335 -0.0542 -0.4516
27561SOL    HW185575   3.772   7.743   5.307  2.2552  1.3726  0.0812
27561SOL    HW285576   3.811   7.598   5.327 -1.6341  0.0794 -0.7335
27562SOL     OW85577   1.907   4.501   5.494 -0.9286  0.0059  0.0348
27562SOL    HW185578   1.827   4.518   5.543 -0.3161  1.3550  0.6182
27562SOL    HW285579   1.961   4.579   5.508  0.3205 -0.6958 -0.6753
27563SOL     OW85580   6.286   3.369   6.647  0.1205 -0.0257 -0.3898
27563SOL    HW185581   6.246   3.309   6.710 -0.4478  0.3269 -0.4092
27563SOL    HW285582   6.249   3.342   6.563  2.1928 -1.6469 -0.8713
27564SOL     OW85583   3.616   6.145   7.115 -0.1022 -0.1120  0.3917
27564SOL    HW185584   3.605   6.210   7.184  0.0818 -1.4809  1.7685
27564SOL    HW285585   3.544   6.161   7.055 -0.7059  0.6550  1.2950
27565SOL     OW85586   2.333   2.767   9.012  0.6409  0.3292 -0.4800
27565SOL    HW185587   2.389   2.760   8.935  0.8192  0.4948 -0.3669
27565SOL    HW285588   2.385   2.727   9.082  1.4113  2.1257  0.0428
27566SOL     OW85589   9.127   8.832   2.698 -0.2918  0.2208  0.0465
27566SOL    HW185590   9.124   8.919   2.659 -0.7023 -0.2726 -1.0734
27566SOL    HW285591   9.047   8.827   2.750 -0.8366  0.1262 -0.7799
27567SOL     OW85592   8.781   5.466   1.877 -0.2806 -0.6531  0.0979
27567SOL    HW185593   8.860   5.411   1.881 -0.0750 -0.3597  0.0785
27567SOL    HW285594   8.776   5.493   1.785  1.5504  2.1579  0.7074
27568SOL     OW85595   7.924   2.851   8.549 -0.7875  0.1718 -0.0192
27568SOL    HW185596   7.880   2.896   8.621 -0.2589 -0.2375  0.5721
27568SOL    HW285597   7.897   2.760   8.557  0.0810 -0.0683  0.2945
27569SOL     OW85598   4.302   1.222   8.272  0.2761  0.3902 -0.1646
27569SOL    HW185599   4.243   1.167   8.220  0.9761 -1.1050  0.5324
27569SOL    HW285600   4.303   1.306   8.227 -0.1073 -0.4522 -1.8508
27570SOL     OW85601   1.174   3.058   1.254  0.3576 -0.4646 -0.9683
27570SOL    HW185602   1.110   3.016   1.196  0.8256  0.0919 -1.9245
27570SOL    HW285603   1.182   2.999   1.329 -1.0802 -0.6684 -0.9465
27571SOL     OW85604   7.588   2.840   2.862 -0.1471  0.4746  0.7412
27571SOL    HW185605   7.565   2.837   2.769  1.9517  1.0540  0.1515
27571SOL    HW285606   7.540   2.916   2.895 -2.1088 -0.6091  0.5337
27572SOL     OW85607   7.457   7.443   5.796 -0.3211 -0.1092  0.5842
27572SOL    HW185608   7.502   7.509   5.743 -0.1774 -0.0100  0.8286
27572SOL    HW285609   7.456   7.480   5.885 -0.0179 -0.5476  0.7721
27573SOL     OW85610   6.846   8.571   8.659  0.3052  0.0568  0.2183
27573SOL    HW185611   6.813   8.643   8.606  1.7074  1.0762  0.6803
27573SOL    HW285612   6.889   8.613   8.733  2.2306 -1.1694 -0.1285
27574SOL     OW85613   7.458   2.412   2.291  0.5202  0.4485  0.3883
27574SOL    HW185614   7.465   2.508   2.292  1.4634  0.4123 -0.3556
27574SOL    HW285615   7.381   2.394   2.238  0.2147  0.8019  0.7116
27575SOL     OW85616   7.907   7.726   8.103 -0.2149  0.2342 -0.5091
27575SOL    HW185617   7.893   7.820   8.093  0.0358  0.5626  1.6999
27575SOL    HW285618   7.998   7.712   8.078 -0.6086  0.3312 -2.0840
27576SOL     OW85619   3.879   8.549   4.641  0.3494 -0.6904 -0.5114
27576SOL    HW185620   3.804   8.562   4.698 -0.4093  1.3056 -1.8492
27576SOL    HW285621   3.954   8.548   4.700 -0.3709  1.5153  0.5373
27577SOL     OW85622   6.158   5.288   8.211  0.3711  0.0813 -0.0695
27577SOL    HW185623   6.126   5.300   8.121 -0.4854  0.0577  0.2175
27577SOL    HW285624   6.155   5.193   8.224  0.4740  0.0870 -0.0096
27578SOL     OW85625   5.153   1.445   0.970  0.0828  0.3844 -0.0545
27578SOL    HW185626   5.067   1.440   0.928  0.2342 -2.9211 -0.2788
27578SOL    HW285627   5.140   1.408   1.057  1.1014  0.7358  0.2666
27579SOL     OW85628   5.647   7.171   0.092 -0.2018 -0.1943  0.0121
27579SOL    HW185629   5.631   7.266   0.097 -3.2764 -0.5964  0.1092
27579SOL    HW285630   5.690   7.158   0.008  1.3366  1.3734  0.5132
27580SOL     OW85631   1.690   8.600   8.819  0.6250 -0.0917 -0.7444
27580SOL    HW185632   1.754   8.664   8.789  0.1088  0.1991 -1.2375
27580SOL    HW285633   1.673   8.545   8.742 -0.6459  0.6110 -0.9898
27581SOL     OW85634   0.070   1.209   5.105  0.2244 -0.4828  0.2648
27581SOL    HW185635   0.155   1.167   5.112  1.4495  1.5630 -1.2392
27581SOL    HW285636   0.088   1.295   5.066 -2.5557 -0.0848 -0.3975
27582SOL     OW85637   4.791   8.836   2.385  0.0247 -0.2410  0.3780
27582SOL    HW185638   4.849   8.824   2.310 -0.7575  0.4468 -0.3572
27582SOL    HW285639   4.847   8.877   2.452  0.5953 -0.3786 -0.0030
27583SOL     OW85640   3.692   5.375   5.791  0.6785 -0.2393 -0.1555
27583SOL    HW185641   3.642   5.396   5.869 -0.8718 -1.5443 -0.7257
27583SOL    HW285642   3.644   5.418   5.719  0.3921 -1.4324 -0.7042
27584SOL     OW85643   8.395   7.282   8.720 -0.0305 -0.0135  0.0063
27584SOL    HW185644   8.303   7.272   8.746  0.2359 -2.1267  0.2982
27584SOL    HW285645   8.441   7.213   8.768  1.9403  1.7715  0.7980
27585SOL     OW85646   0.260   9.269   8.675 -0.5344  0.6480 -0.3824
27585SOL    HW185647   0.278   9.178   8.652  2.0163  0.8409  0.4961
27585SOL    HW285648   0.182   9.265   8.730 -1.1739 -0.8389 -1.3339
27586SOL     OW85649   6.373   4.640   4.949 -0.1802 -0.3492  0.0333
27586SOL    HW185650   6.388   4.683   4.865  1.5149  1.3787  1.1434
27586SOL    HW285651   6.422   4.558   4.942 -0.6106 -0.5441 -0.8803
27587SOL     OW85652   0.686   8.831   6.749  0.4410  0.5749 -0.0055
27587SOL    HW185653   0.630   8.757   6.723 -0.3360  0.3142  2.2274
27587SOL    HW285654   0.639   8.908   6.718 -0.7232  0.3064  1.0233
27588SOL     OW85655   5.408   5.346   3.546 -0.0373 -0.4069  0.0932
27588SOL    HW185656   5.344   5.286   3.509  1.1390  0.4015 -3.7240
27588SOL    HW285657   5.384   5.432   3.512  1.1769  0.4866  1.3327
27589SOL     OW85658   5.286   7.070   1.852  0.4926  0.2205 -0.1202
27589SOL    HW185659   5.320   7.070   1.763  1.0974  0.8843  0.1005
27589SOL    HW285660   5.362   7.052   1.908  0.0253 -0.7182  0.2397
27590SOL     OW85661   9.239   6.302   3.324 -0.2872  0.5291 -0.2538
27590SOL    HW185662   9.283   6.225   3.358 -3.3624 -0.7318  1.2646
27590SOL    HW285663   9.222   6.282   3.232  0.4170  0.1657 -0.3103
27591SOL     OW85664   8.725   5.069   6.829  0.5444  0.1676  0.4739
27591SOL    HW185665   8.797   5.026   6.873  0.5190 -0.7804 -0.3807
27591SOL    HW285666   8.660   5.000   6.815 -0.1649  0.8176  0.4662
27592SOL     OW85667   0.438   3.229   7.950 -0.0456  0.3507 -0.3561
27592SOL    HW185668   0.405   3.318   7.937 -1.9673 -0.3552 -0.6909
27592SOL    HW285669   0.440   3.191   7.862 -1.8052 -0.7219  0.0043
27593SOL     OW85670   1.262   5.346   4.820 -0.5345  0.1639 -0.5334
27593SOL    HW185671   1.230   5.433   4.844  0.5057  1.1709 -2.5176
27593SOL    HW285672   1.192   5.308   4.767  0.1305  1.0306 -2.1079
27594SOL     OW85673   3.748   6.602   1.163  0.0899  0.7912 -0.0878
27594SOL    HW185674   3.668   6.610   1.214 -0.3887  2.0799 -0.9955
27594SOL    HW285675   3.722   6.626   1.074  1.0491 -0.7390 -0.8181
27595SOL     OW85676   3.766   6.471   6.425 -0.7482  0.3372  0.4205
27595SOL    HW185677   3.708   6.409   6.471  0.2257  1.6940  3.8010
27595SOL    HW285678   3.719   6.554   6.426 -0.2386  0.6417 -0.0951
27596SOL     OW85679   0.292   0.527   7.334 -0.4872 -0.0593  0.0549
27596SOL    HW185680   0.343   0.454   7.367 -0.1480 -0.7647 -1.8694
27596SOL    HW285681   0.219   0.536   7.395  0.3137 -0.9742  1.1889
27597SOL     OW85682   1.653   7.944   3.086 -0.1658  0.2989 -0.2249
27597SOL    HW185683   1.645   7.887   3.162  2.7062 -1.6891 -1.2261
27597SOL    HW285684   1.596   7.904   3.020 -0.8990  0.6992  0.1579
27598SOL     OW85685   2.151   7.974   6.848 -0.1615  0.0914 -0.0356
27598SOL    HW185686   2.211   8.031   6.896  0.1506 -0.1807 -0.0939
27598SOL    HW285687   2.184   7.885   6.866 -0.6604 -0.0738  0.0857
27599SOL     OW85688   3.510   3.125   6.663 -0.1872  0.6393 -0.0783
27599SOL    HW185689   3.463   3.082   6.734 -1.6672  1.0494 -0.7624
27599SOL    HW285690   3.602   3.108   6.681 -0.6056 -0.5285  1.1100
27600SOL     OW85691   5.055   2.647   9.637 -0.1209  0.3106  0.5304
27600SOL    HW185692   5.049   2.669   9.544  0.3512  1.3710  0.7315
27600SOL    HW285693   4.965   2.650   9.669 -0.5380 -1.8656 -0.2443
27601SOL     OW85694   0.696   0.738   2.225  0.3866 -0.1106 -0.3127
27601SOL    HW185695   0.729   0.673   2.287 -0.4613  0.7029  1.0666
27601SOL    HW285696   0.657   0.687   2.154  0.0022 -1.1102  0.5881
27602SOL     OW85697   5.310   7.760   6.636  0.0629 -0.2226 -0.2950
27602SOL    HW185698   5.386   7.799   6.679 -0.8828  0.0079  1.2312
27602SOL    HW285699   5.236   7.782   6.693 -0.7582 -2.8821 -0.2009
27603SOL     OW85700   4.375   7.666   1.343 -0.2874 -0.3368  0.4699
27603SOL    HW185701   4.434   7.734   1.377  0.0843  0.9024 -2.3441
27603SOL    HW285702   4.320   7.642   1.418 -0.2126  2.8444  1.7011
27604SOL     OW85703   7.369   5.808   4.101  0.5098 -0.0163 -0.1864
27604SOL    HW185704   7.390   5.841   4.188 -0.0245 -1.1034  0.3712
27604SOL    HW285705   7.451   5.768   4.070  0.2991 -0.9897  0.4655
27605SOL     OW85706   8.924   8.656   2.559  0.7607 -0.2158 -0.3328
27605SOL    HW185707   8.834   8.660   2.526  0.4202  0.8941  0.6649
27605SOL    HW285708   8.925   8.582   2.619  0.1675  0.5138  0.5928
27606SOL     OW85709   9.481   8.261   4.025  0.6800  0.1557  0.2446
27606SOL    HW185710   9.494   8.167   4.013 -0.5559 -0.5660  3.4987
27606SOL    HW285711   9.569   8.297   4.031  1.1719 -0.7540 -1.0185
27607SOL     OW85712   2.394   4.698   0.012 -0.3950 -0.3715  0.1812
27607SOL    HW185713   2.302   4.686   0.033 -0.3952 -0.1253  0.3183
27607SOL    HW285714   2.395   4.716  -0.082 -0.4088 -1.2626  0.0013
27608SOL     OW85715   5.936   7.987   4.879  0.0238  0.0996 -0.4265
27608SOL    HW185716   5.946   8.001   4.973  0.3603  0.2578 -0.4848
27608SOL    HW285717   6.003   8.042   4.839 -1.1998  1.3456 -0.8508
27609SOL     OW85718   8.941   6.971   2.075  0.0366 -0.2397 -0.4238
27609SOL    HW185719   8.860   7.022   2.079 -1.6782 -2.8121  1.4214
27609SOL    HW285720   8.971   6.966   2.166  1.7365 -0.1963 -0.9501
27610SOL     OW85721   4.944   9.094   7.005 -0.5531  0.0804 -0.2240
27610SOL    HW185722   4.934   9.185   7.031 -0.2600  0.2963 -0.8446
27610SOL    HW285723   5.038   9.078   7.012 -0.4032  0.2728 -1.5375
27611SOL     OW85724   8.054   4.904   4.007 -0.1362 -0.2413 -0.3915
27611SOL    HW185725   7.965   4.922   4.035 -0.9855 -0.4888 -2.6844
27611SOL    HW285726   8.081   4.828   4.058 -1.8411 -1.1317 -0.7582
27612SOL     OW85727   5.899   5.134   4.846  0.4973  0.6313  0.2496
27612SOL    HW185728   5.860   5.221   4.857  1.5737  1.2504 -0.5956
27612SOL    HW285729   5.943   5.117   4.929 -0.8460  0.2775  0.9173
27613SOL     OW85730   2.946   3.070   7.280 -0.3725  0.6393  0.3109
27613SOL    HW185731   2.870   3.117   7.312  0.1508  0.6800  1.5292
27613SOL    HW285732   2.918   3.035   7.195 -2.5441 -1.2595  1.6680
27614SOL     OW85733   4.948   6.740   0.585  0.2703 -0.0718 -0.1827
27614SOL    HW185734   5.022   6.792   0.616 -0.2898  0.9336 -0.4420
27614SOL    HW285735   4.873   6.777   0.632  0.1189 -2.1952  1.3740
27615SOL     OW85736   0.211   4.177   1.271  0.2953 -0.0335 -0.0845
27615SOL    HW185737   0.190   4.245   1.207 -0.5046 -1.1593 -1.0689
27615SOL    HW285738   0.273   4.219   1.331  1.2935  0.9947 -1.7418
27616SOL     OW85739   8.180   9.016   1.812 -0.4371  0.0808  0.1749
27616SOL    HW185740   8.096   9.061   1.822 -0.0442  0.4550  2.3477
27616SOL    HW285741   8.157   8.923   1.806 -1.0277  0.1182  1.3999
27617SOL     OW85742   1.484   7.815   4.850  0.1484 -0.5404 -0.0779
27617SOL    HW185743   1.486   7.904   4.886  3.0779 -0.3588 -0.4631
27617SOL    HW285744   1.401   7.810   4.802 -1.9724  0.5996  3.0994
27618SOL     OW85745   3.048   9.258   4.206  0.2938 -0.1475  0.2017
27618SOL    HW185746   3.006   9.312   4.138 -2.5023  0.6266  2.3802
27618SOL    HW285747   3.022   9.169   4.186 -2.2396  0.2826  1.2820
27619SOL     OW85748   8.938   6.572   2.922  0.5538  0.9081 -0.1833
27619SOL    HW185749   8.936   6.667   2.907 -1.4239  0.8802 -0.3865
27619SOL    HW285750   8.925   6.534   2.835  1.0828  0.4521 -0.0636
27620SOL     OW85751   1.721   5.602   0.889  0.5475 -0.3765 -0.1244
27620SOL    HW185752   1.729   5.529   0.951  0.9746  0.5928  0.9980
27620SOL    HW285753   1.789   5.585   0.824 -0.0111 -1.4965 -0.4484
27621SOL     OW85754   3.168   3.649   8.990 -0.1459 -0.1526  0.0940
27621SOL    HW185755   3.196   3.564   9.023 -1.1300 -1.0929 -1.3822
27621SOL    HW285756   3.245   3.705   9.000  0.3167 -1.0110  1.6907
27622SOL     OW85757   5.011   1.537   3.578  0.1353  0.2192  0.6743
27622SOL    HW185758   5.089   1.549   3.632  1.0238  1.4179 -0.7672
27622SOL    HW285759   4.945   1.594   3.618  0.7908  1.1191  0.5221
27623SOL     OW85760   0.106   2.354   1.916 -0.7391 -0.4259  0.3250
27623SOL    HW185761   0.139   2.355   1.826  0.6300 -1.9494  0.7514
27623SOL    HW285762   0.149   2.429   1.958 -1.1637  0.1219 -0.2022
27624SOL     OW85763   3.105   1.982   4.506  0.2073  0.0083 -0.4524
27624SOL    HW185764   3.043   2.054   4.513  2.1399  1.7477 -0.1012
27624SOL    HW285765   3.070   1.914   4.564 -1.1072  1.1014  0.0839
27625SOL     OW85766   2.015   2.479   6.464  0.0139  0.4542  0.3613
27625SOL    HW185767   2.002   2.403   6.407 -0.8059 -0.1041  1.2660
27625SOL    HW285768   2.109   2.479   6.483  0.0278 -0.3265  0.3293
27626SOL     OW85769   5.723   7.958   0.298 -0.3871 -0.0896  0.0305
27626SOL    HW185770   5.763   7.953   0.385 -1.6205  2.0075  0.7903
27626SOL    HW285771   5.797   7.976   0.239  0.4226 -1.2501  0.6599
27627SOL     OW85772   6.222   7.820   6.309 -0.6435  0.2053 -0.5192
27627SOL    HW185773   6.187   7.901   6.346  0.6568  0.6147 -0.1279
27627SOL    HW285774   6.302   7.847   6.264 -0.5036 -0.7797 -0.8775
27628SOL     OW85775   5.475   0.815   7.968 -0.4080  0.3188  0.1337
27628SOL    HW185776   5.481   0.855   7.881 -1.0197 -0.4813 -0.2958
27628SOL    HW285777   5.489   0.721   7.951  2.0881  0.4169  1.2239
27629SOL     OW85778   8.216   6.584   9.615  0.9147  0.5825  0.0721
27629SOL    HW185779   8.151   6.516   9.634 -0.7380  1.9011 -0.6042
27629SOL    HW285780   8.246   6.613   9.700  1.0054 -0.3976  0.3881
27630SOL     OW85781   1.650   6.759   4.126  0.1062 -0.0713  0.1375
27630SOL    HW185782   1.677   6.839   4.080 -0.9929  0.6662  0.7108
27630SOL    HW285783   1.731   6.712   4.143  0.7250  0.6756 -0.6734
27631SOL     OW85784   9.124   5.004   0.135 -0.0399 -0.4289 -0.3836
27631SOL    HW185785   9.142   5.047   0.051 -1.0336 -1.8770 -1.3969
27631SOL    HW285786   9.083   5.072   0.189  0.1552  0.4012 -1.2475
27632SOL     OW85787   6.745   8.521   7.087 -0.2692  0.2306 -0.0457
27632SOL    HW185788   6.732   8.474   7.004 -1.6502  0.8980 -0.2336
27632SOL    HW285789   6.811   8.470   7.133  0.0205 -0.5449 -1.2678
27633SOL     OW85790   4.957   5.075   4.538 -0.0440  0.8029 -0.3840
27633SOL    HW185791   4.913   5.012   4.595  0.1439  0.0737 -1.0428
27633SOL    HW285792   5.013   5.125   4.598  1.0459 -0.7295 -0.0775
27634SOL     OW85793   2.523   1.904   9.381 -0.1518  0.2258  0.2131
27634SOL    HW185794   2.544   1.821   9.424 -1.0209  0.0150  0.2450
27634SOL    HW285795   2.519   1.883   9.288 -2.7072 -0.3266  0.3754
27635SOL     OW85796   5.226   5.558   0.051 -0.0072  0.7343  0.1426
27635SOL    HW185797   5.266   5.475   0.027 -1.3369  0.5221 -1.5714
27635SOL    HW285798   5.266   5.582   0.135 -0.1277 -2.0001  1.0649
27636SOL     OW85799   3.002   4.905   4.249 -0.2769 -0.0957 -0.1305
27636SOL    HW185800   2.919   4.871   4.283  0.3081 -0.5103  0.9453
27636SOL    HW285801   3.067   4.875   4.312  1.0249 -1.6428 -2.0734
27637SOL     OW85802   6.175   3.017   9.241  0.0992  0.2514 -0.0405
27637SOL    HW185803   6.123   2.963   9.183 -0.8621  0.7925  0.2841
27637SOL    HW285804   6.260   2.973   9.246  0.1023  0.0197 -1.5728
27638SOL     OW85805   8.266   5.535   1.117 -0.4379  0.3833 -0.4221
27638SOL    HW185806   8.176   5.534   1.085 -0.7300  2.4494  0.1629
27638SOL    HW285807   8.293   5.627   1.109  1.1590  0.0451  0.6196
27639SOL     OW85808   8.520   8.331   2.509  0.3506 -0.1839 -0.2417
27639SOL    HW185809   8.432   8.323   2.473  0.5333  1.1499 -1.0199
27639SOL    HW285810   8.578   8.299   2.440  0.6169  1.2792 -0.7437
27640SOL     OW85811   9.090   9.579   2.202  0.9253 -0.4472  0.0234
27640SOL    HW185812   9.137   9.592   2.119  2.3524 -2.3874  0.4414
27640SOL    HW285813   9.003   9.548   2.176  1.1157 -0.3551 -0.7462
27641SOL     OW85814   0.111   4.398   5.980 -0.4681  0.6262  0.7324
27641SOL    HW185815   0.086   4.458   6.051 -0.7909  0.6440  0.6046
27641SOL    HW285816   0.205   4.408   5.973 -0.7137  2.5623 -0.5721
27642SOL     OW85817   0.462   4.660   8.265  0.2288  0.6893  0.5255
27642SOL    HW185818   0.472   4.625   8.177  0.3463  1.1150  0.3697
27642SOL    HW285819   0.535   4.721   8.276 -0.8431  2.0788  0.2256
27643SOL     OW85820   4.112   4.286   6.134  0.1976 -0.1825 -0.2430
27643SOL    HW185821   4.061   4.354   6.178  0.9711 -0.2823  0.8452
27643SOL    HW285822   4.092   4.298   6.041  0.3879  1.6051 -0.0951
27644SOL     OW85823   2.194   3.555   8.383 -0.2332  0.4669  0.1987
27644SOL    HW185824   2.259   3.492   8.415  0.2378 -0.1420 -1.8240
27644SOL    HW285825   2.246   3.621   8.338 -0.8996  1.0078  0.2077
27645SOL     OW85826   6.115   1.934   4.721 -0.1138  0.3718 -0.7948
27645SOL    HW185827   6.080   1.996   4.785  1.1515 -2.1310  2.6079
27645SOL    HW285828   6.206   1.921   4.748 -0.5063 -3.4469 -0.7614
27646SOL     OW85829   0.551   7.181   5.591  0.3762 -0.0393 -0.5820
27646SOL    HW185830   0.597   7.214   5.669  1.1138  0.5874 -1.2649
27646SOL    HW285831   0.611   7.198   5.519 -0.5556 -0.0451 -1.3763
27647SOL     OW85832   5.771   3.638   4.734  0.1424 -0.2716 -0.1048
27647SOL    HW185833   5.799   3.680   4.653  0.4539 -1.8500 -0.8494
27647SOL    HW285834   5.838   3.571   4.751 -1.5603 -2.1322 -0.3167
27648SOL     OW85835   2.046   0.927   7.712  0.9422 -0.5995 -0.0798
27648SOL    HW185836   2.062   0.940   7.805  0.7320 -0.5689 -0.0474
27648SOL    HW285837   2.047   0.832   7.701  2.5558 -0.5846 -0.3307
27649SOL     OW85838   8.175   7.174   1.233 -0.2444 -1.0475  0.0951
27649SOL    HW185839   8.270   7.172   1.225  0.1543 -0.6319  3.3608
27649SOL    HW285840   8.155   7.263   1.262 -1.0439 -2.2018  3.5883
27650SOL     OW85841   9.243   7.167   6.924  0.0667  0.4089  0.0801
27650SOL    HW185842   9.274   7.247   6.966 -0.4435 -0.1720  1.6119
27650SOL    HW285843   9.235   7.191   6.831  0.5729  1.9198  0.3951
27651SOL     OW85844   6.921   9.616   1.383 -0.3155  0.4401  0.4423
27651SOL    HW185845   6.981   9.678   1.341 -1.3239  1.6219  0.6818
27651SOL    HW285846   6.844   9.669   1.405 -1.1131 -0.8618  0.8717
27652SOL     OW85847   5.895   7.319   9.206  0.7152 -0.4993  0.2750
27652SOL    HW185848   5.954   7.374   9.153 -0.0097  1.0765  1.0358
27652SOL    HW285849   5.906   7.351   9.295 -1.2233 -0.1947  0.4498
27653SOL     OW85850   6.698   5.055   8.115  0.3902  0.7292  0.1269
27653SOL    HW185851   6.647   5.086   8.040 -1.0129  1.3170  1.2656
27653SOL    HW285852   6.718   4.964   8.093  0.0397  0.8909 -0.9738
27654SOL     OW85853   9.617   1.891   4.075  0.0141 -0.5520  0.6587
27654SOL    HW185854   9.659   1.809   4.101  0.9945 -0.1927  0.2347
27654SOL    HW285855   9.532   1.864   4.040  0.0834 -1.3330  1.0605
27655SOL     OW85856   8.093   4.056   7.703  0.1536  0.1697  0.2157
27655SOL    HW185857   8.113   4.034   7.612  0.5316 -0.1039  0.3611
27655SOL    HW285858   8.118   4.149   7.711 -0.0481  0.2431 -0.0044
27656SOL     OW85859   5.323   8.701   6.396 -0.4098  0.0668  0.3604
27656SOL    HW185860   5.280   8.773   6.441 -1.1418 -0.5666  0.6936
27656SOL    HW285861   5.327   8.630   6.461 -1.1117 -0.7185 -0.4241
27657SOL     OW85862   6.844   1.780   7.694 -0.6857 -0.1256  0.1569
27657SOL    HW185863   6.761   1.806   7.655 -0.5506 -1.0381 -0.7706
27657SOL    HW285864   6.830   1.689   7.722  0.4788 -0.8824 -1.5383
27658SOL     OW85865   3.577   0.730   7.727 -0.3189  0.3275 -0.6669
27658SOL    HW185866   3.575   0.760   7.818 -0.0229 -0.0149 -0.5446
27658SOL    HW285867   3.511   0.660   7.724  1.7180 -1.7307  0.0426
27659SOL     OW85868   1.892   2.071   0.557  0.3602 -0.8880  0.1319
27659SOL    HW185869   1.966   2.045   0.502  0.5365 -1.6126  0.6829
27659SOL    HW285870   1.831   2.114   0.498  1.6937  0.7284 -0.1560
27660SOL     OW85871   8.081   3.119   4.779  0.1287  0.4449 -0.4751
27660SOL    HW185872   8.096   3.199   4.729 -0.1956  0.3466 -0.7369
27660SOL    HW285873   8.169   3.083   4.793  0.2652  0.7769 -0.4680
27661SOL     OW85874   0.827   7.898   2.000 -0.1021  0.0076 -0.7124
27661SOL    HW185875   0.777   7.827   2.040  0.2290  0.0972 -0.1199
27661SOL    HW285876   0.811   7.973   2.057  1.2321 -0.1340 -0.1132
27662SOL     OW85877   7.540   9.448   7.009 -0.3451 -0.5388 -0.7119
27662SOL    HW185878   7.509   9.421   7.095  0.7631  1.7190  0.4849
27662SOL    HW285879   7.628   9.411   7.002 -0.2077 -0.2391 -0.6011
27663SOL     OW85880   0.453   1.513   7.487  0.3601  0.4180 -0.2208
27663SOL    HW185881   0.474   1.537   7.577 -1.8224 -0.5041  0.5811
27663SOL    HW285882   0.358   1.521   7.481  0.1380 -2.2755 -1.6065
27664SOL     OW85883   7.373   3.687   8.641  0.3258 -0.9207 -0.5204
27664SOL    HW185884   7.412   3.725   8.562  0.9891  0.1284  0.2743
27664SOL    HW285885   7.280   3.679   8.620  0.6002 -1.3375 -1.6549
27665SOL     OW85886   5.726   4.270   2.908  0.1169  0.0354 -0.3357
27665SOL    HW185887   5.632   4.281   2.923  0.3986 -0.0385  1.6914
27665SOL    HW285888   5.734   4.260   2.813 -1.9579 -0.3982 -0.5065
27666SOL     OW85889   5.982   7.500   4.651 -0.0813 -0.1772 -0.0768
27666SOL    HW185890   5.886   7.497   4.650 -0.1650  0.9855  1.1115
27666SOL    HW285891   6.006   7.504   4.559 -1.1252 -1.2484 -0.4300
27667SOL     OW85892   0.009   2.321   4.189 -0.0629 -0.2379 -0.2620
27667SOL    HW185893   0.051   2.343   4.106 -0.5739  0.3953 -0.3587
27667SOL    HW285894  -0.066   2.381   4.195 -0.5831 -0.9261  0.2039
27668SOL     OW85895   4.221   2.784   9.221 -0.1141 -0.1401 -0.3629
27668SOL    HW185896   4.155   2.850   9.204 -1.3170 -0.7502  1.5824
27668SOL    HW285897   4.291   2.802   9.158 -0.4072  2.9251  0.0521
27669SOL     OW85898   4.277   1.727   1.015  0.0102 -0.4182 -0.2895
27669SOL    HW185899   4.331   1.795   0.974  0.7169  0.4200  1.9175
27669SOL    HW285900   4.233   1.685   0.941  2.2730  0.0497 -2.0490
27670SOL     OW85901   2.105   8.158   9.289 -0.5918 -0.8995 -0.0444
27670SOL    HW185902   2.018   8.159   9.248 -0.8126  0.0212  0.4139
27670SOL    HW285903   2.093   8.106   9.368 -1.1577  0.5011  0.8482
27671SOL     OW85904   6.242   5.007   4.503  0.0225  0.5043  0.4331
27671SOL    HW185905   6.159   5.022   4.548 -1.1311  3.1192 -2.2551
27671SOL    HW285906   6.230   5.044   4.416  3.2174 -1.2909 -0.9673
27672SOL     OW85907   1.055   3.491   4.631 -0.1293 -0.1392  0.3255
27672SOL    HW185908   1.046   3.462   4.540  0.7632 -0.5517  0.3535
27672SOL    HW285909   1.090   3.415   4.677  0.9698  0.5472  0.6698
27673SOL     OW85910   9.223   8.438   6.853 -0.7207 -0.1903 -0.2156
27673SOL    HW185911   9.293   8.503   6.851 -0.9419  0.2163  2.2283
27673SOL    HW285912   9.144   8.487   6.830 -0.9089  0.5442  1.7446
27674SOL     OW85913   7.409   3.808   6.485 -0.4626  0.7265 -0.1026
27674SOL    HW185914   7.473   3.877   6.497 -0.4315  0.6191  0.3992
27674SOL    HW285915   7.369   3.825   6.400  1.6183 -0.3613 -1.3682
27675SOL     OW85916   7.553   9.588   9.543 -0.1032  0.2209  0.3660
27675SOL    HW185917   7.616   9.574   9.472  0.1372 -1.7917  0.8997
27675SOL    HW285918   7.605   9.624   9.615 -0.0692  0.9096  0.0026
27676SOL     OW85919   6.221   5.032   3.525 -0.3542  0.0549  0.1064
27676SOL    HW185920   6.155   5.100   3.541 -2.0221 -2.0147  2.8190
27676SOL    HW285921   6.174   4.965   3.475  0.4227 -0.4056 -0.0190
27677SOL     OW85922   2.190   8.475   8.513 -0.3815  0.5264 -0.0283
27677SOL    HW185923   2.168   8.516   8.429  0.7890 -0.2146 -0.7331
27677SOL    HW285924   2.109   8.478   8.564 -0.9600  1.5098 -0.9652
27678SOL     OW85925   3.935   2.178   5.522  0.0603 -0.2688 -0.3712
27678SOL    HW185926   3.947   2.117   5.595 -0.3041 -0.5675 -0.5601
27678SOL    HW285927   3.927   2.264   5.564 -1.0355 -0.5408  0.0070
27679SOL     OW85928   5.166   4.458   3.683  0.4186 -0.1364 -0.6944
27679SOL    HW185929   5.137   4.414   3.764  1.0636 -0.3589 -0.5812
27679SOL    HW285930   5.260   4.443   3.680  0.9413  2.4688  0.1133
27680SOL     OW85931   6.247   1.372   5.640 -0.1488  0.4089  0.2301
27680SOL    HW185932   6.193   1.427   5.696 -0.6638 -0.2496  0.3931
27680SOL    HW285933   6.298   1.433   5.588 -0.8308  1.0388  0.2925
27681SOL     OW85934   9.007   8.687   0.685 -0.3791  0.1284 -0.1930
27681SOL    HW185935   9.037   8.626   0.617 -2.4107  0.6219 -1.6309
27681SOL    HW285936   8.999   8.771   0.640  0.4035  1.0197  1.2602
27682SOL     OW85937   5.054   6.987   1.550  0.7763 -0.3338 -0.1542
27682SOL    HW185938   5.033   6.969   1.641  1.7558  0.1208  0.1785
27682SOL    HW285939   5.018   7.074   1.533  0.0243 -0.6800 -0.4128
27683SOL     OW85940   5.696   2.631   7.249 -0.3208 -0.3509  0.2419
27683SOL    HW185941   5.753   2.568   7.206  0.0820 -0.2653  0.6406
27683SOL    HW285942   5.613   2.584   7.261 -0.5642 -0.2490 -0.9545
27684SOL     OW85943   3.641   3.957   7.882  0.3026  0.1049  0.0702
27684SOL    HW185944   3.636   3.992   7.793 -1.8232  1.1893  0.5675
27684SOL    HW285945   3.652   4.034   7.938  0.5213 -0.4690  0.8353
27685SOL     OW85946   0.442   1.924   9.327  0.1218 -0.3161  0.0648
27685SOL    HW185947   0.427   2.015   9.301 -0.4849 -0.1560  0.9497
27685SOL    HW285948   0.392   1.872   9.264  1.8492 -0.1627 -1.5338
27686SOL     OW85949   6.551   0.224   6.075 -0.2768  0.0534 -0.0519
27686SOL    HW185950   6.496   0.299   6.097  0.7393  0.5245  1.0015
27686SOL    HW285951   6.620   0.226   6.140  0.0369 -1.5323 -0.3111
27687SOL     OW85952   8.178   8.614   1.006  0.1771  0.1160 -0.1512
27687SOL    HW185953   8.102   8.568   0.970 -0.2354  0.6188  0.0530
27687SOL    HW285954   8.184   8.694   0.954 -0.1831  0.6596  0.6190
27688SOL     OW85955   4.175   2.059   3.827  0.0817  0.2764  0.4326
27688SOL    HW185956   4.202   1.992   3.765  0.4887 -0.6611  1.5941
27688SOL    HW285957   4.186   2.142   3.779  0.1445 -0.4327 -0.8092
27689SOL     OW85958   6.212   9.247   5.133  0.4622 -0.3102 -0.1564
27689SOL    HW185959   6.144   9.252   5.067  1.3323 -2.4484 -1.2906
27689SOL    HW285960   6.289   9.287   5.092  0.2857  0.8925  0.6309
27690SOL     OW85961   4.191   7.428   7.751  0.5426  0.0652 -0.0390
27690SOL    HW185962   4.187   7.461   7.661  0.6053  0.2904  0.0420
27690SOL    HW285963   4.263   7.365   7.750  0.3177 -0.1906 -0.2322
27691SOL     OW85964   4.268   9.138   1.406  0.1561 -0.6957 -0.8990
27691SOL    HW185965   4.252   9.105   1.494 -0.7112  0.3222 -0.6657
27691SOL    HW285966   4.272   9.233   1.415  0.6936 -0.6059 -1.8647
27692SOL     OW85967   9.473   5.807   8.842  0.0592 -0.6216  0.0990
27692SOL    HW185968   9.418   5.812   8.764 -1.6633  1.5719  1.3203
27692SOL    HW285969   9.452   5.722   8.880 -0.3261 -1.0153 -0.9580
27693SOL     OW85970   8.693   6.834   3.637  0.2810  0.0948 -0.3810
27693SOL    HW185971   8.767   6.892   3.657  1.0651 -1.2315  0.7634
27693SOL    HW285972   8.710   6.802   3.549  0.7218  0.2976 -0.3718
27694SOL     OW85973   3.217   6.064   0.657  0.2209  0.2539 -0.2083
27694SOL    HW185974   3.123   6.081   0.658 -0.2928 -2.1577  0.3717
27694SOL    HW285975   3.235   6.040   0.566  0.4702  1.5811 -0.5153
27695SOL     OW85976   4.844   9.383   0.169 -0.8545 -0.0691 -0.7982
27695SOL    HW185977   4.762   9.336   0.153  0.1898 -1.2654 -3.1564
27695SOL    HW285978   4.893   9.326   0.227 -0.6211 -0.7056 -1.6010
27696SOL     OW85979   4.438   2.978   8.101  0.1869  0.9069 -0.5073
27696SOL    HW185980   4.476   3.064   8.115 -2.5353  1.8618  1.9411
27696SOL    HW285981   4.345   2.994   8.085 -0.0672 -1.5025 -2.0275
27697SOL     OW85982   1.044   2.021   8.221 -0.0223  0.7262 -0.0244
27697SOL    HW185983   1.098   2.078   8.166 -1.1435  1.1856 -0.6865
27697SOL    HW285984   1.089   2.019   8.305  1.3082  0.6570 -0.6969
27698SOL     OW85985   3.145   2.020   4.973 -0.0421 -0.3130  0.2197
27698SOL    HW185986   3.225   2.067   4.998 -0.4551  0.5728 -0.1031
27698SOL    HW285987   3.173   1.961   4.902  0.4259 -0.3784  0.4554
27699SOL     OW85988   7.096   5.554   6.020  0.7337 -0.7994 -0.1542
27699SOL    HW185989   7.030   5.605   5.974  0.7206 -0.2167  0.4916
27699SOL    HW285990   7.065   5.550   6.111  2.2396  0.6712  0.4751
27700SOL     OW85991   2.449   8.775   1.761 -0.2728  0.4937 -0.2689
27700SOL    HW185992   2.407   8.843   1.708 -1.4939  0.6378  0.8138
27700SOL    HW285993   2.537   8.808   1.778 -0.4959  1.3078 -0.6456
27701SOL     OW85994   9.282   8.441   2.148 -0.0440  0.3974  0.0763
27701SOL    HW185995   9.355   8.497   2.120 -0.2317  1.0522  0.8259
27701SOL    HW285996   9.259   8.475   2.235  0.5286 -1.5385  1.0300
27702SOL     OW85997   2.336   2.669   7.431  0.6151  0.2060  0.8197
27702SOL    HW185998   2.394   2.620   7.490  0.3468  0.1336  1.0251
27702SOL    HW285999   2.395   2.709   7.367  0.8493 -0.3135  0.7040
27703SOL     OW86000   4.801   5.035   4.280  0.1272 -0.2385  0.4951
27703SOL    HW186001   4.849   5.003   4.203 -0.9106 -0.7719  0.0523
27703SOL    HW286002   4.866   5.034   4.350  0.4690 -2.1669  0.2140
27704SOL     OW86003   4.703   0.113   3.820 -0.1202  0.3505  0.1631
27704SOL    HW186004   4.750   0.194   3.837  1.4162 -0.5999  0.6513
27704SOL    HW286005   4.642   0.105   3.893  2.0154 -0.5205  1.9816
27705SOL     OW86006   8.769   2.470   5.409 -0.1664 -0.0488  0.1398
27705SOL    HW186007   8.823   2.397   5.441 -1.2379 -0.5207  0.9173
27705SOL    HW286008   8.688   2.428   5.380 -0.1710  0.6622 -0.9471
27706SOL     OW86009   6.813   0.258   2.667  0.3278  0.2016 -0.3216
27706SOL    HW186010   6.873   0.264   2.593  1.9969  2.0429  1.0497
27706SOL    HW286011   6.868   0.280   2.743 -1.6191 -0.2164  1.2803
27707SOL     OW86012   1.500   0.695   8.656  0.1576  0.6526 -0.6488
27707SOL    HW186013   1.543   0.731   8.733 -0.6536 -0.9119  0.6087
27707SOL    HW286014   1.536   0.606   8.648 -1.5624 -0.1089 -0.5124
27708SOL     OW86015   2.792   2.767   0.688  0.5249 -0.2150  0.4733
27708SOL    HW186016   2.698   2.781   0.672  0.9189  1.3060 -0.7130
27708SOL    HW286017   2.824   2.852   0.718  1.8993 -0.1275 -1.1082
27709SOL     OW86018   3.749   3.351   2.949  0.3680  0.0905  0.5857
27709SOL    HW186019   3.662   3.358   2.987  0.5436 -0.5790  1.1262
27709SOL    HW286020   3.767   3.257   2.945  1.4855  0.2391  1.4968
27710SOL     OW86021   1.620   5.543   5.398 -0.2073 -1.1828 -0.6369
27710SOL    HW186022   1.524   5.538   5.403 -0.1905 -3.1804 -1.4388
27710SOL    HW286023   1.639   5.554   5.305  0.3699 -2.5281 -0.6965
27711SOL     OW86024   3.084   4.225   6.557  0.3421 -0.3382  0.2290
27711SOL    HW186025   3.006   4.169   6.554 -0.7746  1.1717 -0.6583
27711SOL    HW286026   3.152   4.173   6.513 -0.5468 -1.1363 -0.2605
27712SOL     OW86027   5.639   3.674   2.102  0.2374 -0.4497 -0.3979
27712SOL    HW186028   5.560   3.630   2.069  0.2580 -1.3081  0.6559
27712SOL    HW286029   5.682   3.608   2.156  0.7320  0.6064  0.5224
27713SOL     OW86030   8.322   5.216   6.281  0.8696  0.1609 -0.0170
27713SOL    HW186031   8.274   5.164   6.216  1.1250  0.4011 -0.3994
27713SOL    HW286032   8.255   5.270   6.323  0.8943  0.9767 -1.0088
27714SOL     OW86033   7.355   5.793   5.082 -0.5699 -0.5515 -0.1177
27714SOL    HW186034   7.411   5.857   5.125  0.4988 -0.1927 -1.9449
27714SOL    HW286035   7.328   5.733   5.151 -0.0480  0.7813  1.2743
27715SOL     OW86036   4.576   4.304   9.477 -0.7581  0.5473 -0.0379
27715SOL    HW186037   4.603   4.217   9.504 -0.2504  0.7337  0.0627
27715SOL    HW286038   4.527   4.290   9.396  2.2908  0.4427 -2.0287
27716SOL     OW86039   4.424   1.771   6.038  0.1518 -0.6129  0.5328
27716SOL    HW186040   4.336   1.795   6.068 -0.3090 -0.7758 -0.6649
27716SOL    HW286041   4.453   1.705   6.101 -0.2190  0.0662  1.4489
27717SOL     OW86042   4.502   4.413   7.298 -0.1377 -0.0158  0.2226
27717SOL    HW186043   4.528   4.482   7.359 -0.0316  0.5653 -0.4639
27717SOL    HW286044   4.433   4.454   7.245  0.0470 -0.3822 -0.3046
27718SOL     OW86045   7.537   3.299   2.397  0.2364 -0.4703 -0.0888
27718SOL    HW186046   7.603   3.308   2.328 -0.5930 -0.4634 -0.8846
27718SOL    HW286047   7.476   3.371   2.382  0.9210  0.5354  1.6512
27719SOL     OW86048   9.287   5.072   3.490  0.6919 -0.1222  0.4887
27719SOL    HW186049   9.219   5.032   3.436  1.4013 -1.7895  0.7717
27719SOL    HW286050   9.332   5.132   3.431 -0.5290  0.4432  0.0988
27720SOL     OW86051   6.912   1.301   6.281  0.3309 -0.3929 -0.1270
27720SOL    HW186052   7.007   1.294   6.280  0.2550 -1.8752 -0.7709
27720SOL    HW286053   6.887   1.280   6.371  0.6595  1.4135  0.4168
27721SOL     OW86054   0.473   4.338   7.596  0.0405  0.0748 -0.4671
27721SOL    HW186055   0.471   4.300   7.508 -1.6004 -0.2202 -0.3396
27721SOL    HW286056   0.420   4.417   7.589  1.2298  0.9380 -0.0936
27722SOL     OW86057   6.853   0.204   9.510  0.3175 -0.0846  0.1781
27722SOL    HW186058   6.847   0.288   9.556 -0.4601  0.2263 -0.4597
27722SOL    HW286059   6.766   0.166   9.518  0.6570 -0.8099  0.4228
27723SOL     OW86060   7.428   0.367   4.951 -0.4716  0.2451  0.5477
27723SOL    HW186061   7.449   0.417   4.872 -1.6581  1.5398  1.0185
27723SOL    HW286062   7.499   0.303   4.958 -1.3257 -1.2623 -2.6569
27724SOL     OW86063   3.029   6.600   2.596 -0.3299  0.0374  0.3836
27724SOL    HW186064   3.005   6.548   2.519 -0.2084  0.9238 -0.2792
27724SOL    HW286065   2.946   6.617   2.640 -0.5995  0.7563 -0.3720
27725SOL     OW86066   4.942   7.188   8.216  0.9209 -0.0651 -0.0316
27725SOL    HW186067   4.940   7.283   8.230  0.8787 -0.0195 -0.3236
27725SOL    HW286068   5.016   7.157   8.267  0.3876  0.0020  0.8017
27726SOL     OW86069   2.635   2.272   1.434  0.6479  0.4720 -1.1192
27726SOL    HW186070   2.614   2.269   1.340  0.7356  0.2353 -1.1333
27726SOL    HW286071   2.716   2.222   1.441 -1.2692 -2.8410 -0.4135
27727SOL     OW86072   4.677   2.697   7.791  0.3188 -0.2179  0.1487
27727SOL    HW186073   4.670   2.607   7.824  0.2150 -0.2608  0.0120
27727SOL    HW286074   4.659   2.689   7.697  0.7656 -0.1211  0.0521
27728SOL     OW86075   4.893   1.978   8.256  0.4613  0.1473  0.4455
27728SOL    HW186076   4.822   2.002   8.197  0.3331 -1.0496  0.0733
27728SOL    HW286077   4.922   2.060   8.295 -0.6491  0.7309  0.0641
27729SOL     OW86078   7.624   5.575   6.331  0.1363  0.1062  0.1357
27729SOL    HW186079   7.673   5.623   6.264  1.7566 -0.7548  0.6523
27729SOL    HW286080   7.647   5.618   6.413  0.2865 -0.4895  0.4142
27730SOL     OW86081   8.939   4.647   1.026  0.3594 -0.4268 -0.2009
27730SOL    HW186082   8.912   4.575   0.970  0.4830 -0.3287 -0.3881
27730SOL    HW286083   8.879   4.644   1.100 -0.7140  0.3103 -1.0158
27731SOL     OW86084   7.897   9.188   6.369 -0.2098 -0.2108  0.2865
27731SOL    HW186085   7.925   9.279   6.361  2.0597 -0.6067  2.4787
27731SOL    HW286086   7.841   9.187   6.446  0.3344 -0.7672  0.6794
27732SOL     OW86087   2.934   3.943   6.694 -0.4859  0.8251 -0.4626
27732SOL    HW186088   2.907   3.880   6.761 -0.9007  0.6727 -0.7670
27732SOL    HW286089   2.987   4.007   6.741  0.6689 -0.2107 -0.2891
27733SOL     OW86090   4.375   5.945   1.043 -0.3957 -0.5446  0.3208
27733SOL    HW186091   4.374   5.938   0.948  0.2525  1.4812  0.1127
27733SOL    HW286092   4.327   6.026   1.061 -0.4644 -0.8704  1.7256
27734SOL     OW86093   9.079   3.020   5.460 -0.4584 -0.5624 -0.0225
27734SOL    HW186094   9.106   3.074   5.535  0.1863 -0.0312 -0.6273
27734SOL    HW286095   9.129   2.939   5.470  0.6687  0.0357 -0.6011
27735SOL     OW86096   2.341   1.633   1.494 -0.1668  0.4115  0.1204
27735SOL    HW186097   2.298   1.600   1.415  0.1455 -0.9156  0.4915
27735SOL    HW286098   2.362   1.555   1.545  1.6315  1.0951  0.4989
27736SOL     OW86099   6.866   5.884   3.925  0.1257 -0.2927  0.0131
27736SOL    HW186100   6.827   5.829   3.857  0.6020 -1.1481  0.4234
27736SOL    HW286101   6.958   5.860   3.925  0.4370  0.8546 -0.1211
27737SOL     OW86102   5.092   6.671   2.744 -0.4626 -0.4724  0.1420
27737SOL    HW186103   5.179   6.677   2.783  0.3809  1.4309 -1.8812
27737SOL    HW286104   5.036   6.644   2.817  1.9489 -3.1896  1.2136
27738SOL     OW86105   6.466   8.615   1.543  0.1498 -0.2684  0.8851
27738SOL    HW186106   6.449   8.631   1.636  0.9876 -1.1020  1.1900
27738SOL    HW286107   6.553   8.652   1.527 -0.4373  0.8602  0.1542
27739SOL     OW86108   7.058   4.082   1.367 -0.3506  0.1404 -0.3501
27739SOL    HW186109   6.974   4.079   1.413  0.0561 -0.7347  0.3598
27739SOL    HW286110   7.044   4.027   1.290 -0.2049 -0.6375  0.1697
27740SOL     OW86111   2.639   9.542   6.920 -0.5586 -0.2795 -0.2470
27740SOL    HW186112   2.664   9.536   7.012 -1.0037  0.4528 -0.0664
27740SOL    HW286113   2.589   9.462   6.904  0.1007 -0.7393 -0.0457
27741SOL     OW86114   8.599   2.876   9.411 -0.6371  0.5117  0.3148
27741SOL    HW186115   8.531   2.937   9.439 -0.4713  0.4353  0.9025
27741SOL    HW286116   8.681   2.923   9.426 -0.5617  0.7217 -0.6837
27742SOL     OW86117   3.211   3.455   5.642  0.2278 -0.6408  0.4135
27742SOL    HW186118   3.167   3.373   5.619  0.2564 -0.5848  0.1530
27742SOL    HW286119   3.287   3.459   5.584 -0.1250 -0.1191 -0.0218
27743SOL     OW86120   6.745   3.377   5.966 -0.2564  0.2781 -0.5383
27743SOL    HW186121   6.727   3.437   6.039  0.2699  0.4482 -0.5446
27743SOL    HW286122   6.789   3.432   5.901  1.9590 -0.4991  0.2178
27744SOL     OW86123   0.028   2.128   1.366 -0.1001  0.3093  0.3754
27744SOL    HW186124   0.070   2.094   1.445 -0.0734  1.8347  1.0531
27744SOL    HW286125  -0.048   2.176   1.398 -0.0112  1.0711 -0.5196
27745SOL     OW86126   5.671   3.995   8.234  0.1610  0.2680  0.6263
27745SOL    HW186127   5.714   3.920   8.195  1.1604  1.4754 -0.7259
27745SOL    HW286128   5.614   3.959   8.302 -1.7756 -2.0186 -1.9948
27746SOL     OW86129   9.084   1.881   4.700 -0.2722 -0.5883  0.5694
27746SOL    HW186130   9.143   1.812   4.670  0.1943  0.0204  0.0804
27746SOL    HW286131   9.006   1.834   4.730  0.5299 -1.4190  1.4264
27747SOL     OW86132   4.458   9.569   2.018  0.2454 -0.8116 -0.2559
27747SOL    HW186133   4.494   9.511   1.951  2.4504  0.9339 -0.6877
27747SOL    HW286134   4.530   9.582   2.080 -0.2049  1.3308 -0.1119
27748SOL     OW86135   1.066   6.445   2.864  0.4811 -0.1070 -0.4003
27748SOL    HW186136   1.011   6.517   2.894  0.4512  0.5451 -1.9171
27748SOL    HW286137   1.124   6.485   2.799  1.2812 -1.2160 -0.3894
27749SOL     OW86138   6.392   9.227   6.254 -0.1635  0.0115 -0.0654
27749SOL    HW186139   6.380   9.216   6.348  1.1914  1.8327  0.3627
27749SOL    HW286140   6.317   9.181   6.215 -1.0303 -0.3390  1.9034
27750SOL     OW86141   2.783   3.339   9.489 -0.3121  0.6263  0.4365
27750SOL    HW186142   2.730   3.326   9.410  0.1051 -1.5805  0.4521
27750SOL    HW286143   2.868   3.367   9.456 -0.2514  0.0799  0.1124
27751SOL     OW86144   5.977   6.590   0.252  0.3965  0.1498 -0.3319
27751SOL    HW186145   5.963   6.588   0.158 -0.1776 -0.3117 -0.2393
27751SOL    HW286146   6.067   6.623   0.262 -0.0929  1.7736 -0.9722
27752SOL     OW86147   9.525   0.373   3.703  0.5573  0.5632 -0.3420
27752SOL    HW186148   9.493   0.350   3.615  1.8786  0.4764 -0.8117
27752SOL    HW286149   9.556   0.463   3.694 -0.0108  0.8276  0.2493
27753SOL     OW86150   7.773   5.965   5.027  0.0518  0.1584  0.2110
27753SOL    HW186151   7.826   5.951   4.948  0.9466 -0.2502  0.8731
27753SOL    HW286152   7.694   6.009   4.995 -0.3883 -1.5171 -1.1743
27754SOL     OW86153   0.306   4.445   1.641  0.3564 -0.1768 -0.6410
27754SOL    HW186154   0.319   4.531   1.679 -0.9151  0.7990 -2.2801
27754SOL    HW286155   0.248   4.400   1.704  0.5106  0.3742 -0.0937
27755SOL     OW86156   2.135   2.229   4.663  0.1447 -0.2339 -0.0356
27755SOL    HW186157   2.079   2.232   4.740 -2.2881 -0.8421 -1.6606
27755SOL    HW286158   2.161   2.138   4.655 -2.7702 -1.0606 -1.8906
27756SOL     OW86159   6.961   2.926   3.165  0.0586 -0.2489 -0.6327
27756SOL    HW186160   6.865   2.928   3.161  0.0518  1.3006 -0.4178
27756SOL    HW286161   6.983   2.833   3.164 -1.5204 -0.6975  0.8076
27757SOL     OW86162   0.015   6.586   9.249 -0.3426 -0.4146  0.1037
27757SOL    HW186163   0.084   6.652   9.243 -0.4269 -0.3197  0.1613
27757SOL    HW286164  -0.019   6.578   9.160 -0.8399  0.1724  0.2311
27758SOL     OW86165   2.760   2.160   5.744  0.8782  0.5083 -0.4398
27758SOL    HW186166   2.779   2.149   5.650 -0.5306  0.0668 -0.6982
27758SOL    HW286167   2.816   2.233   5.771  2.1688 -0.0997 -1.3366
27759SOL     OW86168   3.960   5.605   8.348 -0.7291 -0.3216 -0.1670
27759SOL    HW186169   3.984   5.518   8.315  1.7541  0.5796 -1.0271
27759SOL    HW286170   3.917   5.648   8.274 -0.1838 -0.1894 -0.4178
27760SOL     OW86171   3.965   7.051   7.860  0.3075 -0.0945 -0.1006
27760SOL    HW186172   4.049   7.007   7.848  0.0387 -1.0284  1.2610
27760SOL    HW286173   3.966   7.080   7.951 -0.5978  0.4344 -0.2525
27761SOL     OW86174   2.346   8.783   3.993  0.1718  0.5467  0.2415
27761SOL    HW186175   2.418   8.720   3.987  0.0812  0.3758  0.9257
27761SOL    HW286176   2.348   8.829   3.909 -0.1349 -0.7802 -0.5349
27762SOL     OW86177   8.360   2.461   7.727  0.5151 -0.2238  0.3116
27762SOL    HW186178   8.265   2.454   7.731  0.3640  0.9033 -0.8390
27762SOL    HW286179   8.386   2.482   7.817 -0.7341  3.4205 -0.0358
27763SOL     OW86180   2.756   1.496   5.025  0.1623  0.1447  0.3525
27763SOL    HW186181   2.737   1.437   5.098 -0.2484 -1.2512 -0.8475
27763SOL    HW286182   2.716   1.579   5.052  1.1728  0.0691  2.2903
27764SOL     OW86183   9.614   6.095   0.610  0.7057  0.0364 -0.0873
27764SOL    HW186184   9.629   6.013   0.657  4.2063  0.2551 -0.5846
27764SOL    HW286185   9.585   6.156   0.678 -0.7715 -1.2549  0.5030
27765SOL     OW86186   0.914   5.617   3.091  0.3581  0.1663 -0.5195
27765SOL    HW186187   0.948   5.706   3.102  0.7958 -0.1267  0.6125
27765SOL    HW286188   0.951   5.587   3.008  0.8998  0.7309 -0.4912
27766SOL     OW86189   5.481   4.161   7.581  0.6214 -0.1696  0.1067
27766SOL    HW186190   5.572   4.171   7.608  0.5940  1.0524 -0.1908
27766SOL    HW286191   5.480   4.082   7.527  1.3567 -0.6158  0.7342
27767SOL     OW86192   3.210   2.079   0.099 -0.2117 -0.5089 -0.2200
27767SOL    HW186193   3.243   2.169   0.092 -0.3817 -0.2456  1.7742
27767SOL    HW286194   3.199   2.065   0.193 -2.5341 -1.7949 -0.6266
27768SOL     OW86195   0.440   9.496   4.498 -0.7237  0.0635 -0.0160
27768SOL    HW186196   0.386   9.556   4.549 -1.3507 -0.8794  0.4708
27768SOL    HW286197   0.385   9.418   4.486  0.6402 -1.0812  0.8072
27769SOL     OW86198   7.331   1.204   3.268  0.0262 -0.1635 -0.2095
27769SOL    HW186199   7.251   1.256   3.265 -1.1021 -1.4486 -6.1276
27769SOL    HW286200   7.401   1.269   3.261 -0.8747  0.8427 -0.2273
27770SOL     OW86201   1.675   9.232   5.578 -0.1927  0.1874 -0.1980
27770SOL    HW186202   1.741   9.301   5.584 -1.2833  1.2605  0.1087
27770SOL    HW286203   1.624   9.255   5.501 -1.5846  0.6933  0.8282
27771SOL     OW86204   4.500   7.076   0.687  0.7158  0.5120  0.3782
27771SOL    HW186205   4.553   7.154   0.673 -0.5331  1.2209 -0.6014
27771SOL    HW286206   4.450   7.066   0.606  0.2055 -0.7958  0.8312
27772SOL     OW86207   2.620   8.875   7.030  0.5078  0.3960  0.4529
27772SOL    HW186208   2.653   8.963   7.048 -0.6942  0.7545  1.0168
27772SOL    HW286209   2.536   8.889   6.986  0.9612 -0.4838 -0.7468
27773SOL     OW86210   9.412   7.467   7.299  0.6282  0.8154 -0.3752
27773SOL    HW186211   9.327   7.448   7.337  0.0992  0.5130 -1.6849
27773SOL    HW286212   9.417   7.563   7.298  1.8489  0.9136  3.0071
27774SOL     OW86213   7.912   3.590   5.430  0.1140 -0.2434  0.1119
27774SOL    HW186214   7.893   3.502   5.463  0.4477  0.1801  1.5320
27774SOL    HW286215   7.973   3.576   5.358 -2.2541 -1.3496 -1.8201
27775SOL     OW86216   0.608   7.588   4.163 -0.2208  0.1494 -0.3842
27775SOL    HW186217   0.612   7.521   4.231  0.9836 -0.6249 -1.1919
27775SOL    HW286218   0.514   7.594   4.142 -0.5717  0.1559  1.0744
27776SOL     OW86219   3.187   2.538   4.969 -0.1090  0.5018 -0.4224
27776SOL    HW186220   3.107   2.585   4.993 -0.9164 -0.2832 -1.5124
27776SOL    HW286221   3.223   2.509   5.053 -2.2872 -1.2539  0.0024
27777SOL     OW86222   1.646   7.376   5.227  0.3102 -0.3210  0.0625
27777SOL    HW186223   1.657   7.305   5.291  1.6567 -0.4656 -0.3036
27777SOL    HW286224   1.616   7.451   5.279  0.3635 -0.7307  0.6939
27778SOL     OW86225   7.988   2.491   5.295  0.1775 -0.0584  0.6073
27778SOL    HW186226   7.920   2.425   5.285 -0.6711  0.7964  0.6570
27778SOL    HW286227   8.006   2.493   5.389 -0.6178  0.5884  0.7502
27779SOL     OW86228   5.951   0.097   2.011 -0.0442 -0.0261 -0.3411
27779SOL    HW186229   5.873   0.050   2.041  0.7266 -0.8749  0.4125
27779SOL    HW286230   6.024   0.041   2.038  0.7876  0.2333 -1.9427
27780SOL     OW86231   3.424   7.081   1.902 -0.1219  0.5306 -0.7561
27780SOL    HW186232   3.427   7.172   1.874 -3.1808  0.1781 -2.7623
27780SOL    HW286233   3.395   7.033   1.823  0.3644 -2.0153  0.5042
27781SOL     OW86234   4.307   9.088   1.678  0.4572  0.3188  0.0034
27781SOL    HW186235   4.305   9.108   1.772  1.8156  0.3639  0.0338
27781SOL    HW286236   4.381   9.137   1.644 -0.6166  1.0925 -1.3121
27782SOL     OW86237   8.320   8.234   6.865 -0.3279 -0.3098  0.0567
27782SOL    HW186238   8.317   8.330   6.868  1.9132 -0.1346  3.6753
27782SOL    HW286239   8.410   8.214   6.841 -0.9950 -1.5939 -1.4986
27783SOL     OW86240   6.200   5.787   1.553 -0.0375  0.2154 -0.1056
27783SOL    HW186241   6.187   5.733   1.631  1.0186 -2.0389 -1.3625
27783SOL    HW286242   6.295   5.783   1.537 -0.1284  1.2675 -1.0610
27784SOL     OW86243   5.655   5.262   0.488 -0.6779 -0.1532  0.4545
27784SOL    HW186244   5.669   5.208   0.410  1.3548  0.0430  0.6291
27784SOL    HW286245   5.585   5.218   0.535 -0.8029 -1.2184 -0.6660
27785SOL     OW86246   5.146   3.268   9.306 -0.1609 -0.0188  0.4269
27785SOL    HW186247   5.134   3.178   9.275  0.3394  0.7171 -2.1786
27785SOL    HW286248   5.240   3.274   9.326 -0.1529 -0.0286  0.3919
27786SOL     OW86249   8.929   5.294   4.600  0.3121 -0.3416 -0.2254
27786SOL    HW186250   8.856   5.355   4.593  0.5790 -0.0401 -0.4501
27786SOL    HW286251   8.987   5.334   4.665  0.5233 -0.3187 -0.4267
27787SOL     OW86252   2.842   8.336   6.782 -0.3993 -0.0146  0.2546
27787SOL    HW186253   2.907   8.399   6.813  0.2345 -0.2401 -0.5798
27787SOL    HW286254   2.774   8.336   6.849 -0.4048  1.5386  0.2692
27788SOL     OW86255   9.337   1.250   6.296  0.2558  0.1160  0.3815
27788SOL    HW186256   9.320   1.183   6.230  0.3558 -0.0042  0.4778
27788SOL    HW286257   9.260   1.307   6.292  0.9748  1.0692 -0.9816
27789SOL     OW86258   7.087   9.259   6.223 -0.2461 -0.0250 -0.3640
27789SOL    HW186259   7.069   9.215   6.306  0.4795  0.4557  0.0581
27789SOL    HW286260   7.138   9.196   6.172  0.0451 -0.0026 -0.1030
27790SOL     OW86261   2.011   9.462   7.209 -0.0567 -0.4159  0.5396
27790SOL    HW186262   1.959   9.410   7.270  0.2489 -1.5475 -0.1307
27790SOL    HW286263   2.072   9.510   7.264 -0.7273 -0.3091  1.2168
27791SOL     OW86264   8.942   2.602   5.244  0.3308 -0.0955  0.0221
27791SOL    HW186265   8.896   2.556   5.314  0.0970  0.0705 -0.0202
27791SOL    HW286266   9.025   2.556   5.235  0.8946  0.6273  1.2579
27792SOL     OW86267   9.528   9.511   7.610  0.1766  0.2112  0.0937
27792SOL    HW186268   9.613   9.474   7.586  0.1551  0.6346 -0.7010
27792SOL    HW286269   9.478   9.437   7.645  0.2837 -0.4313 -1.0556
27793SOL     OW86270   6.771   4.249   7.719  0.4235  0.1762  0.0831
27793SOL    HW186271   6.781   4.195   7.798  1.0063 -2.2041 -1.5308
27793SOL    HW286272   6.730   4.329   7.751 -1.1022 -1.4289  2.5310
27794SOL     OW86273   8.889   5.668   7.010 -0.5588  0.9009  0.5456
27794SOL    HW186274   8.973   5.625   6.993 -0.2221  1.6811  0.1840
27794SOL    HW286275   8.835   5.600   7.050 -0.7012 -0.4440 -1.7417
27795SOL     OW86276   6.308   1.433   5.100  0.0408  0.2313 -0.3872
27795SOL    HW186277   6.367   1.440   5.175  1.5503  1.7415 -1.6433
27795SOL    HW286278   6.338   1.355   5.053  0.3076  0.3556 -0.4229
27796SOL     OW86279   2.991   2.555   3.512 -0.4553  0.4196  0.1582
27796SOL    HW186280   2.994   2.472   3.463  0.2705 -0.6398  1.9204
27796SOL    HW286281   2.914   2.546   3.568 -0.2792  0.8734  0.4706
27797SOL     OW86282   6.323   3.127   8.044 -0.2682  0.1596  0.7861
27797SOL    HW186283   6.364   3.214   8.039 -1.3562  0.6654  0.3447
27797SOL    HW286284   6.231   3.143   8.022 -1.0029 -0.7369  2.9422
27798SOL     OW86285   1.293   1.761   8.214  0.2865 -0.2387  0.0775
27798SOL    HW186286   1.238   1.695   8.256 -0.8093  0.6897  0.1561
27798SOL    HW286287   1.283   1.838   8.270  0.8752  0.2390 -0.4721
27799SOL     OW86288   7.834   2.010   8.509  0.2473  0.2133  0.0043
27799SOL    HW186289   7.773   2.071   8.551  0.0955  0.2511 -0.2680
27799SOL    HW286290   7.852   1.945   8.576  0.6877  0.7506  0.4150
27800SOL     OW86291   5.292   7.255   6.455 -0.1002 -0.1788  1.0147
27800SOL    HW186292   5.303   7.336   6.503  0.8839 -0.0356  0.5691
27800SOL    HW286293   5.204   7.260   6.418 -0.7946 -0.2018  2.5951
27801SOL     OW86294   3.000   3.356   3.806  0.2393  0.4332  0.3463
27801SOL    HW186295   3.087   3.396   3.811  0.8302 -0.6489 -0.9208
27801SOL    HW286296   3.017   3.264   3.786 -1.1030 -0.4754  2.8762
27802SOL     OW86297   4.981   2.487   5.276  0.0098  0.2349 -0.1126
27802SOL    HW186298   5.017   2.496   5.364  2.2293  2.4300 -1.1169
27802SOL    HW286299   5.016   2.404   5.244  0.0045 -0.0984  0.7233
27803SOL     OW86300   2.152   3.874   3.745 -0.0741 -0.2198 -0.0453
27803SOL    HW186301   2.069   3.828   3.736 -0.3992  0.3284  0.1515
27803SOL    HW286302   2.188   3.875   3.656 -0.8532  0.6114 -0.3610
27804SOL     OW86303   7.352   4.677   3.554  0.1362 -0.2045 -0.3400
27804SOL    HW186304   7.381   4.750   3.501 -0.1714 -0.3495 -0.7135
27804SOL    HW286305   7.326   4.609   3.491  1.7598 -1.1885 -0.0073
27805SOL     OW86306   8.684   3.592   2.811 -0.3737 -0.0439 -0.0599
27805SOL    HW186307   8.610   3.635   2.768 -1.1374 -1.6717 -0.4409
27805SOL    HW286308   8.657   3.584   2.903 -0.0065  0.7214  0.1268
27806SOL     OW86309   0.600   6.014   3.488 -0.8478 -0.1532 -0.0240
27806SOL    HW186310   0.525   6.019   3.547 -0.8249 -0.2391  0.0119
27806SOL    HW286311   0.612   6.104   3.457  0.3953  0.2759  1.6306
27807SOL     OW86312   9.043   3.766   5.071 -0.6319 -0.0500  0.2127
27807SOL    HW186313   9.069   3.675   5.078 -2.0723 -0.6105 -1.1516
27807SOL    HW286314   8.969   3.775   5.130 -0.3444  0.3050  0.5256
27808SOL     OW86315   8.114   3.777   3.067  0.1267 -0.0035 -0.6208
27808SOL    HW186316   8.018   3.774   3.073  0.1490 -2.2042 -0.7592
27808SOL    HW286317   8.141   3.828   3.144 -1.0727 -1.2909  0.7219
27809SOL     OW86318   4.960   8.299   1.928  0.1627  0.2971  0.0168
27809SOL    HW186319   4.906   8.264   1.998 -0.1331  3.0594  1.2910
27809SOL    HW286320   4.899   8.314   1.855 -0.0292 -0.0881  0.0936
27810SOL     OW86321   3.097   1.992   8.347  0.0546  0.7460 -0.0891
27810SOL    HW186322   3.132   2.050   8.280 -1.5065 -0.1369 -1.7382
27810SOL    HW286323   3.015   2.034   8.375  0.3856  0.7933  0.8568
27811SOL     OW86324   4.634   2.856   2.138  0.6424 -0.2242 -0.0495
27811SOL    HW186325   4.563   2.899   2.186  0.7145 -0.8163  0.6020
27811SOL    HW286326   4.592   2.818   2.061 -0.0762 -1.9228  1.1194
27812SOL     OW86327   0.972   5.630   0.326 -0.1243  0.3609  0.0103
27812SOL    HW186328   1.019   5.617   0.244  0.5482  1.3630  0.2233
27812SOL    HW286329   1.035   5.607   0.394  0.4543  2.6390  0.3365
27813SOL     OW86330   8.181   0.006   5.265  0.6865  0.2485  0.0300
27813SOL    HW186331   8.140  -0.080   5.261  3.1428 -0.9886 -0.5915
27813SOL    HW286332   8.138   0.056   5.196 -0.1397 -0.7742 -0.2244
27814SOL     OW86333   5.026   5.588   6.670 -0.0656  0.4241  0.7467
27814SOL    HW186334   5.109   5.582   6.624 -0.2486 -0.0197  0.4718
27814SOL    HW286335   4.986   5.668   6.637  0.8031  1.3278  1.8087
27815SOL     OW86336   8.188   4.336   2.917 -0.4137 -0.1336  0.0479
27815SOL    HW186337   8.121   4.299   2.974  0.5444  1.0176  2.0028
27815SOL    HW286338   8.260   4.272   2.920 -1.1098 -1.0757 -1.5815
27816SOL     OW86339   3.248   1.530   5.782 -0.4078 -0.1006 -0.3695
27816SOL    HW186340   3.273   1.443   5.814  1.3875  0.4836 -0.0451
27816SOL    HW286341   3.279   1.532   5.691  0.9550  0.6864  0.0766
27817SOL     OW86342   4.740   0.984   1.761 -0.0278  0.5874  0.0933
27817SOL    HW186343   4.727   0.936   1.679  1.3637 -0.7396  0.6068
27817SOL    HW286344   4.827   1.023   1.752  0.0773  0.5423  0.8839
27818SOL     OW86345   8.247   0.985   6.741 -0.5155 -0.2492 -0.1253
27818SOL    HW186346   8.256   1.080   6.752 -0.7931 -0.1448 -0.7699
27818SOL    HW286347   8.238   0.973   6.647  0.8450 -1.0330 -0.1739
27819SOL     OW86348   1.940   1.029   0.631  0.3808  0.0324 -0.0714
27819SOL    HW186349   1.878   0.969   0.672 -0.0656 -0.2689 -1.1555
27819SOL    HW286350   2.013   0.974   0.604  1.0187  0.3439  0.9455
27820SOL     OW86351   0.975   2.004   0.520  0.0832 -0.1381 -0.4586
27820SOL    HW186352   0.963   1.909   0.522  0.2956 -0.1606 -0.1363
27820SOL    HW286353   0.900   2.037   0.470 -0.7076 -0.3623  0.5588
27821SOL     OW86354   9.296   6.620   6.470  0.1329  0.0662  0.1257
27821SOL    HW186355   9.221   6.633   6.412  1.4443 -0.1477 -1.7093
27821SOL    HW286356   9.261   6.573   6.545 -1.5745  0.0283 -0.6572
27822SOL     OW86357   5.004   7.730   8.335 -0.2124  0.1651  0.4735
27822SOL    HW186358   4.924   7.756   8.382 -0.9528 -0.6763 -0.2891
27822SOL    HW286359   5.052   7.676   8.399 -1.7593 -1.9453 -0.0156
27823SOL     OW86360   0.022   5.884   0.760 -0.2715 -0.4002 -0.3546
27823SOL    HW186361   0.090   5.816   0.759  1.7187  1.4986 -0.5166
27823SOL    HW286362  -0.052   5.843   0.805  0.1324 -3.2727 -2.0307
27824SOL     OW86363   2.051   4.555   6.098  0.3108 -0.3619 -0.2527
27824SOL    HW186364   2.036   4.622   6.164  0.3741 -0.3934 -0.2066
27824SOL    HW286365   2.012   4.476   6.135  1.6994 -0.7540  0.4312
27825SOL     OW86366   4.558   4.420   8.064 -0.2479  0.1901 -0.6455
27825SOL    HW186367   4.586   4.432   7.974  0.8908 -0.6311 -0.4209
27825SOL    HW286368   4.504   4.497   8.083  1.3716  1.5548 -1.2924
27826SOL     OW86369   6.217   7.296   2.776 -0.3539 -0.1853 -0.3854
27826SOL    HW186370   6.300   7.261   2.744  1.5275  1.9197  1.7657
27826SOL    HW286371   6.223   7.390   2.759 -1.5399  0.2384  1.3047
27827SOL     OW86372   1.171   0.693   3.080 -0.3320  0.3323 -0.0557
27827SOL    HW186373   1.227   0.699   3.158  0.5452  0.3974 -0.6770
27827SOL    HW286374   1.229   0.715   3.007 -0.6843 -1.4243 -0.9233
27828SOL     OW86375   2.478   9.010   1.540  0.1959  0.1209  0.7974
27828SOL    HW186376   2.555   8.954   1.546  2.1613  2.7211  2.1043
27828SOL    HW286377   2.499   9.085   1.597 -3.2051  1.0815  0.9953
27829SOL     OW86378   0.020   4.381   4.350 -0.3342  0.4586  0.0658
27829SOL    HW186379   0.114   4.363   4.346 -0.5403 -0.8004  0.6250
27829SOL    HW286380  -0.020   4.316   4.293 -0.8660  1.2057 -0.4450
27830SOL     OW86381   6.005   1.740   3.504 -0.0264 -0.3281 -0.6922
27830SOL    HW186382   6.081   1.682   3.507 -0.2645 -0.6402 -0.5814
27830SOL    HW286383   5.961   1.726   3.588  1.0969  1.6485  0.2730
27831SOL     OW86384   8.690   9.199   0.776  0.3419  0.2024  0.4019
27831SOL    HW186385   8.785   9.203   0.766  0.2486  0.5989 -0.4361
27831SOL    HW286386   8.669   9.276   0.830  0.4942  0.1430  0.5454
27832SOL     OW86387   0.716   7.502   3.496  0.4012  0.1221  0.2607
27832SOL    HW186388   0.726   7.562   3.570 -0.9541 -0.3407  0.8447
27832SOL    HW286389   0.644   7.444   3.520 -1.7014  1.4126 -2.3717
27833SOL     OW86390   2.121   2.945   3.233  0.1817 -0.4152  0.0282
27833SOL    HW186391   2.062   3.009   3.274  1.0575  0.1623  0.4027
27833SOL    HW286392   2.194   2.938   3.293  1.2436  0.0424 -1.1600
27834SOL     OW86393   0.534   0.183   0.659  0.3092  0.5118  0.2250
27834SOL    HW186394   0.611   0.157   0.609  0.7226  1.2832  0.4427
27834SOL    HW286395   0.488   0.101   0.677  1.4742 -0.0581  0.7377
27835SOL     OW86396   9.538   5.419   4.828  0.9580  0.0797  0.4950
27835SOL    HW186397   9.527   5.471   4.749 -0.2341 -0.7242  0.0960
27835SOL    HW286398   9.626   5.383   4.822  2.0069  2.3960  1.0327
27836SOL     OW86399   2.207   3.961   0.053 -0.0236 -0.6861  0.3780
27836SOL    HW186400   2.224   3.979  -0.039 -1.9914  0.7308  0.2152
27836SOL    HW286401   2.227   3.868   0.064  0.7891 -0.7489 -1.3169
27837SOL     OW86402   1.085   1.116   3.771  0.1850 -0.5089  0.1193
27837SOL    HW186403   1.043   1.191   3.728  1.2399  0.8965  1.3957
27837SOL    HW286404   1.057   1.040   3.721 -1.4318  0.6731 -0.8695
27838SOL     OW86405   7.965   9.620   8.685 -1.0449  0.1207  0.0198
27838SOL    HW186406   8.005   9.546   8.640  0.5579  0.7923  0.2421
27838SOL    HW286407   7.896   9.650   8.626 -1.0786 -0.9418 -0.5041
27839SOL     OW86408   1.260   0.868   2.828  0.1600  0.2649 -0.0716
27839SOL    HW186409   1.329   0.803   2.840  0.6692  0.6931 -0.6398
27839SOL    HW286410   1.306   0.951   2.817 -0.5051  0.9245  1.7364
27840SOL     OW86411   8.338   0.168   4.443  0.1905  0.4659  0.0958
27840SOL    HW186412   8.390   0.098   4.483 -1.0420 -1.6038 -1.7134
27840SOL    HW286413   8.397   0.206   4.378  0.6801  0.7651  0.6977
27841SOL     OW86414   6.247   8.667   4.847 -0.1211 -0.0688  0.4065
27841SOL    HW186415   6.326   8.713   4.876  1.0394 -1.6200 -0.1715
27841SOL    HW286416   6.184   8.737   4.830  0.4865  1.1366  2.6137
27842SOL     OW86417   3.004   9.318   6.822 -0.3153 -0.0871  0.3266
27842SOL    HW186418   3.003   9.363   6.906 -0.4559  0.0522  0.2504
27842SOL    HW286419   3.091   9.335   6.787 -1.1618  2.2056 -0.8186
27843SOL     OW86420   2.143   8.547   3.200  0.2915 -0.3140  0.7173
27843SOL    HW186421   2.139   8.481   3.131 -0.3580  0.3188  0.1296
27843SOL    HW286422   2.052   8.570   3.217  0.3117 -1.6201  2.9650
27844SOL     OW86423   2.830   8.765   6.329 -0.7735 -0.4325  0.5415
27844SOL    HW186424   2.765   8.707   6.288 -1.1294  0.9363 -0.9287
27844SOL    HW286425   2.782   8.846   6.347  0.4858  0.5905 -0.5162
27845SOL     OW86426   2.708   4.687   0.012  0.2635  0.2537 -0.5596
27845SOL    HW186427   2.720   4.598  -0.024  1.3142 -0.5049  1.5217
27845SOL    HW286428   2.616   4.690   0.037  0.6705 -1.0637  1.2759
27846SOL     OW86429   8.541   5.965   9.224  0.2295 -0.3264 -0.3872
27846SOL    HW186430   8.500   6.026   9.162 -2.3310 -2.2018 -0.7167
27846SOL    HW286431   8.502   5.987   9.309  0.2403 -0.7077 -0.2830
27847SOL     OW86432   2.095   4.177   5.012 -0.0193  0.1006 -0.2107
27847SOL    HW186433   2.020   4.181   4.952  0.3621 -0.0234 -0.7039
27847SOL    HW286434   2.150   4.251   4.986  0.3383 -0.1856 -0.2777
27848SOL     OW86435   8.161   3.340   4.675  0.0674 -0.1155  0.4007
27848SOL    HW186436   8.071   3.370   4.675 -0.3591 -1.3216  1.0545
27848SOL    HW286437   8.214   3.419   4.686 -0.8338  0.7460 -1.1806
27849SOL     OW86438   5.199   2.810   9.051  0.0572 -0.4160  0.5051
27849SOL    HW186439   5.165   2.739   8.996  0.5320 -1.7554  1.8918
27849SOL    HW286440   5.284   2.832   9.012 -0.4850  0.0381 -0.4580
27850SOL     OW86441   5.799   6.369   8.522  0.4244 -0.2269  0.1717
27850SOL    HW186442   5.771   6.403   8.607  0.4195 -2.2431  1.0229
27850SOL    HW286443   5.853   6.438   8.485 -1.1904  1.5213  0.9112
27851SOL     OW86444   5.632   7.274   1.677 -0.4703  0.5030 -0.3198
27851SOL    HW186445   5.672   7.273   1.590  1.0694  2.6352  0.2654
27851SOL    HW286446   5.658   7.192   1.717  3.5008  1.7009 -0.0149
27852SOL     OW86447   6.620   5.094   0.066 -0.0672  0.0501  0.0567
27852SOL    HW186448   6.577   5.167   0.111  0.8425  0.7012 -0.1080
27852SOL    HW286449   6.650   5.131  -0.017 -2.6402 -1.3856 -1.6503
27853SOL     OW86450   8.359   7.211   4.835 -0.8351 -0.0700  0.1010
27853SOL    HW186451   8.334   7.136   4.782 -1.7300  0.1930  0.1331
27853SOL    HW286452   8.366   7.284   4.773  0.5196 -0.2689 -0.0055
27854SOL     OW86453   5.277   4.099   2.775 -0.1585  0.3762 -0.1942
27854SOL    HW186454   5.325   4.100   2.858  1.4012 -0.8519 -1.0310
27854SOL    HW286455   5.208   4.164   2.787  0.4114  0.6835  1.8335
27855SOL     OW86456   1.554   8.175   9.221 -0.1071 -0.3211  0.6934
27855SOL    HW186457   1.481   8.131   9.265 -0.0859 -0.4473  0.6054
27855SOL    HW286458   1.607   8.211   9.292 -1.2283  1.3779  0.7131
27856SOL     OW86459   0.698   5.387   4.835 -0.2654 -0.0417 -0.0120
27856SOL    HW186460   0.788   5.399   4.805 -0.4429 -1.0472 -1.0184
27856SOL    HW286461   0.666   5.476   4.852  1.2077  0.2704  1.3084
27857SOL     OW86462   2.938   5.364   3.901 -0.0332 -0.3936 -0.4138
27857SOL    HW186463   3.010   5.384   3.843  0.0683 -1.0740 -0.5305
27857SOL    HW286464   2.910   5.449   3.935  2.7686 -0.2786  2.0131
27858SOL     OW86465   0.858   6.831   5.758 -0.1826  0.0103 -0.3919
27858SOL    HW186466   0.767   6.809   5.734 -0.9694  0.1779  2.1480
27858SOL    HW286467   0.888   6.756   5.807  0.3321  0.8072  0.5345
27859SOL     OW86468   6.586   3.902   4.736 -0.1510  0.7166  0.0972
27859SOL    HW186469   6.653   3.896   4.668 -1.7497 -1.2706 -1.4291
27859SOL    HW286470   6.623   3.855   4.810  2.3361  4.3694  1.4466
27860SOL     OW86471   2.256   3.197   8.721 -0.0281  0.6804  0.5152
27860SOL    HW186472   2.259   3.103   8.735  2.0268  0.7737  1.0803
27860SOL    HW286473   2.169   3.224   8.750 -0.2021 -0.8660  1.5094
27861SOL     OW86474   4.569   5.843   9.406  0.0498  0.1953 -0.4532
27861SOL    HW186475   4.533   5.894   9.479  0.4736  0.6612 -0.5637
27861SOL    HW286476   4.642   5.795   9.445  0.5273  0.7483 -0.6451
27862SOL     OW86477   9.451   8.497   4.201 -0.2065 -0.3763  0.1770
27862SOL    HW186478   9.372   8.535   4.238  1.6841  1.7481  2.3377
27862SOL    HW286479   9.465   8.545   4.119 -1.1545 -0.8051 -0.2415
27863SOL     OW86480   8.055   7.391   2.826  0.0174 -0.0340 -0.1976
27863SOL    HW186481   8.000   7.467   2.845 -0.3421 -0.3123 -0.1174
27863SOL    HW286482   8.048   7.379   2.731 -0.6251 -0.4941 -0.0964
27864SOL     OW86483   8.568   4.873   1.765  0.4343  0.5662  1.1736
27864SOL    HW186484   8.638   4.851   1.826 -0.2580  1.5136  2.3471
27864SOL    HW286485   8.487   4.857   1.813 -0.1191  2.2077  0.8557
27865SOL     OW86486   1.084   9.582   3.903 -0.2264  0.3017  0.4699
27865SOL    HW186487   1.067   9.512   3.840 -0.5917  0.1801  0.6996
27865SOL    HW286488   1.004   9.588   3.955 -0.1955  0.8885  0.4561
27866SOL     OW86489   4.647   4.616   1.103  1.0047 -0.0593  0.1006
27866SOL    HW186490   4.587   4.656   1.166 -0.6702 -1.4105 -0.5430
27866SOL    HW286491   4.716   4.681   1.090 -1.0731  2.2400 -0.1700
27867SOL     OW86492   7.178   7.077   3.331  0.7157  0.0640 -0.0233
27867SOL    HW186493   7.092   7.057   3.296 -0.4338  3.3551  0.5735
27867SOL    HW286494   7.164   7.091   3.425  1.9600  0.3024  0.1533
27868SOL     OW86495   3.900   5.974   7.342 -0.0003  0.5556 -0.1200
27868SOL    HW186496   3.819   5.931   7.312  0.6357 -1.1235  0.4637
27868SOL    HW286497   3.906   5.951   7.435  1.5180  0.0285 -0.3209
27869SOL     OW86498   7.114   9.132   6.639  0.2720  0.1018 -0.0274
27869SOL    HW186499   7.129   9.198   6.706  0.4794  0.1987 -0.1679
27869SOL    HW286500   7.069   9.179   6.569  0.2976  0.0644 -0.0694
27870SOL     OW86501   3.888   6.183   8.466  0.0455  0.1753  0.0828
27870SOL    HW186502   3.964   6.170   8.409 -0.9050  0.7309 -1.3730
27870SOL    HW286503   3.813   6.180   8.406 -0.8632  2.9447  0.9547
27871SOL     OW86504   5.280   7.551   2.002  0.9239 -0.1308 -0.5073
27871SOL    HW186505   5.321   7.490   1.940  1.4408 -0.6955  0.3618
27871SOL    HW286506   5.350   7.571   2.064  0.8963  1.7046 -1.0061
27872SOL     OW86507   5.722   7.668   2.328  0.5491 -0.3669  0.0732
27872SOL    HW186508   5.781   7.678   2.253  1.4944 -0.2572  0.8239
27872SOL    HW286509   5.663   7.596   2.302 -0.4205  0.9427 -1.5610
27873SOL     OW86510   2.536   1.560   4.431 -0.2671  0.0939 -0.1176
27873SOL    HW186511   2.532   1.511   4.513 -1.8373  0.7537  0.2469
27873SOL    HW286512   2.607   1.622   4.443 -1.0144  0.7554  1.1107
27874SOL     OW86513   1.019   8.368   1.210  0.3330  0.2350 -0.6988
27874SOL    HW186514   1.011   8.274   1.226  1.1615  0.3151  0.3036
27874SOL    HW286515   1.100   8.393   1.255 -0.5514  1.6675  0.1833
27875SOL     OW86516   9.324   4.508   2.753  0.0055  0.1497  0.1521
27875SOL    HW186517   9.381   4.568   2.800 -1.0201  0.8844  0.5075
27875SOL    HW286518   9.339   4.527   2.661  0.7471 -0.0630  0.2295
27876SOL     OW86519   8.084   8.303   8.088  0.2926  0.1234 -0.2521
27876SOL    HW186520   8.002   8.279   8.044  0.6369  0.1519 -0.9098
27876SOL    HW286521   8.092   8.397   8.071 -0.9878  0.7693  2.2006
27877SOL     OW86522   5.442   6.439   1.828 -0.2418 -0.1796  0.1108
27877SOL    HW186523   5.474   6.458   1.740 -1.1483  1.0056  0.0018
27877SOL    HW286524   5.520   6.422   1.880  0.4039  0.5022 -0.6197
27878SOL     OW86525   5.114   3.247   2.540 -0.2897 -0.5009  0.0748
27878SOL    HW186526   5.167   3.168   2.545 -0.3564 -0.5774 -0.4690
27878SOL    HW286527   5.178   3.318   2.527 -0.3010 -0.5654 -0.3324
27879SOL     OW86528   1.358   5.698   0.228  0.2313 -0.0700 -0.2670
27879SOL    HW186529   1.365   5.615   0.275  0.9098 -0.8366 -1.6699
27879SOL    HW286530   1.446   5.714   0.194  0.0271  1.0635 -0.2895
27880SOL     OW86531   2.242   4.830   7.930 -0.4533  0.6643 -0.3743
27880SOL    HW186532   2.331   4.811   7.899 -0.3764 -0.2038  0.3214
27880SOL    HW286533   2.185   4.799   7.859 -0.2643 -0.8068  0.0796
27881SOL     OW86534   5.306   8.168   7.757  0.3292 -0.1716  0.1372
27881SOL    HW186535   5.253   8.245   7.736  0.4371  0.5089  2.1367
27881SOL    HW286536   5.261   8.096   7.712 -0.8580  0.7640 -0.2578
27882SOL     OW86537   2.098   3.386   0.225 -0.6518 -0.5249 -0.4408
27882SOL    HW186538   2.113   3.312   0.166 -1.3279 -2.3018  1.5030
27882SOL    HW286539   2.141   3.362   0.306 -0.0056  1.7288 -0.0325
27883SOL     OW86540   4.383   7.041   3.602  0.6513  0.2883  0.3756
27883SOL    HW186541   4.404   7.036   3.509  1.0732  1.0050  0.4219
27883SOL    HW286542   4.467   7.036   3.647  0.4567  0.0171  0.7152
27884SOL     OW86543   0.618   5.705   0.024  0.1180 -0.7259 -0.0072
27884SOL    HW186544   0.674   5.680   0.098 -0.8410  0.8632  1.3216
27884SOL    HW286545   0.677   5.746  -0.039  0.8814 -1.7309  0.0259
27885SOL     OW86546   8.101   1.166   4.654 -0.5532 -0.7705 -0.7083
27885SOL    HW186547   8.025   1.132   4.608 -0.7500 -2.3497  0.7115
27885SOL    HW286548   8.075   1.255   4.680 -0.8002 -0.2154 -2.6906
27886SOL     OW86549   5.317   9.260   8.927 -0.1063 -0.3506  0.4405
27886SOL    HW186550   5.368   9.213   8.861  1.2113  1.0402  0.4021
27886SOL    HW286551   5.378   9.274   9.000 -1.2963 -1.1334  1.6274
27887SOL     OW86552   9.643   4.087   6.506  0.6495  0.9098  0.5290
27887SOL    HW186553   9.658   4.066   6.414 -2.7490  3.2640 -0.7806
27887SOL    HW286554   9.724   4.063   6.550  2.1374 -1.0527 -2.9087
27888SOL     OW86555   4.021   1.991   9.082 -0.4861  0.7866 -0.7473
27888SOL    HW186556   4.012   1.925   9.014  0.5637 -0.2152  0.0490
27888SOL    HW286557   4.021   2.074   9.035 -2.1427  0.2696 -1.7324
27889SOL     OW86558   0.176   2.535   1.280 -0.2541 -0.4281  0.0387
27889SOL    HW186559   0.230   2.472   1.327 -1.0085 -2.3321 -1.5174
27889SOL    HW286560   0.160   2.494   1.195 -0.3029  2.1291 -1.2836
27890SOL     OW86561   6.424   8.634   0.970 -0.4685  0.0403 -0.6055
27890SOL    HW186562   6.392   8.724   0.973  1.3847  0.7478 -0.5818
27890SOL    HW286563   6.453   8.616   1.060  0.7260  0.0645 -0.9588
27891SOL     OW86564   0.073   2.819   4.168 -0.4869  0.1393  0.1016
27891SOL    HW186565   0.056   2.798   4.076 -0.4020 -0.2026  0.1600
27891SOL    HW286566   0.017   2.757   4.216 -0.7358  0.4998  0.2783
27892SOL     OW86567   4.513   0.894   4.556  0.1315  0.4471  0.2883
27892SOL    HW186568   4.485   0.879   4.646  0.5904  0.6532  0.4669
27892SOL    HW286569   4.603   0.862   4.552  0.5453  1.5523  0.2325
27893SOL     OW86570   7.624   5.788   7.949 -0.1150 -0.2941 -0.3540
27893SOL    HW186571   7.546   5.754   7.905  0.9879 -2.4780 -0.7676
27893SOL    HW286572   7.677   5.826   7.878  0.0505 -0.5435 -0.3638
27894SOL     OW86573   6.128   2.770   4.633  0.0427  0.8755  0.2690
27894SOL    HW186574   6.092   2.825   4.702 -0.0481  1.7644 -0.4531
27894SOL    HW286575   6.114   2.680   4.662  1.9962  1.1789  2.4351
27895SOL     OW86576   2.938   6.380   0.471 -0.4688  0.3423 -0.8394
27895SOL    HW186577   2.848   6.394   0.443 -0.5785  0.5485 -0.4019
27895SOL    HW286578   2.991   6.425   0.406 -0.6840  0.2559 -1.0760
27896SOL     OW86579   1.720   2.524   4.075  0.0461  0.0951 -0.1997
27896SOL    HW186580   1.808   2.544   4.045 -0.5575  2.6243 -0.5338
27896SOL    HW286581   1.706   2.433   4.051  2.0922  0.0261 -1.3050
27897SOL     OW86582   2.247   0.011   3.372  0.7146  0.1346  0.7179
27897SOL    HW186583   2.254  -0.084   3.371 -0.6900 -0.0071 -1.1310
27897SOL    HW286584   2.307   0.041   3.304 -0.4547  0.3653 -0.2584
27898SOL     OW86585   0.669   0.796   8.435  0.1923 -0.6222  0.6443
27898SOL    HW186586   0.762   0.774   8.428  0.1802 -0.5758  0.3266
27898SOL    HW286587   0.667   0.877   8.486  0.4120  0.0705 -0.4230
27899SOL     OW86588   8.650   1.613   1.351  0.1625 -0.3446  0.2790
27899SOL    HW186589   8.592   1.658   1.289  3.0830  1.7836 -1.1409
27899SOL    HW286590   8.648   1.521   1.323 -1.0323  0.0027 -0.9004
27900SOL     OW86591   7.418   0.809   7.875  0.4949  0.3201 -0.2433
27900SOL    HW186592   7.392   0.734   7.928  1.4954  0.4610  0.4713
27900SOL    HW286593   7.342   0.827   7.820  0.1714 -1.0952 -0.2966
27901SOL     OW86594   9.184   1.660   7.865 -0.2735 -0.3382  0.3591
27901SOL    HW186595   9.129   1.719   7.916  0.1224 -0.1433  0.5687
27901SOL    HW286596   9.270   1.703   7.863 -0.3358 -0.2335 -0.6687
27902SOL     OW86597   4.820   6.349   0.151  0.1789  0.4747  0.4437
27902SOL    HW186598   4.747   6.411   0.157 -0.5348 -0.2920  0.0125
27902SOL    HW286599   4.778   6.263   0.153  0.9508  0.0206 -1.1651
27903SOL     OW86600   0.386   0.068   4.066 -0.3260 -0.1454 -0.1103
27903SOL    HW186601   0.426  -0.004   4.018 -0.1847  0.2512 -0.5892
27903SOL    HW286602   0.454   0.098   4.126  0.3271  0.9237 -1.3435
27904SOL     OW86603   3.138   4.300   3.430 -0.4009 -0.3740 -0.2797
27904SOL    HW186604   3.181   4.333   3.509  1.6821 -1.3098 -0.9478
27904SOL    HW286605   3.049   4.280   3.458 -0.7108  2.3321  0.9999
27905SOL     OW86606   9.641   7.191   7.992 -0.5572  0.4314 -0.7361
27905SOL    HW186607   9.651   7.172   7.899 -0.1950  0.2988 -0.6718
27905SOL    HW286608   9.700   7.129   8.036 -1.0688  0.1846 -0.3918
27906SOL     OW86609   4.580   1.494   2.587 -0.7414  0.1271 -0.1068
27906SOL    HW186610   4.580   1.399   2.598 -0.6156  0.0164 -0.9738
27906SOL    HW286611   4.589   1.529   2.676 -2.5049 -0.6383  0.4219
27907SOL     OW86612   1.282   2.818   2.710  0.3951  0.4414 -0.1629
27907SOL    HW186613   1.280   2.845   2.801 -1.9328  2.3940 -0.6905
27907SOL    HW286614   1.340   2.742   2.708  1.6012  1.1810  2.6740
27908SOL     OW86615   4.233   8.135   2.496  0.3347  0.0316 -0.4808
27908SOL    HW186616   4.305   8.087   2.536  0.0186  1.0474  1.4201
27908SOL    HW286617   4.157   8.078   2.509  0.2516  0.3152  0.2975
27909SOL     OW86618   2.386   3.313   1.151 -0.2778  0.3869  0.2631
27909SOL    HW186619   2.368   3.345   1.239  0.4587 -0.7355  0.8482
27909SOL    HW286620   2.387   3.218   1.159  1.4014  0.2870 -0.6065
27910SOL     OW86621   1.789   3.363   7.658 -0.4153  0.5685 -0.3660
27910SOL    HW186622   1.701   3.333   7.677 -1.0479  1.6527 -1.4074
27910SOL    HW286623   1.804   3.435   7.719 -0.6959  1.1025 -0.9139
27911SOL     OW86624   5.469   9.165   7.514  0.7827 -0.3532 -0.4702
27911SOL    HW186625   5.437   9.075   7.514  0.2243 -0.1780  0.5704
27911SOL    HW286626   5.561   9.158   7.489  1.0826 -1.3713  0.7781
27912SOL     OW86627   5.169   8.853   4.197  0.5515 -0.0519 -0.5599
27912SOL    HW186628   5.144   8.808   4.116 -0.3313  0.8064 -0.7799
27912SOL    HW286629   5.226   8.790   4.242  0.2147 -0.9561 -1.3482
27913SOL     OW86630   5.883   1.612   9.511 -0.0180 -0.1566 -0.3773
27913SOL    HW186631   5.915   1.548   9.574 -1.7621  0.5467  1.3269
27913SOL    HW286632   5.793   1.586   9.493  0.3903 -0.2750 -2.5755
27914SOL     OW86633   3.011   2.593   5.569  0.5650  0.6967  0.4220
27914SOL    HW186634   3.080   2.639   5.617 -0.6063  1.1923  1.6584
27914SOL    HW286635   3.055   2.515   5.534  1.2167 -0.4126  3.3941
27915SOL     OW86636   1.758   8.904   2.544  0.3430  0.6375  0.0060
27915SOL    HW186637   1.726   8.823   2.503  1.4829  1.1256 -1.9820
27915SOL    HW286638   1.830   8.876   2.601  0.6162  0.2269 -0.5339
27916SOL     OW86639   2.071   5.968   5.205  0.3872 -0.4752  0.1843
27916SOL    HW186640   2.066   5.872   5.209  0.4470 -0.4518  1.7210
27916SOL    HW286641   2.089   5.994   5.296 -0.3416  1.0305 -0.0696
27917SOL     OW86642   1.591   4.456   8.510 -0.4159 -0.3176 -0.2306
27917SOL    HW186643   1.592   4.380   8.569  0.0295  0.0875  0.2977
27917SOL    HW286644   1.679   4.459   8.473  0.0100  0.7357  0.8104
27918SOL     OW86645   5.824   0.041   2.344 -0.1748  0.0227  0.4237
27918SOL    HW186646   5.816   0.136   2.354  1.5302  0.3833 -1.1402
27918SOL    HW286647   5.916   0.027   2.325 -0.9651 -1.5317 -2.9663
27919SOL     OW86648   2.597   1.476   6.773  0.1487  0.0880  0.0714
27919SOL    HW186649   2.610   1.505   6.682  2.2483  0.8402  0.5500
27919SOL    HW286650   2.686   1.463   6.806 -0.5683  0.2472  2.1665
27920SOL     OW86651   3.679   9.391   3.298  0.6224  0.5772 -0.0102
27920SOL    HW186652   3.675   9.297   3.314  0.8059  0.4415 -0.7145
27920SOL    HW286653   3.773   9.410   3.292  0.5709  0.6776 -0.5528
27921SOL     OW86654   2.441   8.166   6.220 -0.0901 -0.0806 -0.1681
27921SOL    HW186655   2.451   8.155   6.126 -0.3207 -0.5573 -0.1404
27921SOL    HW286656   2.440   8.261   6.234  1.5273  0.0175 -0.4736
27922SOL     OW86657   5.947   1.107   0.770 -0.0497  0.2629 -0.4273
27922SOL    HW186658   5.880   1.148   0.714  0.2340  3.0086  1.1153
27922SOL    HW286659   6.024   1.162   0.760  1.0989 -1.1798  0.1047
27923SOL     OW86660   3.596   4.252   2.514 -0.7003 -0.2370  0.1218
27923SOL    HW186661   3.547   4.326   2.480 -3.2184 -2.7732 -2.3072
27923SOL    HW286662   3.564   4.240   2.603 -2.2144  0.0562 -0.3655
27924SOL     OW86663   5.553   1.783   8.373  0.1430  0.6533  0.2125
27924SOL    HW186664   5.516   1.852   8.428  0.1708  1.1567 -0.3940
27924SOL    HW286665   5.647   1.791   8.384  0.1340  0.4586  0.4424
27925SOL     OW86666   7.044   7.830   4.709 -0.0934  0.4978  0.2258
27925SOL    HW186667   7.052   7.752   4.653 -0.0938  0.5497  0.1539
27925SOL    HW286668   6.963   7.816   4.758 -0.5937  0.9104 -0.4837
27926SOL     OW86669   8.035   9.494   7.392  0.0255  0.2632 -0.6717
27926SOL    HW186670   7.945   9.501   7.359 -0.7878 -0.3853  1.2817
27926SOL    HW286671   8.033   9.539   7.476  0.8628 -1.9460  0.6121
27927SOL     OW86672   7.188   4.283   3.119 -0.4388 -0.4517  0.7794
27927SOL    HW186673   7.259   4.299   3.056 -2.5622  1.0281 -1.3799
27927SOL    HW286674   7.180   4.188   3.121  0.3982 -0.5776 -0.4082
27928SOL     OW86675   2.193   2.594   3.271  0.2112  0.2790 -0.1875
27928SOL    HW186676   2.144   2.654   3.214 -1.1652 -0.6247  0.0151
27928SOL    HW286677   2.127   2.537   3.309  1.1725  0.4043  1.8207
27929SOL     OW86678   4.301   1.603   3.011  0.6279  0.3955  0.5730
27929SOL    HW186679   4.362   1.645   3.073  1.5787  0.2139 -0.2096
27929SOL    HW286680   4.221   1.591   3.061  0.6421  2.2350  1.1346
27930SOL     OW86681   6.185   0.274   4.781  0.4024 -0.1864 -0.0998
27930SOL    HW186682   6.145   0.215   4.717 -0.8706  1.2656 -0.7225
27930SOL    HW286683   6.133   0.260   4.861  1.0804 -0.9772  0.2148
27931SOL     OW86684   1.577   8.830   2.989  0.4787  0.0397  0.3138
27931SOL    HW186685   1.596   8.832   3.083 -0.4139 -2.2943  0.6050
27931SOL    HW286686   1.503   8.889   2.977  1.3456  1.2660  0.8544
27932SOL     OW86687   5.867   3.267   7.141 -0.5785 -0.1966 -0.2693
27932SOL    HW186688   5.885   3.256   7.234 -0.1814  1.8542 -0.0405
27932SOL    HW286689   5.923   3.340   7.115 -1.6579  0.1307 -1.7949
27933SOL     OW86690   8.941   2.280   5.474 -0.5033  0.3124 -0.3449
27933SOL    HW186691   9.007   2.300   5.541 -0.9107 -0.5008  0.3248
27933SOL    HW286692   8.991   2.262   5.395 -0.0345  1.8502 -0.4189
27934SOL     OW86693   6.464   3.557   1.879 -0.4062  0.1065  0.2302
27934SOL    HW186694   6.408   3.480   1.884 -0.2844 -0.0225 -0.2471
27934SOL    HW286695   6.468   3.591   1.968 -3.9295  2.0682 -0.1725
27935SOL     OW86696   1.571   8.406   9.030 -0.3274  0.5619 -0.0502
27935SOL    HW186697   1.532   8.341   9.088  1.0894 -0.1057  0.1781
27935SOL    HW286698   1.654   8.368   9.003 -0.2352  1.5524 -1.2634
27936SOL     OW86699   5.329   2.940   1.457 -0.3016  0.0995 -0.1693
27936SOL    HW186700   5.238   2.921   1.480 -0.3381 -0.7972 -1.0127
27936SOL    HW286701   5.349   2.882   1.384  0.5369  1.2229 -0.8846
27937SOL     OW86702   2.107   2.444   9.289  0.4230 -0.5389 -0.2091
27937SOL    HW186703   2.054   2.413   9.216 -1.1349  1.6716 -0.0950
27937SOL    HW286704   2.144   2.526   9.259 -0.0015  0.2672  1.3487
27938SOL     OW86705   7.564   4.716   3.745 -0.1181 -0.0279 -0.2892
27938SOL    HW186706   7.524   4.774   3.809  0.7245 -0.2445  0.4513
27938SOL    HW286707   7.490   4.678   3.697 -0.6764  1.8133 -0.9698
27939SOL     OW86708   2.739   6.215   1.821 -0.2407  0.1889 -0.2336
27939SOL    HW186709   2.684   6.191   1.895  1.4877  0.6363  1.2676
27939SOL    HW286710   2.797   6.140   1.809 -0.0170  0.4221 -0.6370
27940SOL     OW86711   7.688   4.283   2.974 -0.1820  0.5146  0.3412
27940SOL    HW186712   7.654   4.215   3.032 -3.8017  1.8191  0.0121
27940SOL    HW286713   7.688   4.242   2.887 -1.9616  0.6833  0.2079
27941SOL     OW86714   6.882   4.536   8.418 -0.1332 -0.0218 -0.4283
27941SOL    HW186715   6.928   4.617   8.400 -0.2807 -0.4276 -2.9943
27941SOL    HW286716   6.942   4.485   8.473  1.0392  0.7767 -0.9426
27942SOL     OW86717   6.661   2.582   0.759 -0.0516  0.2481 -0.3396
27942SOL    HW186718   6.713   2.523   0.704  0.3526  1.5470 -1.4168
27942SOL    HW286719   6.672   2.549   0.848  2.2365  0.1888 -0.5816
27943SOL     OW86720   3.678   2.546   7.690 -0.1124  0.6463 -0.1387
27943SOL    HW186721   3.710   2.627   7.730 -0.6162  1.3675 -1.1643
27943SOL    HW286722   3.692   2.559   7.596 -0.4302 -0.3608 -0.3307
27944SOL     OW86723   3.704   3.332   2.372 -0.0988 -0.5408 -0.6193
27944SOL    HW186724   3.735   3.403   2.429 -1.9633 -0.2543  0.1223
27944SOL    HW286725   3.714   3.367   2.283  0.1287  0.1702 -0.3266
27945SOL     OW86726   1.139   0.394   4.433  0.1051  0.1025  0.3799
27945SOL    HW186727   1.069   0.435   4.484  1.3370  1.1828  1.2370
27945SOL    HW286728   1.194   0.466   4.404  0.9868 -0.7441 -0.1302
27946SOL     OW86729   3.757   2.693   2.652 -0.4868 -0.4681 -0.4751
27946SOL    HW186730   3.680   2.734   2.612 -1.2562  3.0393  3.8049
27946SOL    HW286731   3.831   2.736   2.610 -1.0832  0.2625 -0.8038
27947SOL     OW86732   2.658   2.967   5.817 -0.4918  0.1873 -0.8079
27947SOL    HW186733   2.731   2.966   5.756 -0.9779  0.7119 -1.4161
27947SOL    HW286734   2.655   2.879   5.853  0.8319  0.3313 -0.2876
27948SOL     OW86735   5.920   5.315   0.402 -0.3582 -0.3256  0.3317
27948SOL    HW186736   5.986   5.324   0.470 -0.3713 -0.1660  0.3220
27948SOL    HW286737   5.842   5.285   0.448 -0.2726 -0.5439  0.3391
27949SOL     OW86738   5.263   7.113   6.844 -0.3065  0.1919  0.6740
27949SOL    HW186739   5.273   7.207   6.832  0.9527 -0.1998 -2.2618
27949SOL    HW286740   5.229   7.081   6.760  1.8611 -2.2349  0.5742
27950SOL     OW86741   6.299   3.259   3.285 -0.1734  0.2578  0.1854
27950SOL    HW186742   6.220   3.285   3.332 -0.0513  0.3223  0.3537
27950SOL    HW286743   6.348   3.340   3.271  0.2695  0.1055  0.8263
27951SOL     OW86744   2.570   7.663   4.775 -0.5539  0.2067 -0.0166
27951SOL    HW186745   2.602   7.719   4.845 -0.7640 -0.3924  0.5761
27951SOL    HW286746   2.478   7.648   4.796 -0.9244  0.9537 -1.0598
27952SOL     OW86747   2.905   3.121   4.163 -0.9795  0.1690 -0.3839
27952SOL    HW186748   2.882   3.030   4.143  1.6807 -0.6086 -0.3247
27952SOL    HW286749   2.977   3.114   4.225  1.7337  2.1526 -3.0065
27953SOL     OW86750   0.050   8.862   3.621 -0.0251 -0.2855  0.8072
27953SOL    HW186751  -0.038   8.846   3.588  0.0706  0.1119  0.3543
27953SOL    HW286752   0.091   8.776   3.621 -0.4764 -0.5068  1.2167
27954SOL     OW86753   9.292   2.255   6.497 -0.4004  0.2358  0.2132
27954SOL    HW186754   9.243   2.209   6.429  0.0034 -1.0195  0.7439
27954SOL    HW286755   9.381   2.221   6.489 -0.1982  0.5899  0.9314
27955SOL     OW86756   3.419   3.013   7.742 -0.0962  0.0801  0.2545
27955SOL    HW186757   3.372   3.096   7.734  0.7344  0.3819 -2.7088
27955SOL    HW286758   3.356   2.947   7.715 -0.0449  0.0296  0.2590
27956SOL     OW86759   9.260   3.092   6.811  0.4054  0.3415 -0.7898
27956SOL    HW186760   9.197   3.141   6.758 -0.7333 -1.4300 -1.1395
27956SOL    HW286761   9.304   3.034   6.750 -0.7069 -1.5120  0.0856
27957SOL     OW86762   1.832   1.897   4.947  0.1030 -0.0083 -0.5055
27957SOL    HW186763   1.736   1.900   4.952 -0.0055 -1.9017 -0.6629
27957SOL    HW286764   1.859   1.988   4.957 -1.5939  0.3565  1.9261
27958SOL     OW86765   4.358   4.494   3.553  0.0691  0.0975 -0.1459
27958SOL    HW186766   4.277   4.532   3.519  0.7204  1.8754  0.1865
27958SOL    HW286767   4.331   4.441   3.628 -0.7606  0.9475  0.1691
27959SOL     OW86768   8.529   1.030   2.505 -0.1030  0.3891  0.1332
27959SOL    HW186769   8.622   1.019   2.484  0.0339 -1.8310  1.5648
27959SOL    HW286770   8.514   0.970   2.578 -2.6385  0.8091  0.0357
27960SOL     OW86771   5.929   1.115   6.749  0.6216  0.5151 -0.1132
27960SOL    HW186772   5.985   1.048   6.709  2.2883  2.3309 -0.9806
27960SOL    HW286773   5.954   1.114   6.841 -0.0174 -0.6320  0.0695
27961SOL     OW86774   1.821   1.778   7.892 -0.3226 -0.1186  0.1818
27961SOL    HW186775   1.914   1.776   7.916 -0.7563  0.0132  2.1076
27961SOL    HW286776   1.816   1.834   7.815  1.3620 -1.4119 -0.9447
27962SOL     OW86777   9.149   3.515   3.368 -0.4079 -0.2243  0.0343
27962SOL    HW186778   9.076   3.574   3.388 -0.5826 -0.2622 -0.4840
27962SOL    HW286779   9.204   3.518   3.447 -1.8547 -1.5566  1.1620
27963SOL     OW86780   9.150   6.766   7.596  0.1573 -0.0192  0.5892
27963SOL    HW186781   9.057   6.765   7.620  0.4982 -0.0204  2.0029
27963SOL    HW286782   9.183   6.681   7.626  0.3657 -0.5590 -1.0630
27964SOL     OW86783   4.672   0.400   1.742 -0.2363  0.2334  0.4782
27964SOL    HW186784   4.621   0.429   1.667  2.5659 -0.1031 -1.7357
27964SOL    HW286785   4.654   0.306   1.748 -0.9018  0.3639  0.6134
27965SOL     OW86786   9.486   9.145   0.858  0.1421  0.3312  0.2550
27965SOL    HW186787   9.456   9.099   0.936  0.5718  1.3648  1.0533
27965SOL    HW286788   9.558   9.091   0.824  0.2311  0.0916  0.8156
27966SOL     OW86789   3.077   1.356   4.306 -0.0440  0.7854 -0.0723
27966SOL    HW186790   3.038   1.426   4.255  1.7096  1.7270 -0.2053
27966SOL    HW286791   3.164   1.343   4.267  1.2494  1.3243  2.4096
27967SOL     OW86792   9.015   2.231   6.968  1.2656  0.0292  0.7296
27967SOL    HW186793   9.025   2.183   6.886  0.0249 -0.7893  1.0354
27967SOL    HW286794   8.972   2.313   6.943  1.3839  0.0183  0.4912
27968SOL     OW86795   0.386   3.865   9.512 -0.2847 -0.5050 -0.0842
27968SOL    HW186796   0.332   3.866   9.591  1.1361 -0.5498  0.9276
27968SOL    HW286797   0.333   3.908   9.445 -1.3442 -0.0750  1.0139
27969SOL     OW86798   8.150   6.952   4.484 -0.7102 -0.3272 -0.1459
27969SOL    HW186799   8.215   6.964   4.554 -1.0089 -0.5473  0.1743
27969SOL    HW286800   8.066   6.948   4.530 -0.9827  0.2076 -0.5745
27970SOL     OW86801   1.953   0.814   1.585 -0.3338 -0.2863  0.0366
27970SOL    HW186802   1.896   0.760   1.639  0.0935 -1.4100 -0.6064
27970SOL    HW286803   1.996   0.752   1.526  0.0055  0.7805 -0.8751
27971SOL     OW86804   1.005   7.112   1.317 -0.2614  0.0857 -0.3011
27971SOL    HW186805   1.036   7.062   1.242  1.9488 -0.7404  1.0557
27971SOL    HW286806   1.043   7.199   1.305  1.8978 -0.6292  0.8186
27972SOL     OW86807   1.049   7.387   5.524  0.0547 -0.2134  0.4100
27972SOL    HW186808   0.973   7.425   5.568 -0.4590 -0.0988 -0.5512
27972SOL    HW286809   1.036   7.406   5.432  1.9861  1.0854  0.3379
27973SOL     OW86810   0.275   9.222   0.443 -0.0871  0.2585 -0.1712
27973SOL    HW186811   0.343   9.223   0.375  1.1366 -1.9293  0.8956
27973SOL    HW286812   0.246   9.131   0.446 -2.7878  1.0500 -0.2440
27974SOL     OW86813   3.230   2.849   0.476  0.8166  0.1860  0.2325
27974SOL    HW186814   3.185   2.921   0.430 -1.8913 -1.4467  0.1181
27974SOL    HW286815   3.312   2.838   0.428  0.3085  1.7634 -1.1009
27975SOL     OW86816   2.774   2.109   5.471 -0.0288 -0.7605 -0.1662
27975SOL    HW186817   2.810   2.128   5.384 -0.1584  2.1929  0.2967
27975SOL    HW286818   2.688   2.072   5.454  0.9082 -2.5794 -1.2562
27976SOL     OW86819   6.179   5.133   4.249  0.1415  0.2888  0.9647
27976SOL    HW186820   6.178   5.078   4.170  0.2292  0.5486  0.7816
27976SOL    HW286821   6.118   5.204   4.229  0.4959  0.5957  0.9573
27977SOL     OW86822   9.322   2.655   5.134 -0.1201  0.3794  0.1620
27977SOL    HW186823   9.386   2.622   5.070  0.2678 -0.5775  1.0128
27977SOL    HW286824   9.371   2.719   5.185 -0.9515  2.6050 -1.6692
27978SOL     OW86825   2.341   6.408   5.672 -0.2163 -0.0320  0.0836
27978SOL    HW186826   2.259   6.439   5.711  1.0995  0.6420  2.5565
27978SOL    HW286827   2.335   6.313   5.677 -1.7724 -0.0903 -1.9421
27979SOL     OW86828   7.939   3.491   5.757  0.7370 -0.2397 -0.5173
27979SOL    HW186829   7.856   3.493   5.710  0.9371  2.3411 -0.9426
27979SOL    HW286830   7.944   3.404   5.796 -1.5509 -0.8793 -1.5378
27980SOL     OW86831   8.243   3.420   7.363  0.0643 -0.3247 -0.0827
27980SOL    HW186832   8.305   3.477   7.409 -0.0032 -0.7834  0.5797
27980SOL    HW286833   8.167   3.477   7.347 -0.5607 -0.5801  1.7971
27981SOL     OW86834   9.483   7.009   0.588  0.0036 -0.2622  0.4343
27981SOL    HW186835   9.402   6.967   0.561  0.6305  0.2987 -2.8678
27981SOL    HW286836   9.546   6.937   0.595  0.3241 -0.3537 -2.1077
27982SOL     OW86837   6.043   4.928   8.249 -0.0418  0.3103  0.5953
27982SOL    HW186838   6.041   4.870   8.326  0.8060 -2.3166 -1.2420
27982SOL    HW286839   6.127   4.909   8.207 -0.5336  1.6249 -1.0662
27983SOL     OW86840   5.952   4.425   3.317  0.2244  0.3522 -0.7065
27983SOL    HW186841   5.913   4.345   3.351 -0.3312  0.0102 -2.0613
27983SOL    HW286842   5.966   4.480   3.394 -3.5714  0.7940 -0.1168
27984SOL     OW86843   2.432   6.952   3.390  0.1663 -0.6187  0.2703
27984SOL    HW186844   2.517   6.980   3.357  0.4544  3.5982  3.7927
27984SOL    HW286845   2.371   6.973   3.318  1.7388 -1.8461 -1.5291
27985SOL     OW86846   6.645   7.867   7.495  0.1036 -0.3682  0.1645
27985SOL    HW186847   6.618   7.941   7.549  1.5111  1.3126 -1.2985
27985SOL    HW286848   6.722   7.832   7.538  0.3501  0.0281  0.0539
27986SOL     OW86849   4.376   5.774   4.641 -0.2170 -0.1283  0.2561
27986SOL    HW186850   4.452   5.831   4.636 -0.1445 -0.1539  0.9136
27986SOL    HW286851   4.371   5.748   4.733  0.0618 -1.6098 -0.1186
27987SOL     OW86852   4.634   1.235   5.858  0.2545  0.2031 -0.5450
27987SOL    HW186853   4.541   1.253   5.871  0.1928  0.3365 -1.1190
27987SOL    HW286854   4.677   1.319   5.877  0.2440  0.1714 -0.3851
27988SOL     OW86855   7.480   7.520   2.301 -0.0468  0.0087 -0.2928
27988SOL    HW186856   7.414   7.578   2.340  1.2653  0.4998  1.3109
27988SOL    HW286857   7.563   7.550   2.338  1.1944 -0.2167 -2.6733
27989SOL     OW86858   9.247   1.956   5.607  0.1556  0.0402  0.0895
27989SOL    HW186859   9.174   1.920   5.658 -1.6257  0.6573 -1.8873
27989SOL    HW286860   9.318   1.965   5.670 -1.1186 -1.5875  1.8804
27990SOL     OW86861   3.690   6.034   5.079  0.1915 -0.1280  0.2075
27990SOL    HW186862   3.784   6.050   5.088 -0.1234  0.8295  2.8401
27990SOL    HW286863   3.679   5.940   5.094  0.5781  0.1127  2.2702
27991SOL     OW86864   9.137   3.671   2.062  0.0450  0.2056  0.6186
27991SOL    HW186865   9.074   3.634   2.000  0.4154  1.0035 -0.2679
27991SOL    HW286866   9.213   3.613   2.057 -0.1740 -0.1036  0.8251
27992SOL     OW86867   6.384   0.208   0.112  0.1324 -0.3736  0.1080
27992SOL    HW186868   6.302   0.240   0.149 -0.3972  0.2906 -1.5343
27992SOL    HW286869   6.445   0.281   0.122 -0.1526 -0.0056 -0.7138
27993SOL     OW86870   7.488   1.899   4.724 -0.0347 -0.6512  0.5789
27993SOL    HW186871   7.484   1.837   4.796 -1.6173 -1.5022 -0.1927
27993SOL    HW286872   7.567   1.874   4.676  0.8815 -0.2462  1.8230
27994SOL     OW86873   7.711   1.409   3.163  1.0274  0.2549 -0.4737
27994SOL    HW186874   7.731   1.390   3.072 -0.8812  0.2558 -0.9340
27994SOL    HW286875   7.759   1.490   3.182  1.6514  0.1126 -1.3823
27995SOL     OW86876   5.298   6.335   5.496 -0.0817 -0.3305 -0.0505
27995SOL    HW186877   5.355   6.391   5.444 -1.1836  0.8178 -0.0501
27995SOL    HW286878   5.264   6.270   5.435 -1.2334  0.9045 -0.7713
27996SOL     OW86879   4.659   8.590   6.711 -0.3183 -0.5767  0.3115
27996SOL    HW186880   4.708   8.592   6.793 -0.0316 -1.2674  0.1654
27996SOL    HW286881   4.722   8.555   6.647 -1.0974 -1.8115  0.1871
27997SOL     OW86882   1.003   4.195   9.557 -0.2858  0.0662 -0.5777
27997SOL    HW186883   1.085   4.158   9.590 -0.2185  1.3267  0.8105
27997SOL    HW286884   0.939   4.125   9.568  1.1975 -2.5474 -5.5555
27998SOL     OW86885   9.208   9.351   9.479  0.1755  0.1391  0.5014
27998SOL    HW186886   9.241   9.332   9.567  2.5237  1.4347 -0.0288
27998SOL    HW286887   9.279   9.396   9.435 -0.1577 -2.1248 -2.7713
27999SOL     OW86888   4.261   3.901   8.193  1.1418 -0.2530  0.1383
27999SOL    HW186889   4.334   3.927   8.250  0.4850  1.9428  0.0931
27999SOL    HW286890   4.239   3.813   8.221  1.7050  0.2613  2.4254
28000SOL     OW86891   3.753   2.203   2.410  0.3097 -0.3978  0.2992
28000SOL    HW186892   3.751   2.292   2.444 -1.8464 -0.4530  0.4626
28000SOL    HW286893   3.661   2.177   2.405  0.7993 -2.0807 -1.1788
28001SOL     OW86894   5.815   6.311   6.106 -0.3665 -0.4194 -0.1337
28001SOL    HW186895   5.879   6.360   6.157 -0.8362 -2.2108  2.3562
28001SOL    HW286896   5.866   6.270   6.036  1.1903 -1.4763  1.5563
28002SOL     OW86897   6.292   3.439   0.180 -0.2835 -0.4206 -0.0012
28002SOL    HW186898   6.222   3.466   0.239  0.1521  0.6452  0.0641
28002SOL    HW286899   6.304   3.515   0.122  0.9060 -0.5177  0.0923
28003SOL     OW86900   2.404   5.182   0.610 -0.1507 -0.6640  0.6615
28003SOL    HW186901   2.340   5.225   0.667 -0.1026 -1.1504  1.0816
28003SOL    HW286902   2.468   5.250   0.592 -0.0542 -0.5644  1.3616
28004SOL     OW86903   6.420   1.828   6.310 -0.2011 -0.1075 -0.2259
28004SOL    HW186904   6.373   1.804   6.231 -1.5321  0.0664  0.4974
28004SOL    HW286905   6.442   1.921   6.297 -2.2219  0.5186  0.4360
28005SOL     OW86906   7.425   3.030   3.015  0.3584  0.6086  0.1626
28005SOL    HW186907   7.344   2.980   3.010  0.4399  0.4821  0.0941
28005SOL    HW286908   7.402   3.109   3.063  0.1446  0.6723 -0.0417
28006SOL     OW86909   1.349   8.923   0.581  0.8044 -0.1102 -0.2811
28006SOL    HW186910   1.434   8.966   0.593 -0.6681  2.5262  1.8617
28006SOL    HW286911   1.314   8.963   0.501  1.0058 -0.1571 -0.3939
28007SOL     OW86912   6.802   3.876   6.581 -0.0704 -0.5753  0.4772
28007SOL    HW186913   6.881   3.842   6.540  0.6015  0.1148  1.1840
28007SOL    HW286914   6.802   3.969   6.561  0.1663 -0.2543  1.8265
28008SOL     OW86915   1.700   1.706   2.968 -0.4309 -0.3057 -0.3756
28008SOL    HW186916   1.692   1.795   2.934  0.1223 -0.3739 -0.6971
28008SOL    HW286917   1.765   1.713   3.038 -2.2993  0.0335  1.4452
28009SOL     OW86918   8.156   9.629   8.880 -0.4747  0.3147 -0.0142
28009SOL    HW186919   8.096   9.642   8.806 -1.5464  0.7063  0.8905
28009SOL    HW286920   8.104   9.581   8.944  0.5323 -0.2615  0.3866
28010SOL     OW86921   6.785   8.063   3.615 -1.2095  0.0336  0.0219
28010SOL    HW186922   6.842   8.139   3.599 -1.6508  0.3523 -0.0429
28010SOL    HW286923   6.697   8.100   3.620 -1.4364 -0.4885 -0.0929
28011SOL     OW86924   2.185   1.487   0.992  0.2128  0.3307  0.0533
28011SOL    HW186925   2.108   1.540   0.970 -0.8538 -0.2842  2.0345
28011SOL    HW286926   2.206   1.512   1.082  0.9568 -1.1124  0.3092
28012SOL     OW86927   3.813   8.387   2.076 -0.1510 -0.2954  0.1999
28012SOL    HW186928   3.751   8.450   2.039  0.7638  1.0165  0.8157
28012SOL    HW286929   3.896   8.435   2.081  1.1198 -2.1893 -1.1923
28013SOL     OW86930   7.574   8.154   1.340 -0.2910 -0.2634  0.2175
28013SOL    HW186931   7.624   8.141   1.421 -0.5332  2.0438  0.7906
28013SOL    HW286932   7.627   8.216   1.289 -1.6323  0.7419  0.0032
28014SOL     OW86933   9.585   0.570   0.675 -0.0338  0.0405  0.3392
28014SOL    HW186934   9.605   0.544   0.765 -0.9584 -0.6851  0.3475
28014SOL    HW286935   9.619   0.498   0.622  1.5592  0.9998 -0.0035
28015SOL     OW86936   1.771   3.481   3.785 -0.3744 -0.0922 -0.2764
28015SOL    HW186937   1.836   3.425   3.827  0.6493  1.7884  0.8130
28015SOL    HW286938   1.822   3.556   3.753 -1.8199  0.7815 -0.6095
28016SOL     OW86939   3.790   6.740   3.908 -0.4521 -0.1964 -0.0663
28016SOL    HW186940   3.840   6.822   3.901 -2.0477  0.7603 -0.8985
28016SOL    HW286941   3.810   6.693   3.827 -0.2631 -0.2127 -0.0121
28017SOL     OW86942   4.271   2.511   1.533  0.6957  0.5145 -0.7395
28017SOL    HW186943   4.305   2.583   1.480  0.7705  1.1772  0.1852
28017SOL    HW286944   4.192   2.546   1.574  0.8619  0.1540 -0.0927
28018SOL     OW86945   8.822   1.586   2.853  0.1605  0.4094  0.0539
28018SOL    HW186946   8.795   1.496   2.836  1.4286 -0.0038  0.0928
28018SOL    HW286947   8.834   1.590   2.948  0.0447  0.6375  0.0600
28019SOL     OW86948   5.482   8.396   6.047 -0.4580 -0.6062  0.1843
28019SOL    HW186949   5.543   8.400   6.121 -1.2468  1.8252  0.8068
28019SOL    HW286950   5.539   8.389   5.970  0.4926 -0.8037  0.8776
28020SOL     OW86951   7.625   8.844   4.963  0.8177  0.9170 -0.1306
28020SOL    HW186952   7.674   8.762   4.965  0.4143  0.6724 -0.1006
28020SOL    HW286953   7.542   8.821   4.922  0.1477  0.9935  1.1427
28021SOL     OW86954   3.681   4.793   2.907  0.4819  0.0942  0.0968
28021SOL    HW186955   3.613   4.826   2.849  0.3302  1.6573  1.0844
28021SOL    HW286956   3.635   4.772   2.988  1.0727  0.7341  0.6168
28022SOL     OW86957   1.699   6.666   1.373 -0.7279  0.0386  0.2338
28022SOL    HW186958   1.776   6.723   1.377  0.5565 -1.3624 -2.0856
28022SOL    HW286959   1.731   6.580   1.400 -0.6430 -1.2027 -3.2882
28023SOL     OW86960   6.726   7.727   1.820  0.0214  0.1442  0.5234
28023SOL    HW186961   6.710   7.690   1.733 -1.6107 -0.6415  1.1051
28023SOL    HW286962   6.794   7.793   1.806  1.0793 -1.1795 -1.0251
28024SOL     OW86963   6.245   3.493   2.573 -0.7880  0.0150 -0.2656
28024SOL    HW186964   6.297   3.511   2.651  1.9897 -0.5272 -1.8408
28024SOL    HW286965   6.259   3.570   2.517 -0.4829 -0.7485 -1.2784
28025SOL     OW86966   8.627   4.690   8.015 -0.5055  0.6133  0.0955
28025SOL    HW186967   8.619   4.635   8.092  0.3308  1.0380  0.5042
28025SOL    HW286968   8.598   4.776   8.044  0.1156  0.8501  0.0427
28026SOL     OW86969   4.371   8.683   2.324  0.3802  0.0362  0.3968
28026SOL    HW186970   4.363   8.591   2.351  1.9482 -0.4109 -0.5347
28026SOL    HW286971   4.465   8.698   2.318  0.1740  1.9571  1.2510
28027SOL     OW86972   0.322   6.315   0.829  0.0770 -0.3374 -0.2835
28027SOL    HW186973   0.413   6.319   0.799  0.1571  1.4051  0.1066
28027SOL    HW286974   0.299   6.222   0.821  2.4208 -1.1384  1.1987
28028SOL     OW86975   5.618   3.357   3.020 -0.1483 -0.0571 -0.3252
28028SOL    HW186976   5.616   3.350   2.924 -1.1253  2.0110 -0.5059
28028SOL    HW286977   5.528   3.342   3.047 -0.2779  1.3363  0.0761
28029SOL     OW86978   3.105   3.467   7.289 -0.3146  0.3149 -0.0511
28029SOL    HW186979   3.129   3.554   7.257  0.5998 -0.8239 -2.7257
28029SOL    HW286980   3.188   3.418   7.290 -0.7990 -0.5601  1.4883
28030SOL     OW86981   8.067   0.141   9.117  0.3480  0.4722  0.4209
28030SOL    HW186982   8.147   0.167   9.071  0.8376  2.1613  2.0598
28030SOL    HW286983   7.996   0.181   9.067  0.4577 -1.1758 -1.1414
28031SOL     OW86984   0.667   3.175   2.083  0.0999 -0.2280  0.3212
28031SOL    HW186985   0.701   3.128   2.160 -0.8265 -1.5986 -0.0765
28031SOL    HW286986   0.641   3.106   2.022 -1.7242  0.7748 -0.1179
28032SOL     OW86987   8.451   3.805   8.950 -0.6027 -0.4805  0.2879
28032SOL    HW186988   8.439   3.862   9.026 -0.8851  1.6323 -1.2712
28032SOL    HW286989   8.540   3.821   8.922 -0.8266 -0.4892 -0.4330
28033SOL     OW86990   6.943   7.894   1.807 -0.6725  0.0372  0.2651
28033SOL    HW186991   6.892   7.974   1.816  0.3000  0.5577  1.2451
28033SOL    HW286992   6.952   7.882   1.713 -2.7565 -0.1838  0.0405
28034SOL     OW86993   9.151   6.274   3.875 -0.6850 -0.7595  0.2930
28034SOL    HW186994   9.164   6.349   3.934 -1.8308  0.2778 -0.7065
28034SOL    HW286995   9.204   6.295   3.798 -0.0764 -1.5712  0.4769
28035SOL     OW86996   0.763   1.909   1.771 -0.0619  0.6593 -0.5496
28035SOL    HW186997   0.739   1.933   1.861 -2.2973 -1.0475 -0.5841
28035SOL    HW286998   0.824   1.835   1.782  1.6486  2.0271 -0.4801
28036SOL     OW86999   2.525   0.121   2.594  0.2796 -0.3408  0.2984
28036SOL    HW187000   2.596   0.064   2.563 -0.4676 -0.5765 -1.0369
28036SOL    HW287001   2.565   0.172   2.664  1.2251 -1.8609  0.9322
28037SOL     OW87002   8.243   3.839   1.153  0.5416 -0.2233  0.7392
28037SOL    HW187003   8.295   3.760   1.162  1.1060  0.3042  2.6280
28037SOL    HW287004   8.219   3.862   1.243 -1.9137  0.2586  0.0442
28038SOL     OW87005   0.342   3.290   9.465  0.4084 -0.5127  0.1722
28038SOL    HW187006   0.330   3.380   9.434  0.7119 -1.2875 -2.4425
28038SOL    HW287007   0.389   3.300   9.548 -0.8578  1.7664  0.7025
28039SOL     OW87008   6.817   0.089   7.418 -0.0445 -0.2771  0.0726
28039SOL    HW187009   6.782   0.117   7.334 -1.0062 -0.8966  0.2580
28039SOL    HW287010   6.792   0.158   7.479  1.7873  0.8521 -0.3430
28040SOL     OW87011   0.457   6.432   1.997 -0.0045 -0.6490 -0.5753
28040SOL    HW187012   0.437   6.518   1.959  0.2126  0.4468  1.6069
28040SOL    HW287013   0.380   6.379   1.980 -0.9471  0.5967 -0.3343
28041SOL     OW87014   1.800   1.443   6.184 -0.5935 -0.1345 -0.0490
28041SOL    HW187015   1.776   1.535   6.192 -0.6431  0.0375 -1.8487
28041SOL    HW287016   1.895   1.442   6.190 -0.6005  0.0089  0.1061
28042SOL     OW87017   3.349   2.576   1.685  1.0883 -0.3331 -0.1298
28042SOL    HW187018   3.355   2.580   1.781 -0.1879 -0.9039 -0.0042
28042SOL    HW287019   3.322   2.665   1.659  0.0690 -0.5367  0.1790
28043SOL     OW87020   1.133   8.045   8.605 -0.0290  0.6564 -0.3385
28043SOL    HW187021   1.180   8.124   8.576  1.9359 -0.4349 -0.2729
28043SOL    HW287022   1.103   8.067   8.693  2.1929  0.7057  0.4646
28044SOL     OW87023   2.083   8.992   0.980  0.3206  0.5541 -0.0746
28044SOL    HW187024   2.161   8.994   0.925  0.3869 -1.4811 -0.1513
28044SOL    HW287025   2.115   8.964   1.066 -0.1970  0.6187  0.1433
28045SOL     OW87026   0.022   7.625   3.093  0.1869 -0.4036  0.3469
28045SOL    HW187027   0.019   7.712   3.055 -1.4696  0.1164  1.5588
28045SOL    HW287028   0.009   7.566   3.019  1.5193  0.3224 -0.5156
28046SOL     OW87029   5.908   3.337   2.005  0.1800  0.3841 -0.0798
28046SOL    HW187030   5.817   3.317   2.026 -0.1408  1.1266 -0.6831
28046SOL    HW287031   5.959   3.267   2.046 -0.6360  0.1293  0.5198
28047SOL     OW87032   4.501   5.450   5.989  0.4150  0.1337  0.0947
28047SOL    HW187033   4.569   5.422   5.928  0.7741  1.9851 -0.4444
28047SOL    HW287034   4.461   5.369   6.020  1.7219 -0.9381 -0.8870
28048SOL     OW87035   4.835   4.524   3.702 -0.1302  0.6360  0.2338
28048SOL    HW187036   4.860   4.490   3.787  0.6701  0.2111 -0.1587
28048SOL    HW287037   4.786   4.453   3.660 -0.0464  0.6374  0.1305
28049SOL     OW87038   3.356   5.010   5.438  0.2008 -0.3250 -0.0717
28049SOL    HW187039   3.439   5.024   5.484  1.1145 -1.0103 -1.4353
28049SOL    HW287040   3.361   4.919   5.406 -1.3291 -0.5685  0.2987
28050SOL     OW87041   2.954   4.382   4.195  0.1120 -0.2567 -0.2712
28050SOL    HW187042   3.015   4.441   4.239 -0.1134 -0.2355  0.0186
28050SOL    HW287043   3.010   4.320   4.147  0.3618  1.2989 -2.1094
28051SOL     OW87044   4.902   4.888   2.235  0.2842  0.3440  0.2972
28051SOL    HW187045   4.824   4.888   2.180  0.2356  0.6112  0.3663
28051SOL    HW287046   4.906   4.976   2.272  0.5723  0.3069  0.3595
28052SOL     OW87047   6.093   2.104   9.161 -0.0564 -0.4145 -0.0194
28052SOL    HW187048   6.110   2.053   9.082 -0.2617  0.0047 -0.3449
28052SOL    HW287049   5.997   2.106   9.168 -0.0570  0.0315 -0.0903
28053SOL     OW87050   1.883   0.750   7.435  0.1819  0.0765  0.3250
28053SOL    HW187051   1.936   0.709   7.367  1.7662  4.8291 -1.7415
28053SOL    HW287052   1.943   0.759   7.510  1.1023  1.7268 -0.5461
28054SOL     OW87053   0.732   2.586   0.589 -0.3151  0.1072 -0.2153
28054SOL    HW187054   0.808   2.540   0.624  0.3292  1.5128  0.2904
28054SOL    HW287055   0.768   2.655   0.533 -1.2577 -0.0977 -1.1107
28055SOL     OW87056   0.939   2.600   5.785 -0.0600  0.2736 -0.3462
28055SOL    HW187057   0.897   2.575   5.703 -0.1766  0.9449 -0.4937
28055SOL    HW287058   1.033   2.586   5.770 -0.2105 -1.3970  0.0413
28056SOL     OW87059   3.573   0.546   0.218  0.2820 -0.0998 -0.2197
28056SOL    HW187060   3.540   0.460   0.191  0.9011 -0.5833  0.5136
28056SOL    HW287061   3.542   0.557   0.307  0.7239  0.1618 -0.0947
28057SOL     OW87062   0.279   8.213   5.519 -0.7343  0.0556 -0.0135
28057SOL    HW187063   0.203   8.198   5.462 -1.1265  2.1828 -0.1458
28057SOL    HW287064   0.279   8.139   5.580 -1.6383 -1.0918 -1.3494
28058SOL     OW87065   6.890   3.709   4.687 -0.3331 -0.4900  0.0152
28058SOL    HW187066   6.885   3.662   4.603 -0.4856 -0.4756  0.0164
28058SOL    HW287067   6.890   3.801   4.663 -1.6805 -0.4589  0.0924
28059SOL     OW87068   6.492   0.844   1.380 -0.1731 -0.2194 -0.1223
28059SOL    HW187069   6.535   0.760   1.398 -0.7627 -0.6849 -0.8335
28059SOL    HW287070   6.416   0.821   1.326 -0.1152  0.8175 -0.6679
28060SOL     OW87071   7.944   6.259   4.841 -0.3562  0.3562  0.0854
28060SOL    HW187072   7.947   6.175   4.887 -1.4382  0.3754  0.2174
28060SOL    HW287073   7.978   6.322   4.905 -1.3105  0.2917  0.6902
28061SOL     OW87074   7.845   4.448   3.887 -0.3337  0.0773  0.3233
28061SOL    HW187075   7.936   4.418   3.878 -0.4687 -0.0920 -0.5782
28061SOL    HW287076   7.807   4.436   3.800 -2.1451 -2.8888  1.3579
28062SOL     OW87077   6.353   3.283   2.442  0.0618  0.1758 -0.2153
28062SOL    HW187078   6.394   3.308   2.359  1.7054 -0.3745  0.3787
28062SOL    HW287079   6.330   3.366   2.484  0.0359  0.4889 -0.8429
28063SOL     OW87080   4.227   3.657   9.068 -0.1988  0.7294 -0.2922
28063SOL    HW187081   4.179   3.587   9.023  1.2966  1.2454 -2.8635
28063SOL    HW287082   4.172   3.678   9.144 -2.2460 -1.0674 -1.1640
28064SOL     OW87083   1.327   7.854   0.037 -0.2678 -0.9121  0.2136
28064SOL    HW187084   1.235   7.871   0.018 -0.4320 -2.8928 -1.0785
28064SOL    HW287085   1.326   7.810   0.122 -0.4688 -0.7153  0.3164
28065SOL     OW87086   3.862   2.013   3.363 -0.5218 -0.3657 -0.0925
28065SOL    HW187087   3.860   1.918   3.368 -1.0522 -0.3751 -0.4471
28065SOL    HW287088   3.953   2.036   3.381 -0.2241 -0.9809 -0.7838
28066SOL     OW87089   6.450   1.677   8.366 -0.2840  1.0945  0.4147
28066SOL    HW187090   6.525   1.637   8.321 -2.0802 -2.3422  0.1070
28066SOL    HW287091   6.464   1.658   8.458 -0.5788  0.7107  0.3862
28067SOL     OW87092   6.712   8.798   9.567  0.5147 -0.1670  0.2576
28067SOL    HW187093   6.664   8.715   9.559  0.6241 -0.1132 -1.2360
28067SOL    HW287094   6.745   8.798   9.657  0.1541 -1.5489  0.4131
28068SOL     OW87095   0.896   2.058   1.470 -0.1310  0.4431  0.6221
28068SOL    HW187096   0.975   2.020   1.433 -0.3837  0.3100  0.2111
28068SOL    HW287097   0.909   2.053   1.565  0.6148  0.9975  0.5554
28069SOL     OW87098   9.427   6.077   3.782  0.3244 -0.3441  0.0900
28069SOL    HW187099   9.403   6.142   3.716  2.3668  0.3025 -0.1018
28069SOL    HW287100   9.409   5.993   3.742 -2.9917  0.0092  0.5810
28070SOL     OW87101   7.651   4.629   1.642  0.4712 -0.2001 -0.1278
28070SOL    HW187102   7.657   4.549   1.695 -0.9265  0.2168  0.7064
28070SOL    HW287103   7.724   4.683   1.672  2.5437 -1.7993 -1.9341
28071SOL     OW87104   6.759   4.783   1.276 -0.6384  0.1755 -0.1318
28071SOL    HW187105   6.668   4.798   1.299  0.1683  0.5442  3.3451
28071SOL    HW287106   6.759   4.697   1.234 -2.4348 -0.5155  1.1431
28072SOL     OW87107   2.023   1.351   8.304 -0.2367 -0.3275  0.2383
28072SOL    HW187108   2.010   1.415   8.234  0.5552 -1.4631 -0.9969
28072SOL    HW287109   1.948   1.363   8.361  0.9674  3.2367  1.3313
28073SOL     OW87110   5.779   3.978   3.607  0.7181  0.5361 -0.7217
28073SOL    HW187111   5.850   4.041   3.592  1.3482 -0.1364 -0.6116
28073SOL    HW287112   5.793   3.910   3.541  0.3294  0.2684 -0.5314
28074SOL     OW87113   6.020   6.770   3.254 -0.1402  0.0439  0.5364
28074SOL    HW187114   6.048   6.739   3.168 -0.9030 -1.1024  0.6794
28074SOL    HW287115   6.074   6.847   3.270  0.2720  0.0697 -0.8074
28075SOL     OW87116   7.347   3.960   2.364 -0.3079  0.8156 -0.1913
28075SOL    HW187117   7.269   4.015   2.377 -1.9047 -1.4643  0.4931
28075SOL    HW287118   7.312   3.875   2.340  2.0423 -0.2112 -0.2421
28076SOL     OW87119   5.429   3.574   7.165  0.6858 -0.3346 -0.2077
28076SOL    HW187120   5.368   3.647   7.156  0.5459 -0.4732 -0.3758
28076SOL    HW287121   5.381   3.498   7.133  0.7357 -0.5497  0.2116
28077SOL     OW87122   6.602   0.221   3.826  0.5423  1.1462 -0.2121
28077SOL    HW187123   6.601   0.250   3.735 -0.9931 -0.4044 -0.7444
28077SOL    HW287124   6.539   0.277   3.871 -0.3156  0.5333 -0.6165
28078SOL     OW87125   7.565   5.037   1.641 -0.4276 -0.0639 -0.0935
28078SOL    HW187126   7.607   5.106   1.693  0.7665  0.4677 -1.6860
28078SOL    HW287127   7.559   5.073   1.553 -0.0529 -1.8664 -0.9096
28079SOL     OW87128   4.464   6.211   0.705  0.3677 -0.6080  0.3432
28079SOL    HW187129   4.371   6.234   0.711 -0.1039 -1.8617 -1.3903
28079SOL    HW287130   4.509   6.288   0.738 -1.2590  0.8000 -0.5363
28080SOL     OW87131   9.635   2.154   9.337 -0.4561  0.1084  0.7374
28080SOL    HW187132   9.675   2.067   9.341  0.3261  0.2725 -1.7020
28080SOL    HW287133   9.541   2.138   9.329 -0.3686 -0.4925  0.9100
28081SOL     OW87134   2.828   1.716   3.196 -0.2071 -0.9752  0.5737
28081SOL    HW187135   2.889   1.642   3.200 -1.1849 -1.8417  0.0414
28081SOL    HW287136   2.744   1.676   3.175 -0.4302  0.4529 -1.5574
28082SOL     OW87137   3.095   7.716   2.705  0.3339  0.2463  0.0737
28082SOL    HW187138   3.176   7.732   2.752 -0.8067 -0.3700  2.3882
28082SOL    HW287139   3.030   7.771   2.748 -0.9603 -1.0311 -0.1528
28083SOL     OW87140   2.367   2.995   8.255 -0.4661  0.6003  0.3844
28083SOL    HW187141   2.442   2.952   8.297  0.8183  1.5413 -0.8327
28083SOL    HW287142   2.302   2.926   8.246  0.5274 -0.4380  0.8407
28084SOL     OW87143   6.148   4.152   1.333  0.1103 -0.0155  0.0358
28084SOL    HW187144   6.057   4.153   1.303  0.6709  0.7781 -1.8124
28084SOL    HW287145   6.172   4.244   1.340  1.9180 -0.0194 -3.5796
28085SOL     OW87146   8.222   1.254   6.748 -0.1136 -0.2198 -0.1118
28085SOL    HW187147   8.219   1.333   6.803 -2.2465  0.2892 -0.8618
28085SOL    HW287148   8.275   1.280   6.673  0.2161  0.0856  0.2181
28086SOL     OW87149   7.115   4.784   4.604  0.3565  0.8621  0.3506
28086SOL    HW187150   7.178   4.767   4.534 -0.4562  0.2185 -0.2425
28086SOL    HW287151   7.037   4.815   4.559 -0.4861 -0.4065  0.8879
28087SOL     OW87152   4.050   1.926   8.615 -0.4420 -0.0358 -0.3442
28087SOL    HW187153   3.984   1.865   8.645  0.8230 -0.7321  1.1565
28087SOL    HW287154   4.134   1.885   8.637  0.4989  1.0856 -1.6132
28088SOL     OW87155   4.475   9.362   8.183 -0.4107  0.0104  0.1789
28088SOL    HW187156   4.501   9.271   8.201  0.1892  0.0949 -0.2523
28088SOL    HW287157   4.549   9.414   8.215 -1.3227  0.4425  1.6715
28089SOL     OW87158   4.313   6.754   3.237  0.3007 -0.1815  0.4877
28089SOL    HW187159   4.281   6.680   3.185  0.1799  1.2748 -1.6200
28089SOL    HW287160   4.235   6.788   3.280 -0.1955  0.4515 -0.8542
28090SOL     OW87161   8.674   4.263   6.833 -0.7911 -0.1858 -0.9253
28090SOL    HW187162   8.745   4.267   6.769  0.7070 -1.2871  0.6053
28090SOL    HW287163   8.659   4.355   6.858  0.4957  0.0253 -0.8560
28091SOL     OW87164   6.450   0.800   5.655  0.1453  0.3429 -0.2739
28091SOL    HW187165   6.403   0.718   5.667 -0.4626  0.5535 -1.1336
28091SOL    HW287166   6.444   0.819   5.562  2.1770  0.2519 -0.4752
28092SOL     OW87167   5.193   0.637   7.390  0.5757  0.0548 -0.0440
28092SOL    HW187168   5.277   0.619   7.432 -0.3186 -0.4064  1.6432
28092SOL    HW287169   5.193   0.583   7.310  0.8199 -2.0478  1.3085
28093SOL     OW87170   7.020   6.066   7.761  0.2567 -0.1429  0.6224
28093SOL    HW187171   6.925   6.063   7.778  0.0013  3.0100  0.3080
28093SOL    HW287172   7.057   6.100   7.842  1.0796 -0.8009  0.5313
28094SOL     OW87173   4.974   2.215   2.615 -0.1562 -0.0248 -0.0607
28094SOL    HW187174   5.018   2.130   2.611 -0.9953 -0.5162  0.7197
28094SOL    HW287175   5.044   2.279   2.607  0.7848 -0.7728  1.7124
28095SOL     OW87176   8.429   6.492   4.191 -0.3219  0.1722  0.2366
28095SOL    HW187177   8.497   6.521   4.252 -0.0088  1.7301 -0.7636
28095SOL    HW287178   8.470   6.500   4.105 -1.0650 -1.0357 -0.2509
28096SOL     OW87179   7.201   6.450   5.654 -0.4704 -0.2825 -0.8581
28096SOL    HW187180   7.114   6.427   5.687  0.0613 -1.3340 -0.1250
28096SOL    HW287181   7.219   6.386   5.586 -0.1320 -0.2702 -0.7819
28097SOL     OW87182   8.591   8.462   8.177  0.2950  0.1132  0.5395
28097SOL    HW187183   8.592   8.405   8.254  0.0645  1.4518  1.5779
28097SOL    HW287184   8.681   8.462   8.145 -0.2053 -3.1645 -1.3509
28098SOL     OW87185   3.023   5.354   1.407  0.0272  0.0610 -0.4093
28098SOL    HW187186   3.119   5.355   1.402  0.0530 -1.0592 -0.3288
28098SOL    HW287187   3.003   5.283   1.468 -0.8700 -0.3862 -1.1936
28099SOL     OW87188   2.720   1.377   2.760 -0.3033  0.4900  0.1870
28099SOL    HW187189   2.632   1.348   2.784  0.7794 -0.4464  3.6053
28099SOL    HW287190   2.713   1.472   2.754 -1.4034  0.4992  1.2100
28100SOL     OW87191   7.064   2.984   4.614 -0.1066 -0.0500  0.3915
28100SOL    HW187192   7.007   3.057   4.639 -0.6351 -0.8142  1.4692
28100SOL    HW287193   7.153   3.017   4.628 -0.0759  1.7941 -2.9566
28101SOL     OW87194   6.444   1.952   1.478  0.3029  0.0321  0.2817
28101SOL    HW187195   6.402   1.904   1.407  3.9170 -0.3282 -1.8923
28101SOL    HW287196   6.449   1.890   1.551  3.1440 -2.5038 -1.8165
28102SOL     OW87197   1.716   0.252   5.640  0.0451 -0.1228 -0.3314
28102SOL    HW187198   1.790   0.202   5.606  0.8337 -1.3166  2.7670
28102SOL    HW287199   1.647   0.241   5.575  1.6027 -1.6475 -1.8106
28103SOL     OW87200   3.313   2.282   2.138 -0.4520  0.2886  0.0755
28103SOL    HW187201   3.408   2.286   2.123 -0.0535 -2.0423  1.4819
28103SOL    HW287202   3.275   2.314   2.056  1.5823 -1.4713 -1.7213
28104SOL     OW87203   6.614   0.637   3.685 -0.0878 -0.4323 -0.1009
28104SOL    HW187204   6.578   0.725   3.674  1.1047  0.2053  0.9020
28104SOL    HW287205   6.679   0.629   3.616 -0.9831 -0.9853 -0.9096
28105SOL     OW87206   6.459   0.551   7.957 -0.1498  0.2763  0.2781
28105SOL    HW187207   6.450   0.618   8.024  1.1744  0.1300  0.6441
28105SOL    HW287208   6.414   0.474   7.992  1.1638 -0.0325  1.3667
28106SOL     OW87209   0.760   7.479   1.281  0.0204 -0.0310 -0.0317
28106SOL    HW187210   0.817   7.422   1.230 -0.1999 -0.5277  0.2678
28106SOL    HW287211   0.781   7.458   1.372 -0.7340 -0.3200  0.0805
28107SOL     OW87212   7.382   1.931   0.163 -0.3717  0.4463  0.0067
28107SOL    HW187213   7.398   1.973   0.247  0.6844  0.1472 -0.0311
28107SOL    HW287214   7.288   1.942   0.148 -0.9078 -0.8948  1.9672
28108SOL     OW87215   8.627   5.039   5.499 -0.4619  0.3951 -0.0625
28108SOL    HW187216   8.690   5.111   5.493 -1.9248  1.7345 -0.1898
28108SOL    HW287217   8.662   4.982   5.568  0.9610  0.9939 -0.2623
28109SOL     OW87218   3.564   1.116   7.263  0.1625 -0.1533  0.1329
28109SOL    HW187219   3.557   1.167   7.343 -0.5566 -0.2990  0.1656
28109SOL    HW287220   3.489   1.057   7.264  0.7542 -0.9402 -0.1024
28110SOL     OW87221   2.107   0.214   2.304 -0.1101  0.1825  0.8252
28110SOL    HW187222   2.172   0.146   2.284 -1.9787 -1.1122 -1.4689
28110SOL    HW287223   2.106   0.269   2.225 -0.5368  1.2402  1.5583
28111SOL     OW87224   0.865   5.888   5.690 -0.5970  0.1491  0.3017
28111SOL    HW187225   0.840   5.837   5.614  0.4194 -1.6060  1.0906
28111SOL    HW287226   0.827   5.840   5.764 -1.7569  1.9288  0.9425
28112SOL     OW87227   7.974   0.955   7.140 -0.3580  0.0053  0.1137
28112SOL    HW187228   7.939   1.012   7.070 -0.7191 -0.6774 -0.2776
28112SOL    HW287229   7.940   0.994   7.221  1.0833  1.5373  0.0383
28113SOL     OW87230   4.411   0.194   4.539  0.7503  0.3342 -0.6915
28113SOL    HW187231   4.409   0.184   4.444  0.3871  0.5714 -0.7097
28113SOL    HW287232   4.480   0.133   4.568  1.3226  0.7451 -1.1593
28114SOL     OW87233   6.187   4.176   0.082 -0.0809  0.0257  0.1919
28114SOL    HW187234   6.220   4.088   0.065  0.5476  0.4060 -0.5632
28114SOL    HW287235   6.140   4.167   0.166 -0.9462 -1.2628 -0.3908
28115SOL     OW87236   1.279   4.233   4.607  0.0398 -0.6959  0.6608
28115SOL    HW187237   1.277   4.169   4.678  0.0755  0.0413  1.3431
28115SOL    HW287238   1.241   4.312   4.645  0.8899 -0.0120  0.1415
28116SOL     OW87239   6.419   1.971   7.210 -0.1591  0.1234  0.6458
28116SOL    HW187240   6.426   2.065   7.226 -1.2968  0.4012 -0.3467
28116SOL    HW287241   6.339   1.945   7.256 -0.2653 -0.2087  0.2721
28117SOL     OW87242   4.854   1.960   1.453 -0.1524  0.4168 -0.4373
28117SOL    HW187243   4.883   1.872   1.475  0.9143  0.9862  0.5118
28117SOL    HW287244   4.816   1.994   1.534 -0.1582  0.9960 -0.6775
28118SOL     OW87245   4.009   5.185   3.589 -0.7437 -0.1000 -0.3208
28118SOL    HW187246   3.972   5.103   3.557 -2.2601  0.6919 -0.6697
28118SOL    HW287247   3.944   5.252   3.568 -0.4814  0.9157  1.7693
28119SOL     OW87248   2.661   0.406   9.074 -0.2642 -0.0705  0.2552
28119SOL    HW187249   2.751   0.374   9.072 -0.0235  0.5820  0.4476
28119SOL    HW287250   2.610   0.335   9.036  0.6901  0.7291 -2.8253
28120SOL     OW87251   9.595   4.602   8.505 -0.5679 -0.2530  0.7434
28120SOL    HW187252   9.606   4.689   8.467  0.6112  0.0118  1.6371
28120SOL    HW287253   9.663   4.548   8.464  0.2457 -0.1433  1.8861
28121SOL     OW87254   5.239   5.292   7.795 -0.0669  0.6031 -0.6195
28121SOL    HW187255   5.324   5.297   7.752 -0.4805  0.7382 -1.4416
28121SOL    HW287256   5.200   5.211   7.763 -0.9831  1.4240 -1.6727
28122SOL     OW87257   2.597   2.635   4.531  0.3430  0.4913  0.0252
28122SOL    HW187258   2.518   2.605   4.487 -0.3669  2.3952 -0.0759
28122SOL    HW287259   2.654   2.557   4.534 -0.5342 -0.3005 -2.0806
28123SOL     OW87260   3.100   4.524   8.323  0.0025 -0.5671  0.1616
28123SOL    HW187261   3.190   4.537   8.295 -0.3532  0.6508 -0.4547
28123SOL    HW287262   3.103   4.445   8.377  1.4747 -0.3944  0.3613
28124SOL     OW87263   8.413   7.346   5.459 -0.1701  0.5927  0.4037
28124SOL    HW187264   8.378   7.276   5.513 -1.3159 -1.0759 -2.2923
28124SOL    HW287265   8.501   7.317   5.436 -0.7893 -0.2566 -1.0439
28125SOL     OW87266   9.075   0.687   5.271  0.1100 -0.7315  0.6897
28125SOL    HW187267   9.114   0.683   5.183  0.0705  0.1104  0.6232
28125SOL    HW287268   9.013   0.614   5.273  0.5310 -1.1112  0.2260
28126SOL     OW87269   7.160   3.696   8.187 -0.0204 -0.5621  0.0620
28126SOL    HW187270   7.136   3.618   8.138  0.3670 -0.0819 -0.9055
28126SOL    HW287271   7.078   3.741   8.203 -0.0034  0.0551 -1.4913
28127SOL     OW87272   0.097   3.511   5.367  0.4242  0.3862  0.0842
28127SOL    HW187273   0.156   3.526   5.440  2.6822 -1.0076 -1.3218
28127SOL    HW287274   0.147   3.537   5.290 -1.0350 -0.2690 -1.1466
28128SOL     OW87275   8.618   5.252   6.119 -0.0357  0.0279  0.2566
28128SOL    HW187276   8.636   5.233   6.211  2.9515  0.1009 -0.2195
28128SOL    HW287277   8.680   5.321   6.096  1.4363 -2.0001 -2.5010
28129SOL     OW87278   1.072   1.912   2.896  0.2518  0.1626 -0.1815
28129SOL    HW187279   1.055   1.997   2.937  0.9621 -0.8249  2.3881
28129SOL    HW287280   0.986   1.873   2.883 -0.0461  1.0002 -0.8236
28130SOL     OW87281   2.160   6.616   2.301 -0.3278  0.7421  0.2323
28130SOL    HW187282   2.079   6.566   2.299 -0.9989  1.8202 -1.2247
28130SOL    HW287283   2.225   6.554   2.334 -1.2151 -0.9761 -1.0684
28131SOL     OW87284   3.143   3.785   5.861  0.0651 -0.6343 -0.5775
28131SOL    HW187285   3.208   3.843   5.901  0.5263 -0.5585 -1.4274
28131SOL    HW287286   3.097   3.747   5.936  0.2664  0.2360  0.0112
28132SOL     OW87287   8.336   5.635   1.659 -0.0789  0.4931  0.0573
28132SOL    HW187288   8.284   5.562   1.625 -2.8505  1.6058  1.5521
28132SOL    HW287289   8.335   5.701   1.590  1.8130 -0.5103 -1.0067
28133SOL     OW87290   7.882   1.012   1.289  0.3391 -1.0145  0.0279
28133SOL    HW187291   7.923   0.950   1.229  0.0039 -0.4931 -0.7508
28133SOL    HW287292   7.949   1.078   1.306  1.1834 -2.3123  1.9791
28134SOL     OW87293   6.611   1.728   1.659  0.4697 -0.2150  0.3372
28134SOL    HW187294   6.551   1.786   1.705 -0.7415 -0.6736 -0.5923
28134SOL    HW287295   6.640   1.665   1.725 -2.4756 -1.8643  0.2424
28135SOL     OW87296   1.056   8.753   1.600  0.0247 -0.3405  0.1670
28135SOL    HW187297   1.124   8.707   1.649 -0.8053 -1.1941  0.5595
28135SOL    HW287298   0.975   8.731   1.646 -0.6928 -0.5602 -1.1459
28136SOL     OW87299   1.947   6.447   2.367 -0.1039  0.9671  0.5876
28136SOL    HW187300   1.966   6.353   2.361  0.5457  1.1681 -1.3517
28136SOL    HW287301   1.927   6.462   2.460  1.0518 -0.8461  1.1880
28137SOL     OW87302   6.708   3.367   4.165 -0.2458  0.2268 -0.6790
28137SOL    HW187303   6.727   3.425   4.091  1.2559  0.1078 -0.4023
28137SOL    HW287304   6.793   3.347   4.202 -0.8984 -0.7075  0.3471
28138SOL     OW87305   7.303   8.302   8.718 -0.4585 -0.2543 -0.0110
28138SOL    HW187306   7.226   8.265   8.675 -0.1896  0.8938 -1.5652
28138SOL    HW287307   7.342   8.360   8.653  0.5121  0.8653  1.4873
28139SOL     OW87308   7.012   5.092   5.285  0.1386  0.1680  0.3092
28139SOL    HW187309   7.060   5.037   5.347 -0.6618  1.1808  1.8775
28139SOL    HW287310   6.991   5.033   5.213 -0.3947 -1.5175  1.7667
28140SOL     OW87311   8.849   5.912   5.088  0.3468  0.1980  0.2686
28140SOL    HW187312   8.883   5.967   5.018  2.1051  1.1118  1.7689
28140SOL    HW287313   8.906   5.835   5.088  2.2792  1.4930  2.4417
28141SOL     OW87314   3.978   8.235   1.616 -0.1934 -0.3496  0.1930
28141SOL    HW187315   4.037   8.164   1.592 -0.1322 -0.1959 -0.1146
28141SOL    HW287316   3.970   8.288   1.536 -2.0172 -1.2552 -0.2854
28142SOL     OW87317   0.084   3.158   8.490 -0.4433 -0.4538 -0.1694
28142SOL    HW187318   0.173   3.125   8.493 -0.4294 -0.5317 -1.2517
28142SOL    HW287319   0.084   3.231   8.553  0.9293  0.8328 -1.5666
28143SOL     OW87320   5.197   7.363   7.668  0.2934  0.3802  0.3352
28143SOL    HW187321   5.207   7.323   7.581  0.2237 -0.2923  0.6319
28143SOL    HW287322   5.250   7.443   7.663  1.6436 -0.4742  0.1925
28144SOL     OW87323   0.151   0.051   0.407  0.2787  0.6830  0.3711
28144SOL    HW187324   0.170   0.089   0.321  1.2255  0.3131  0.4091
28144SOL    HW287325   0.057   0.035   0.406  0.2239  1.0276 -0.4572
28145SOL     OW87326   6.040   3.290   8.230  0.1541 -0.3973  0.2493
28145SOL    HW187327   6.045   3.196   8.214  1.2927 -0.2198 -0.5715
28145SOL    HW287328   6.017   3.328   8.146  0.7891  0.1392  0.3105
28146SOL     OW87329   6.492   3.426   5.076  0.4545 -0.1142 -0.1263
28146SOL    HW187330   6.565   3.428   5.137  0.0979  0.3038  0.2933
28146SOL    HW287331   6.473   3.518   5.057 -0.9515 -0.1361  0.9826
28147SOL     OW87332   8.731   6.643   5.394 -0.4797 -0.8966 -0.1871
28147SOL    HW187333   8.783   6.646   5.474 -2.4673 -2.7592  1.2934
28147SOL    HW287334   8.657   6.701   5.412  0.5915  1.2187 -2.0228
28148SOL     OW87335   8.511   4.013   1.583  0.7763  0.1741 -0.2781
28148SOL    HW187336   8.441   4.078   1.586  0.0824 -0.5183 -0.7667
28148SOL    HW287337   8.538   4.011   1.492  2.1222  1.1206  0.0789
28149SOL     OW87338   1.215   9.341   2.124  0.3792 -0.1463  0.0869
28149SOL    HW187339   1.302   9.356   2.162  0.9753 -0.0664 -1.2634
28149SOL    HW287340   1.231   9.332   2.030 -1.3110  1.9187 -0.4747
28150SOL     OW87341   4.305   2.606   5.474  0.2356  0.5566 -0.3989
28150SOL    HW187342   4.273   2.532   5.526 -0.7131  1.0776 -0.2150
28150SOL    HW287343   4.264   2.596   5.388  1.1559  0.1510 -0.8116
28151SOL     OW87344   8.482   1.373   7.687 -0.3177 -0.5636  0.2487
28151SOL    HW187345   8.547   1.414   7.744  0.6898 -1.1992 -0.4076
28151SOL    HW287346   8.525   1.294   7.654 -1.3390 -0.8752 -0.3937
28152SOL     OW87347   3.559   7.231   7.359 -0.2316  0.1240 -1.1427
28152SOL    HW187348   3.551   7.326   7.356 -1.5626  0.0387 -0.8161
28152SOL    HW287349   3.472   7.199   7.335  0.1703 -1.0120 -1.1308
28153SOL     OW87350   2.432   7.900   5.442  0.3330  0.0860  0.2261
28153SOL    HW187351   2.338   7.901   5.420  0.2359 -1.3696  0.5245
28153SOL    HW287352   2.439   7.839   5.515  1.6784 -0.7924 -0.6060
28154SOL     OW87353   4.963   9.197   1.036  0.7818 -0.1456 -0.3148
28154SOL    HW187354   4.954   9.286   1.002  0.6622 -0.5526 -1.3893
28154SOL    HW287355   4.895   9.147   0.990 -0.8216 -0.3324  2.0373
28155SOL     OW87356   9.228   4.612   4.440 -0.8359 -0.2429 -0.4007
28155SOL    HW187357   9.194   4.663   4.514  0.5392  0.5114 -0.2626
28155SOL    HW287358   9.159   4.548   4.422 -3.1895  2.3892 -1.3911
28156SOL     OW87359   2.859   9.586   7.767  0.5023 -0.6223 -0.0692
28156SOL    HW187360   2.793   9.649   7.737  0.5849 -0.2184  0.5817
28156SOL    HW287361   2.860   9.518   7.700  1.2415  0.6511 -1.4115
28157SOL     OW87362   2.337   3.511   7.772  0.4145 -0.8729 -0.2194
28157SOL    HW187363   2.373   3.596   7.797 -0.1899 -0.4399 -0.7793
28157SOL    HW287364   2.409   3.450   7.784  1.6312  0.0956 -2.1973
28158SOL     OW87365   8.592   2.822   5.138 -0.2890  0.0793 -0.3369
28158SOL    HW187366   8.568   2.906   5.178 -1.1066  0.6670 -1.9656
28158SOL    HW287367   8.662   2.844   5.078 -0.9378 -0.2789 -1.2433
28159SOL     OW87368   0.009   5.087   3.175  0.0484  0.7009 -0.4408
28159SOL    HW187369   0.007   5.161   3.236  0.7139  0.6032 -0.2849
28159SOL    HW287370   0.045   5.014   3.227 -1.4781 -0.0055 -0.3208
28160SOL     OW87371   1.745   6.709   1.061 -0.1173 -0.6556 -0.1839
28160SOL    HW187372   1.737   6.687   1.154 -2.3528 -0.2910 -0.2404
28160SOL    HW287373   1.659   6.690   1.024  0.4953 -0.0469 -2.0270
28161SOL     OW87374   6.318   8.857   6.779 -0.3331 -0.8244 -0.1462
28161SOL    HW187375   6.234   8.873   6.736 -1.5575 -1.4385  1.8420
28161SOL    HW287376   6.338   8.938   6.826 -0.0150 -0.8106 -0.3019
28162SOL     OW87377   6.915   0.029   9.057  0.1340 -0.1148 -0.5542
28162SOL    HW187378   6.915   0.111   9.107 -2.0880 -1.5270  2.0383
28162SOL    HW287379   6.922  -0.040   9.123  0.1345 -2.0703 -2.4804
28163SOL     OW87380   7.254   6.409   4.601  0.3651  0.1137 -0.4853
28163SOL    HW187381   7.174   6.364   4.574  0.6478 -1.3933  1.0543
28163SOL    HW287382   7.304   6.419   4.519 -0.1404 -1.5213 -1.0421
28164SOL     OW87383   5.138   6.156   7.430 -0.3536 -0.6123 -0.3080
28164SOL    HW187384   5.216   6.125   7.383 -0.0191 -1.1733  0.5847
28164SOL    HW287385   5.133   6.249   7.410 -0.0395 -0.7811 -1.1925
28165SOL     OW87386   9.545   9.452   5.791  0.2775  0.8570 -0.4524
28165SOL    HW187387   9.576   9.542   5.778  1.0205  0.4545 -1.6132
28165SOL    HW287388   9.624   9.401   5.809  0.1637  0.0743 -1.9721
28166SOL     OW87389   5.443   8.114   8.722  0.3073 -0.3485  0.0251
28166SOL    HW187390   5.392   8.156   8.791 -1.0173  0.9588 -1.6731
28166SOL    HW287391   5.484   8.186   8.675  0.2459 -1.1205 -1.2646
28167SOL     OW87392   5.162   8.293   7.538  0.2611  0.5380 -0.3266
28167SOL    HW187393   5.090   8.267   7.596  1.7073 -0.4562  1.1312
28167SOL    HW287394   5.140   8.255   7.453 -0.4928 -0.5363  0.3255
28168SOL     OW87395   0.278   0.264   8.320 -0.2028  0.2829  0.5775
28168SOL    HW187396   0.278   0.169   8.312 -2.4048  0.2415  0.4455
28168SOL    HW287397   0.315   0.280   8.407 -0.0056 -0.6970  0.6862
28169SOL     OW87398   6.630   3.383   7.349  0.3774 -0.3000  0.5459
28169SOL    HW187399   6.547   3.339   7.329  0.3061 -0.5059  1.2623
28169SOL    HW287400   6.627   3.464   7.298 -0.4083 -0.1605  0.7901
28170SOL     OW87401   5.707   9.496   6.020 -0.2978 -0.2032  0.2158
28170SOL    HW187402   5.738   9.427   5.963 -1.4726  0.7599 -1.7091
28170SOL    HW287403   5.785   9.549   6.039 -0.0209  0.0467 -1.4167
28171SOL     OW87404   3.536   9.294   4.202  0.2428 -0.3568  0.1397
28171SOL    HW187405   3.553   9.202   4.185  0.4050 -0.0337 -1.6010
28171SOL    HW287406   3.471   9.294   4.272 -0.1782 -1.8023 -0.2200
28172SOL     OW87407   9.557   0.620   1.042  0.2531  0.3139  0.3052
28172SOL    HW187408   9.641   0.602   1.000  0.3637  0.7582  0.3364
28172SOL    HW287409   9.579   0.646   1.131  0.0910  0.5492  0.2771
28173SOL     OW87410   1.633   8.263   0.086  0.1245  0.2671 -0.5366
28173SOL    HW187411   1.625   8.343   0.034 -3.1777  0.1279 -0.4587
28173SOL    HW287412   1.607   8.193   0.027 -2.2621 -0.0464  0.7285
28174SOL     OW87413   7.784   2.426   2.238  0.0273 -0.1860  0.1731
28174SOL    HW187414   7.724   2.495   2.212 -1.3710 -1.0017  1.1419
28174SOL    HW287415   7.804   2.444   2.330  0.4960 -0.4855  0.1380
28175SOL     OW87416   1.830   1.119   8.109 -0.3172 -0.1271 -0.1331
28175SOL    HW187417   1.906   1.117   8.166 -1.5689  1.5295  1.7138
28175SOL    HW287418   1.756   1.103   8.167 -1.5210 -0.0699 -1.5903
28176SOL     OW87419   9.565   3.240   1.575 -0.9990 -0.3442  0.2093
28176SOL    HW187420   9.518   3.317   1.542 -0.9441  0.3740  1.7071
28176SOL    HW287421   9.500   3.194   1.628 -0.2316  0.3803  1.8734
28177SOL     OW87422   1.076   2.370   0.125  0.1891 -0.2427 -0.2360
28177SOL    HW187423   1.064   2.431   0.053 -0.7307  2.4028  1.9654
28177SOL    HW287424   1.167   2.343   0.119  0.1684 -0.0158 -2.2464
28178SOL     OW87425   5.236   4.306   2.020 -0.2587 -0.3062  0.0720
28178SOL    HW187426   5.308   4.343   1.969  0.3562 -2.1255 -0.4467
28178SOL    HW287427   5.279   4.257   2.090 -1.0055 -0.9479  0.0898
28179SOL     OW87428   4.445   3.437   6.432  0.1965 -0.4672  0.2820
28179SOL    HW187429   4.475   3.503   6.368  1.7224 -1.4678 -0.0826
28179SOL    HW287430   4.352   3.426   6.412 -0.2871  2.0314  0.7796
28180SOL     OW87431   7.125   0.358   4.920 -0.0307 -0.0335 -0.3217
28180SOL    HW187432   7.144   0.388   4.831 -1.3793  1.2149 -0.2268
28180SOL    HW287433   7.195   0.397   4.973 -0.0885  0.5119 -0.6334
28181SOL     OW87434   8.508   5.860   8.547 -0.3668  0.7787  0.0664
28181SOL    HW187435   8.562   5.878   8.470  0.5663 -0.2574  0.4391
28181SOL    HW287436   8.418   5.860   8.514  0.0700 -0.6246 -1.2624
28182SOL     OW87437   5.911   1.590   2.406 -0.1340 -0.2312  0.0971
28182SOL    HW187438   5.882   1.561   2.319 -0.6214 -1.8998  0.7695
28182SOL    HW287439   6.005   1.574   2.407 -0.5733 -3.4801  0.9564
28183SOL     OW87440   5.581   4.018   7.928 -0.2707 -0.0012  0.1962
28183SOL    HW187441   5.534   4.070   7.862 -0.7522  0.0551  0.5759
28183SOL    HW287442   5.627   4.084   7.981 -0.6029  0.0139  0.4653
28184SOL     OW87443   7.414   1.035   1.493 -0.1318  0.4503  0.1656
28184SOL    HW187444   7.480   1.103   1.477 -0.2174  0.6748  0.7504
28184SOL    HW287445   7.429   0.970   1.424  1.3470  0.0149  0.8433
28185SOL     OW87446   3.569   2.184   8.161  0.4948  0.0053 -0.1720
28185SOL    HW187447   3.556   2.157   8.252  3.2538  2.2881  1.0596
28185SOL    HW287448   3.653   2.147   8.136  1.2359  1.8842 -0.6585
28186SOL     OW87449   3.849   8.393   9.604  0.6324  0.0217  0.0447
28186SOL    HW187450   3.846   8.376   9.509  1.6653  1.2127 -0.2306
28186SOL    HW287451   3.881   8.483   9.610 -2.1164  1.0187  1.4465
28187SOL     OW87452   8.363   0.929   5.262 -0.2740  0.5270  0.0537
28187SOL    HW187453   8.442   0.916   5.210  0.3547 -0.2029  1.1459
28187SOL    HW287454   8.360   1.024   5.279  0.3568  0.5594 -0.0075
28188SOL     OW87455   5.004   4.370   7.316 -0.3727  0.5768 -0.4498
28188SOL    HW187456   4.975   4.305   7.380  1.0746  1.7358  1.4767
28188SOL    HW287457   5.015   4.320   7.235 -1.4774 -1.1065  0.3842
28189SOL     OW87458   6.922   7.748   8.083 -0.2910 -0.3451  0.1441
28189SOL    HW187459   6.946   7.840   8.079 -0.0101 -0.4655 -1.4248
28189SOL    HW287460   6.831   7.747   8.113 -0.6727  0.5193 -0.9320
28190SOL     OW87461   4.647   5.812   0.882  0.3580  0.3767 -0.3585
28190SOL    HW187462   4.724   5.755   0.882 -0.0034 -0.1330 -1.2357
28190SOL    HW287463   4.576   5.755   0.853 -0.0930  1.1691 -0.8459
28191SOL     OW87464   7.487   8.262   5.039  0.0292  0.0620 -0.1132
28191SOL    HW187465   7.400   8.292   5.013  0.3455  1.0505 -0.0853
28191SOL    HW287466   7.473   8.210   5.118 -0.8832 -2.4255 -1.7800
28192SOL     OW87467   5.776   2.734   8.030 -0.1080 -0.0207 -0.5534
28192SOL    HW187468   5.727   2.674   8.086  0.8892  0.9375  1.4396
28192SOL    HW287469   5.710   2.777   7.976 -1.3295  0.2241  1.0693
28193SOL     OW87470   2.252   2.631   7.920 -0.3947 -0.0940  0.3256
28193SOL    HW187471   2.314   2.559   7.917 -1.9985 -1.5122 -0.9206
28193SOL    HW287472   2.289   2.697   7.862  1.0468  0.0972  1.4109
28194SOL     OW87473   8.679   0.838   7.571 -0.4071  0.4172  0.1222
28194SOL    HW187474   8.751   0.893   7.601  0.0854  0.0726 -0.3931
28194SOL    HW287475   8.611   0.848   7.637 -0.7806  2.5225 -0.5064
28195SOL     OW87476   5.253   0.332   9.336  0.2595 -0.3154  0.3055
28195SOL    HW187477   5.336   0.379   9.341  0.8526 -1.4675  2.4005
28195SOL    HW287478   5.273   0.244   9.369 -1.4027 -1.2193 -0.9137
28196SOL     OW87479   3.419   6.345   5.863 -0.7142  0.4276 -0.2483
28196SOL    HW187480   3.510   6.350   5.834 -0.7078  1.1967 -0.1298
28196SOL    HW287481   3.425   6.319   5.955 -0.5804  0.9271 -0.1092
28197SOL     OW87482   3.019   1.050   8.578 -0.2214 -0.1732 -0.5335
28197SOL    HW187483   3.045   1.031   8.669 -0.6340 -1.6394 -0.6903
28197SOL    HW287484   3.079   1.119   8.550  0.7279 -0.5550  0.4643
28198SOL     OW87485   0.128   0.690   0.073  0.3340  0.5506  0.1442
28198SOL    HW187486   0.145   0.664  -0.017 -0.4271  0.7721 -0.0680
28198SOL    HW287487   0.173   0.625   0.126 -1.4202 -1.1495 -0.3584
28199SOL     OW87488   8.210   2.357   9.450  0.3555 -0.8627  0.4620
28199SOL    HW187489   8.203   2.327   9.360  1.3513 -0.8694  0.3755
28199SOL    HW287490   8.121   2.382   9.474  0.1913 -0.1595 -0.7722
28200SOL     OW87491   3.039   2.012   3.432 -0.1156 -0.3340 -0.0589
28200SOL    HW187492   2.988   1.932   3.423 -0.9862 -0.0211  1.6023
28200SOL    HW287493   2.975   2.083   3.426  0.4375  0.1755 -0.1229
28201SOL     OW87494   2.825   1.055   6.253 -0.2212 -0.0110  0.1275
28201SOL    HW187495   2.773   1.132   6.229 -0.5284 -0.4170 -0.5656
28201SOL    HW287496   2.760   0.990   6.280  0.1135  0.3861  1.9941
28202SOL     OW87497   5.902   7.730   5.209 -0.4264 -0.2023 -0.0769
28202SOL    HW187498   5.823   7.676   5.215 -0.6201 -0.2842 -2.4713
28202SOL    HW287499   5.961   7.682   5.152  0.8780  0.4667  0.6487
28203SOL     OW87500   1.628   9.262   7.188 -0.1258 -0.1474  0.1132
28203SOL    HW187501   1.533   9.266   7.180  0.0621  0.7174 -2.3960
28203SOL    HW287502   1.661   9.309   7.112  2.3383  1.4871  2.0315
28204SOL     OW87503   5.147   7.012   2.701 -0.0313 -0.2970 -0.3770
28204SOL    HW187504   5.065   7.037   2.658 -0.3093 -0.3012  0.1465
28204SOL    HW287505   5.193   6.959   2.635 -1.9047 -3.1341  0.4096
28205SOL     OW87506   9.001   1.192   8.566 -0.3911  0.5541  0.1701
28205SOL    HW187507   8.999   1.097   8.552  0.3893  0.4579  0.6472
28205SOL    HW287508   9.081   1.207   8.615 -0.5557  1.4584  0.1769
28206SOL     OW87509   9.309   0.912   2.402  0.7101 -0.4164  0.2434
28206SOL    HW187510   9.215   0.932   2.402  0.5689 -0.4533  3.4632
28206SOL    HW287511   9.315   0.827   2.446  2.2536 -0.2565  0.3976
28207SOL     OW87512   4.268   8.880   0.483  0.2808 -0.3807  0.4370
28207SOL    HW187513   4.192   8.844   0.529  0.9446 -0.8673  1.1811
28207SOL    HW287514   4.343   8.837   0.523  0.9749  0.2890 -0.1040
28208SOL     OW87515   2.770   8.525   8.620  0.1469  0.1848  0.2619
28208SOL    HW187516   2.830   8.464   8.577  0.4865  1.3952 -1.0674
28208SOL    HW287517   2.710   8.553   8.551  2.5975  4.5597 -0.4769
28209SOL     OW87518   6.670   8.638   2.777 -0.2297  0.0235  0.2150
28209SOL    HW187519   6.749   8.627   2.724  0.2042 -2.2201  1.2002
28209SOL    HW287520   6.603   8.586   2.731 -0.6297  0.3935  0.3705
28210SOL     OW87521   9.270   2.277   6.776 -0.3318 -0.1901 -0.4319
28210SOL    HW187522   9.314   2.258   6.693  1.0381  0.0743  0.2007
28210SOL    HW287523   9.269   2.373   6.781  1.0543 -0.2004  0.5716
28211SOL     OW87524   6.874   2.601   1.888 -0.0422 -0.4210 -0.0240
28211SOL    HW187525   6.903   2.522   1.933 -0.4511 -0.1580  0.7076
28211SOL    HW287526   6.835   2.568   1.806  1.4816 -0.8313 -0.6137
28212SOL     OW87527   2.557   7.491   5.983  0.5174 -0.6768 -0.5725
28212SOL    HW187528   2.631   7.430   5.991  0.2650 -1.1250 -1.5381
28212SOL    HW287529   2.509   7.480   6.065  0.2676 -2.0872 -0.8823
28213SOL     OW87530   8.422   1.157   2.952 -0.8659  0.2501  0.1609
28213SOL    HW187531   8.469   1.237   2.978 -0.5006  0.1831 -0.2687
28213SOL    HW287532   8.492   1.097   2.926 -1.2194  0.8147 -2.4144
28214SOL     OW87533   1.915   0.729   4.742  0.5731 -0.8751  0.2942
28214SOL    HW187534   2.011   0.724   4.740  0.7839 -0.6267  3.6563
28214SOL    HW287535   1.897   0.816   4.776 -0.7373 -1.7371  1.9253
28215SOL     OW87536   6.769   7.886   9.010  0.4849 -0.0306  0.7308
28215SOL    HW187537   6.709   7.815   8.990  1.8307 -0.5177 -1.9589
28215SOL    HW287538   6.832   7.848   9.071 -0.4754 -0.2146  1.6462
28216SOL     OW87539   6.614   7.467   4.709  0.4015 -0.1576 -0.6310
28216SOL    HW187540   6.519   7.476   4.720  0.2958 -1.0252 -0.7810
28216SOL    HW287541   6.649   7.486   4.796  0.3517  3.1120 -1.2047
28217SOL     OW87542   2.197   5.685   7.248 -0.3994 -0.2287 -0.3737
28217SOL    HW187543   2.151   5.698   7.331  1.1083 -1.6166  0.7219
28217SOL    HW287544   2.136   5.634   7.195 -1.3941  0.7099 -0.1817
28218SOL     OW87545   5.404   0.212   4.907  0.2384  0.8067 -0.0301
28218SOL    HW187546   5.436   0.202   4.817 -2.6163 -0.8363 -1.0139
28218SOL    HW287547   5.459   0.154   4.959  0.6823  0.2596 -1.0827
28219SOL     OW87548   6.433   6.372   1.071 -0.4214 -0.3711 -0.2283
28219SOL    HW187549   6.489   6.427   1.016  0.4904 -1.0005  0.0541
28219SOL    HW287550   6.391   6.434   1.131 -2.2062  0.4620 -2.2319
28220SOL     OW87551   6.195   0.854   3.176 -0.3341 -0.2443 -0.3522
28220SOL    HW187552   6.286   0.858   3.146 -0.4156  0.6478 -0.4909
28220SOL    HW287553   6.185   0.931   3.232 -1.1015 -0.1740 -0.5843
28221SOL     OW87554   8.108   8.180   5.078  0.2152 -0.6077 -0.3905
28221SOL    HW187555   8.196   8.184   5.114  1.0637 -0.0277 -2.3919
28221SOL    HW287556   8.117   8.127   4.999 -0.9196  0.6462 -1.4104
28222SOL     OW87557   0.560   7.327   2.764 -0.1783 -0.4578  0.1808
28222SOL    HW187558   0.570   7.247   2.712 -1.1161 -1.4170  1.4122
28222SOL    HW287559   0.489   7.306   2.826  0.5366  0.8184  1.4781
28223SOL     OW87560   5.073   0.853   3.648 -0.2431  0.5439  0.1320
28223SOL    HW187561   4.989   0.833   3.608  0.2620  0.3969 -0.8966
28223SOL    HW287562   5.082   0.948   3.642 -0.4296  0.5819  0.4430
28224SOL     OW87563   4.744   6.873   3.212  0.1169 -0.7409 -0.6151
28224SOL    HW187564   4.805   6.947   3.215 -1.6863  0.7993  1.4578
28224SOL    HW287565   4.798   6.797   3.232  1.4214  0.5404  1.0678
28225SOL     OW87566   2.399   6.564   3.011  0.1761  0.1224 -0.3941
28225SOL    HW187567   2.416   6.470   3.015 -0.2651  0.0363 -0.4545
28225SOL    HW287568   2.332   6.579   3.078  0.1591  0.3723 -0.4668
28226SOL     OW87569   9.426   6.118   7.100 -0.4925 -0.3801 -0.0940
28226SOL    HW187570   9.470   6.037   7.074 -2.3871 -0.9462 -1.7886
28226SOL    HW287571   9.340   6.090   7.130 -0.2935  0.8282  1.7620
28227SOL     OW87572   2.692   4.892   0.561  0.0566 -0.3249 -0.0830
28227SOL    HW187573   2.640   4.915   0.638  0.9746 -1.4040  0.9176
28227SOL    HW287574   2.637   4.831   0.512 -0.3957  0.0841 -0.0832
28228SOL     OW87575   9.357   5.458   7.149  0.6234  0.1863 -0.1573
28228SOL    HW187576   9.271   5.471   7.187  0.0831  0.3173 -1.3860
28228SOL    HW287577   9.364   5.363   7.137 -0.0723  0.2818 -1.6024
28229SOL     OW87578   0.374   0.578   7.703  0.2444  0.1636 -0.2211
28229SOL    HW187579   0.362   0.672   7.685 -0.0840  0.1170 -0.2559
28229SOL    HW287580   0.429   0.547   7.630  1.6458  0.6292  0.5974
28230SOL     OW87581   6.372   1.682   1.319 -0.0237  0.8992  0.1776
28230SOL    HW187582   6.370   1.623   1.243  0.3119  1.7393 -0.5032
28230SOL    HW287583   6.452   1.656   1.366 -0.4768  0.0671  0.5126
28231SOL     OW87584   2.751   8.840   8.281  0.2888 -0.3859 -1.3808
28231SOL    HW187585   2.666   8.859   8.240  0.5403  0.8706 -1.3825
28231SOL    HW287586   2.749   8.747   8.301 -1.8270 -0.0458  0.3054
28232SOL     OW87587   0.789   6.763   2.723  0.4912 -0.1620 -0.1178
28232SOL    HW187588   0.698   6.739   2.740  0.0525  0.4338 -1.5262
28232SOL    HW287589   0.793   6.857   2.741  0.8483 -0.1953 -0.0073
28233SOL     OW87590   0.158   8.270   6.619 -0.1613 -0.4745  0.3067
28233SOL    HW187591   0.226   8.227   6.671  0.5174 -0.4369 -0.5222
28233SOL    HW287592   0.180   8.248   6.528 -0.3875  0.7520 -0.0707
28234SOL     OW87593   5.377   2.951   0.394 -0.3713  0.5417  0.2357
28234SOL    HW187594   5.371   2.887   0.324  1.2914  0.1481  0.4103
28234SOL    HW287595   5.429   3.023   0.357  1.7817 -0.2940  1.4271
28235SOL     OW87596   4.764   0.736   8.122 -0.4270  0.4268  0.3257
28235SOL    HW187597   4.776   0.685   8.201 -0.6958 -0.2922 -0.0912
28235SOL    HW287598   4.729   0.674   8.058 -0.2572  1.0046 -0.3427
28236SOL     OW87599   1.373   3.995   4.329  0.0861 -0.2173 -0.4277
28236SOL    HW187600   1.289   3.960   4.298  0.5128 -2.4835  0.7496
28236SOL    HW287601   1.350   4.049   4.404 -0.3112 -1.4042  0.3402
28237SOL     OW87602   6.299   5.843   5.103 -0.0944  0.9288  0.2134
28237SOL    HW187603   6.361   5.812   5.037  0.2535 -0.4986  1.1695
28237SOL    HW287604   6.352   5.888   5.168 -0.1319  0.2890  0.6948
28238SOL     OW87605   8.506   7.918   7.807 -0.0581  0.1953 -0.4900
28238SOL    HW187606   8.551   7.917   7.892 -2.0457  0.0083  0.6137
28238SOL    HW287607   8.496   7.826   7.784  0.5617  0.2484 -0.9850
28239SOL     OW87608   7.214   8.684   1.215 -0.1492 -0.6088  0.2413
28239SOL    HW187609   7.118   8.686   1.208 -0.3814  3.0134  2.0589
28239SOL    HW287610   7.245   8.712   1.128 -0.6821 -1.6257 -0.3001
28240SOL     OW87611   4.695   6.570   9.095 -0.1711 -0.3191 -0.5403
28240SOL    HW187612   4.734   6.507   9.155 -1.5867 -0.2964  0.4527
28240SOL    HW287613   4.662   6.517   9.023  0.5327 -0.4659 -0.7642
28241SOL     OW87614   6.945   8.861   5.933  0.3919  0.3657  0.0830
28241SOL    HW187615   7.036   8.882   5.952  0.0677  1.0186  1.0496
28241SOL    HW287616   6.896   8.939   5.963 -0.6847 -0.9022  1.8484
28242SOL     OW87617   1.529   0.029   8.159 -0.1992  0.2644  0.1125
28242SOL    HW187618   1.552   0.092   8.090  0.5543  1.9728  1.8565
28242SOL    HW287619   1.530  -0.056   8.114  2.8105  0.9898 -1.4669
28243SOL     OW87620   7.868   4.234   9.411 -0.2942  0.1907 -0.6249
28243SOL    HW187621   7.822   4.314   9.387 -0.2269  0.6254  0.6303
28243SOL    HW287622   7.855   4.226   9.506  2.4724  0.5073 -0.1291
28244SOL     OW87623   0.931   8.126   2.868 -0.3041  0.6189  0.1248
28244SOL    HW187624   0.977   8.185   2.929  0.5368  1.5945 -1.3887
28244SOL    HW287625   0.968   8.040   2.887  3.6189  1.5512 -2.1214
28245SOL     OW87626   9.282   6.974   4.703 -0.1586 -0.1149  0.1959
28245SOL    HW187627   9.278   6.911   4.631 -0.0167 -0.4085  0.4430
28245SOL    HW287628   9.192   6.977   4.737  0.0596 -1.0463  0.9124
28246SOL     OW87629   0.063   2.802   5.859 -0.6388 -0.1529 -0.4142
28246SOL    HW187630   0.067   2.897   5.850 -0.6602 -0.2562 -1.7700
28246SOL    HW287631   0.107   2.769   5.780 -0.9502 -1.2653 -0.1420
28247SOL     OW87632   8.141   3.053   4.283  0.0410  0.2766  0.1314
28247SOL    HW187633   8.104   3.047   4.372  0.4737  0.0232  0.3002
28247SOL    HW287634   8.121   2.969   4.243 -0.7227  0.6338 -0.2403
28248SOL     OW87635   1.839   8.633   6.814 -0.1226  0.3444 -0.3944
28248SOL    HW187636   1.774   8.700   6.791 -1.7080 -0.6956  0.8144
28248SOL    HW287637   1.799   8.550   6.788  0.2901 -0.4022  1.2120
28249SOL     OW87638   8.469   8.677   8.075 -0.2831  0.3455  0.3534
28249SOL    HW187639   8.501   8.623   8.148  0.8535  1.9707  1.1214
28249SOL    HW287640   8.543   8.682   8.015 -0.3637  1.0576  0.3051
28250SOL     OW87641   4.401   4.499   1.899 -0.0098  0.0294  0.3680
28250SOL    HW187642   4.397   4.488   1.994  0.0970 -0.2876  0.3400
28250SOL    HW287643   4.449   4.422   1.868 -0.8848 -0.3779 -0.0299
28251SOL     OW87644   4.337   7.524   4.169  0.5798 -0.0939 -0.4626
28251SOL    HW187645   4.394   7.553   4.240  1.7136 -0.9226 -0.9944
28251SOL    HW287646   4.397   7.506   4.096 -0.4132 -0.5236 -1.1974
28252SOL     OW87647   2.602   2.145   8.330 -0.0059 -0.1363  0.7371
28252SOL    HW187648   2.555   2.093   8.264  0.2644  2.4572 -1.6627
28252SOL    HW287649   2.533   2.190   8.379 -0.1700 -1.3887  1.7170
28253SOL     OW87650   3.446   0.432   5.133  0.0995  0.0828  0.5550
28253SOL    HW187651   3.476   0.479   5.211 -1.3546  0.2128  1.0730
28253SOL    HW287652   3.364   0.389   5.161  0.1346 -0.7793 -0.5881
28254SOL     OW87653   6.297   7.967   8.160 -0.1816  0.4495  0.2220
28254SOL    HW187654   6.307   8.062   8.166  0.1260  0.4342 -0.0481
28254SOL    HW287655   6.369   7.932   8.212  0.6208  0.3521 -0.9264
28255SOL     OW87656   9.147   4.229   5.135  0.5949  0.7877 -0.0940
28255SOL    HW187657   9.148   4.232   5.040 -2.0106  0.6725 -0.1834
28255SOL    HW287658   9.184   4.143   5.157  0.6002  0.5483 -1.0086
28256SOL     OW87659   0.719   5.700   0.267 -0.2375 -0.0617 -0.4967
28256SOL    HW187660   0.671   5.745   0.337 -1.3894 -1.8550 -0.0606
28256SOL    HW287661   0.805   5.681   0.305 -0.1219  0.7783 -0.3186
28257SOL     OW87662   8.473   9.558   4.326  0.5632  0.0330  0.2301
28257SOL    HW187663   8.524   9.582   4.249 -0.7943 -0.2441 -0.7851
28257SOL    HW287664   8.539   9.534   4.391  1.7356 -1.0826 -1.2828
28258SOL     OW87665   7.122   2.582   7.056 -0.7495 -0.6532  0.0429
28258SOL    HW187666   7.047   2.574   7.116 -0.0828 -2.3932  0.6919
28258SOL    HW287667   7.133   2.495   7.019  1.5170 -0.6860  0.6614
28259SOL     OW87668   5.791   8.734   5.822 -0.0725  0.2409 -0.2888
28259SOL    HW187669   5.722   8.700   5.764 -0.9766  0.4918  0.6144
28259SOL    HW287670   5.745   8.762   5.900  1.2724 -1.6497  1.2961
28260SOL     OW87671   2.960   8.477   1.012 -0.0746  0.1122  0.4248
28260SOL    HW187672   3.013   8.415   1.063  1.4760  0.7940 -0.2777
28260SOL    HW287673   2.970   8.560   1.059 -0.9959  0.1320  0.5897
28261SOL     OW87674   5.694   3.331   8.425  0.3443  0.5614  0.2211
28261SOL    HW187675   5.701   3.259   8.363  1.0381  0.5638  0.2835
28261SOL    HW287676   5.624   3.387   8.390  1.2984  1.0127 -1.0268
28262SOL     OW87677   1.959   7.268   4.750  0.1577 -0.1563 -0.3519
28262SOL    HW187678   1.934   7.206   4.818 -2.7607 -0.2225 -1.3402
28262SOL    HW287679   1.882   7.323   4.737  1.4582  1.4415 -1.9134
28263SOL     OW87680   0.179   4.527   2.067 -0.3460  0.3935 -0.3499
28263SOL    HW187681   0.240   4.465   2.026 -0.5965  1.1158 -1.9027
28263SOL    HW287682   0.105   4.473   2.095  0.7260 -0.4079  1.0556
28264SOL     OW87683   8.559   7.482   0.773 -0.1552  0.0021 -0.4139
28264SOL    HW187684   8.506   7.418   0.726 -0.9179 -1.1002  1.7985
28264SOL    HW287685   8.632   7.430   0.808  0.8990  0.9747 -1.1033
28265SOL     OW87686   8.988   7.450   4.639  0.3530  0.0144  0.3038
28265SOL    HW187687   8.986   7.546   4.638  1.8512  0.0787 -1.3525
28265SOL    HW287688   9.015   7.428   4.728 -0.4614  1.0864  0.8515
28266SOL     OW87689   4.625   8.014   0.150  0.7115  0.7721 -0.1747
28266SOL    HW187690   4.546   8.050   0.109 -0.3221 -0.9663  0.2046
28266SOL    HW287691   4.635   7.928   0.111  0.8618 -0.1265  1.7538
28267SOL     OW87692   2.999   4.704   5.939 -0.1634  0.4621  0.3938
28267SOL    HW187693   3.012   4.617   5.976 -0.8277  0.4366  0.5838
28267SOL    HW287694   2.947   4.751   6.006  0.7062  1.1981  0.5696
28268SOL     OW87695   9.378   5.157   9.523  0.3522 -0.1288 -0.1800
28268SOL    HW187696   9.444   5.223   9.502 -0.1870  0.6912  0.6169
28268SOL    HW287697   9.295   5.205   9.521 -0.1482 -1.0069 -0.5490
28269SOL     OW87698   3.797   8.595   2.854  0.2297 -0.4959 -0.2754
28269SOL    HW187699   3.758   8.608   2.940 -0.8667  0.6657 -0.9154
28269SOL    HW287700   3.873   8.539   2.870 -0.0437 -0.4258  1.4133
28270SOL     OW87701   8.574   7.875   5.023  0.5365  0.1719 -0.0817
28270SOL    HW187702   8.618   7.959   5.011 -2.1691  1.7473  0.1962
28270SOL    HW287703   8.559   7.868   5.117 -0.4539  0.0451 -0.2421
28271SOL     OW87704   7.242   6.242   7.212  0.3097  0.2120 -0.1996
28271SOL    HW187705   7.238   6.176   7.281 -2.5617  1.2466  0.7794
28271SOL    HW287706   7.179   6.213   7.146 -0.1126  1.3461 -0.3259
28272SOL     OW87707   7.456   4.873   9.603  0.9484  0.5309 -0.2573
28272SOL    HW187708   7.450   4.916   9.517  1.5558  1.0745 -0.0374
28272SOL    HW287709   7.533   4.912   9.644  0.0103  1.1139  1.0102
28273SOL     OW87710   3.703   2.990   2.180 -0.2721 -0.1779  0.1071
28273SOL    HW187711   3.613   3.008   2.152 -0.7111 -1.2886  0.7508
28273SOL    HW287712   3.752   3.068   2.154 -1.1859 -0.0350 -1.2918
28274SOL     OW87713   2.508   4.371   6.282  0.0525  0.2325 -0.3015
28274SOL    HW187714   2.577   4.426   6.245  1.4645 -0.4149  1.2056
28274SOL    HW287715   2.549   4.284   6.290 -1.0793 -0.2633  0.2564
28275SOL     OW87716   4.148   0.327   4.282 -0.2913  0.5916 -0.0237
28275SOL    HW187717   4.055   0.314   4.260  0.3580  0.2015 -2.8651
28275SOL    HW287718   4.187   0.240   4.274  0.1345  0.4419  2.6779
28276SOL     OW87719   3.818   5.804   5.928  0.0027  0.5541 -0.0222
28276SOL    HW187720   3.828   5.810   5.833  1.3682  1.1151  0.1317
28276SOL    HW287721   3.726   5.780   5.941 -0.4480  1.3804 -1.4527
28277SOL     OW87722   2.786   4.501   4.690  0.0792 -0.4010 -0.0226
28277SOL    HW187723   2.715   4.531   4.746  1.0306  0.7011  0.6354
28277SOL    HW287724   2.813   4.417   4.727  1.5344  0.8815  2.0329
28278SOL     OW87725   1.028   6.548   8.782 -0.5175  0.0563  1.0505
28278SOL    HW187726   1.112   6.589   8.761 -0.4983  0.4244  1.8236
28278SOL    HW287727   1.044   6.502   8.865 -0.2786 -2.2798 -0.2158
28279SOL     OW87728   0.835   8.169   3.512 -0.7589 -0.6729  0.6739
28279SOL    HW187729   0.837   8.188   3.606 -1.2787  0.2679  0.5057
28279SOL    HW287730   0.746   8.140   3.494 -0.7911 -0.4112  0.3939
28280SOL     OW87731   3.704   8.443   6.371  0.1691  0.0794 -0.1617
28280SOL    HW187732   3.757   8.516   6.405  0.5215 -1.0361  1.7776
28280SOL    HW287733   3.665   8.403   6.448 -2.9712  0.3505 -1.4555
28281SOL     OW87734   0.721   0.926   7.982 -0.1645 -0.0889 -0.2175
28281SOL    HW187735   0.755   0.950   8.068  0.2111  0.1739 -0.4307
28281SOL    HW287736   0.772   0.980   7.921 -0.3167 -0.3867 -0.6135
28282SOL     OW87737   0.249   3.083   0.300 -0.6283  0.2212  0.2176
28282SOL    HW187738   0.244   3.152   0.366 -1.0262 -0.5875  1.0561
28282SOL    HW287739   0.186   3.109   0.233 -1.5726  0.1467  1.0550
28283SOL     OW87740   3.716   0.777   4.637  0.6573  0.4013  0.1741
28283SOL    HW187741   3.746   0.781   4.546 -1.9934  3.0767 -0.7471
28283SOL    HW287742   3.756   0.854   4.678 -0.8524  1.1882  0.2491
28284SOL     OW87743   9.635   4.716   4.956 -0.4855  0.3923 -0.4705
28284SOL    HW187744   9.728   4.708   4.934 -0.8070  0.3508 -1.9446
28284SOL    HW287745   9.620   4.647   5.021  0.3199 -0.2201 -0.9033
28285SOL     OW87746   5.162   4.584   6.915  0.4192  0.3001  0.4146
28285SOL    HW187747   5.250   4.554   6.892 -0.0241 -1.0556  0.4066
28285SOL    HW287748   5.155   4.568   7.009  0.2592  0.6431  0.4654
28286SOL     OW87749   7.583   3.282   2.693  0.3035  0.7465 -0.1580
28286SOL    HW187750   7.669   3.311   2.663  0.7323 -0.2253  0.1028
28286SOL    HW287751   7.553   3.221   2.626  0.0903  0.5995  0.0695
28287SOL     OW87752   7.622   4.976   5.572 -0.0087 -0.6351 -0.0184
28287SOL    HW187753   7.583   5.056   5.538  0.6791 -0.8526 -1.3721
28287SOL    HW287754   7.695   5.005   5.627 -1.2477 -0.2774  1.5294
28288SOL     OW87755   1.569   9.138   2.095  0.8082  0.5400 -0.1251
28288SOL    HW187756   1.542   9.209   2.153 -2.1323  1.3124 -2.1806
28288SOL    HW287757   1.537   9.058   2.137 -0.2415  0.9788 -0.0507
28289SOL     OW87758   4.912   3.899   5.746 -0.0771 -0.0129 -0.1649
28289SOL    HW187759   4.899   3.993   5.754 -1.3289 -0.3196  1.9779
28289SOL    HW287760   4.867   3.861   5.821 -1.3817 -2.4956 -2.0582
28290SOL     OW87761   8.846   7.418   3.257 -0.1879  0.2134 -0.0220
28290SOL    HW187762   8.905   7.466   3.199  2.0870 -1.5292  0.7265
28290SOL    HW287763   8.804   7.353   3.201  0.8109 -0.4215 -0.0615
28291SOL     OW87764   4.783   8.887   1.152  1.0558 -0.4208 -0.7437
28291SOL    HW187765   4.704   8.833   1.146 -0.0639  0.8608  1.2058
28291SOL    HW287766   4.762   8.965   1.101  0.1716  0.8311  1.4219
28292SOL     OW87767   9.338   8.898   2.846 -0.2084 -0.0886 -0.2529
28292SOL    HW187768   9.354   8.839   2.919 -2.4395  0.1580  0.5158
28292SOL    HW287769   9.267   8.857   2.797  1.1385 -0.1736 -2.2619
28293SOL     OW87770   3.509   2.046   4.912 -0.4882 -0.4587  0.4197
28293SOL    HW187771   3.558   2.100   4.973  1.0843  1.2176 -2.1504
28293SOL    HW287772   3.576   2.000   4.861 -1.5899 -0.0651 -1.4999
28294SOL     OW87773   1.523   5.745   2.413  0.3084  0.4250 -0.5949
28294SOL    HW187774   1.614   5.771   2.396  0.2812  0.3019 -0.9211
28294SOL    HW287775   1.470   5.818   2.381  0.2054 -0.2273 -1.9698
28295SOL     OW87776   0.298   2.777   8.967 -0.4598  0.6111 -0.3666
28295SOL    HW187777   0.204   2.761   8.964 -0.7283  1.8653  0.4025
28295SOL    HW287778   0.332   2.710   9.025 -0.9258  0.3336 -0.4102
28296SOL     OW87779   5.632   7.839   6.641  0.2478 -0.0924  0.2573
28296SOL    HW187780   5.656   7.897   6.569  1.3802 -0.6748  0.1483
28296SOL    HW287781   5.700   7.855   6.707  0.1265 -0.7311  0.5372
28297SOL     OW87782   2.044   7.512   0.479  0.7132  0.1746 -0.4880
28297SOL    HW187783   2.060   7.586   0.538 -0.8573  0.0495  0.1398
28297SOL    HW287784   2.131   7.474   0.465  1.1986  0.4030  1.4930
28298SOL     OW87785   7.032   2.683   3.214  0.0064  0.2595  0.0527
28298SOL    HW187786   7.021   2.588   3.207  2.1491  0.0652 -1.6020
28298SOL    HW287787   7.125   2.695   3.234 -0.3122  2.0251  0.6233
28299SOL     OW87788   8.334   2.167   5.363  0.1790 -0.6651 -0.0226
28299SOL    HW187789   8.269   2.157   5.434 -1.1224 -1.5395 -1.2784
28299SOL    HW287790   8.282   2.164   5.283  1.3543  2.4650 -1.0463
28300SOL     OW87791   6.389   0.654   1.735 -0.1048  0.4131 -0.0175
28300SOL    HW187792   6.342   0.698   1.665 -1.4558 -0.0277  0.5916
28300SOL    HW287793   6.348   0.568   1.741  3.2477 -1.5643 -2.0129
28301SOL     OW87794   0.770   4.129   3.306  0.1032  0.0523  0.6791
28301SOL    HW187795   0.755   4.035   3.322 -0.2090 -0.4147 -1.8716
28301SOL    HW287796   0.853   4.147   3.350  1.3415 -2.0322 -0.5783
28302SOL     OW87797   0.385   1.757   3.610  0.2377 -0.1668  0.0253
28302SOL    HW187798   0.319   1.744   3.542  0.4065  3.5774 -1.0886
28302SOL    HW287799   0.338   1.804   3.680  1.2322  0.7751  0.0839
28303SOL     OW87800   2.080   7.397   9.115  0.3566 -0.3545 -0.2347
28303SOL    HW187801   2.119   7.444   9.189  0.8908  1.4692 -1.5980
28303SOL    HW287802   2.033   7.464   9.066 -0.6750 -1.6743 -1.1300
28304SOL     OW87803   8.984   9.074   4.296  0.1466 -0.5826  0.1385
28304SOL    HW187804   8.907   9.116   4.260  0.1998 -0.8514 -0.2944
28304SOL    HW287805   9.000   9.119   4.379 -0.8300 -0.9354  0.5307
28305SOL     OW87806   1.744   3.005   0.183 -0.9233  0.6831 -0.5699
28305SOL    HW187807   1.757   3.051   0.266 -2.1136 -1.4395  0.8889
28305SOL    HW287808   1.806   2.933   0.186 -1.1751  0.4251 -1.4002
28306SOL     OW87809   4.721   5.809   2.701 -0.0606 -0.0133  0.4876
28306SOL    HW187810   4.739   5.749   2.628 -0.4190  0.6987 -0.1962
28306SOL    HW287811   4.767   5.889   2.678  1.0433 -0.2427  1.7635
28307SOL     OW87812   3.204   9.329   2.499  0.3703  0.2561  0.2395
28307SOL    HW187813   3.126   9.300   2.452  0.6039 -0.6079  0.3709
28307SOL    HW287814   3.220   9.260   2.563  0.2915  1.2102  1.3288
28308SOL     OW87815   1.116   2.125   2.388  0.1430  0.1056 -0.2124
28308SOL    HW187816   1.206   2.142   2.359  0.8989 -0.5179  1.6407
28308SOL    HW287817   1.125   2.059   2.456 -1.9018 -1.2128 -1.1222
28309SOL     OW87818   5.867   5.836   6.476  0.7715 -0.2414 -0.1454
28309SOL    HW187819   5.940   5.891   6.503  1.9834 -0.9022 -1.8736
28309SOL    HW287820   5.814   5.892   6.420  0.9461 -0.2653 -0.3365
28310SOL     OW87821   3.078   7.495   6.600  0.4699 -0.8410  0.1054
28310SOL    HW187822   3.035   7.531   6.523 -0.1755 -1.3508  0.2189
28310SOL    HW287823   3.018   7.516   6.672  1.0013 -0.4910  0.4552
28311SOL     OW87824   4.679   7.411   0.987  0.3747 -0.6635  0.4940
28311SOL    HW187825   4.610   7.348   0.969  0.5218 -0.6394 -0.1865
28311SOL    HW287826   4.639   7.497   0.973  0.5185 -0.6478  0.1608
28312SOL     OW87827   6.227   3.437   8.541  0.2080 -0.1077 -0.2319
28312SOL    HW187828   6.266   3.380   8.607  1.0986  1.5799  0.7573
28312SOL    HW287829   6.135   3.409   8.537  0.2146 -0.5044  1.4438
28313SOL     OW87830   9.640   2.187   0.585 -0.4112  0.3191  0.7201
28313SOL    HW187831   9.606   2.222   0.503  0.4207  0.2134  0.3225
28313SOL    HW287832   9.562   2.154   0.630 -0.8733  0.3061 -0.0582
28314SOL     OW87833   3.994   3.158   4.147 -0.4433  0.5070  0.1434
28314SOL    HW187834   4.082   3.154   4.109 -1.1400 -0.8990 -1.4764
28314SOL    HW287835   3.960   3.243   4.121 -0.0829  0.4615 -0.4943
28315SOL     OW87836   2.510   2.700   1.410  0.3399  0.0380 -0.6889
28315SOL    HW187837   2.493   2.788   1.445  0.6587 -0.0992 -0.1698
28315SOL    HW287838   2.499   2.642   1.485 -0.9277 -0.4957 -1.2670
28316SOL     OW87839   8.225   1.007   3.481  0.0181 -0.2499 -0.0209
28316SOL    HW187840   8.285   0.956   3.427  0.2493 -2.9484  2.5056
28316SOL    HW287841   8.144   1.010   3.430  1.3517  0.9249 -2.2142
28317SOL     OW87842   5.494   1.053   0.906 -0.5686 -0.1730 -0.2525
28317SOL    HW187843   5.426   1.009   0.856  0.1484 -0.2857 -1.1443
28317SOL    HW287844   5.457   1.061   0.995 -0.4260 -3.2911  0.1884
28318SOL     OW87845   0.755   8.510   6.180  0.8536  0.8581  0.3317
28318SOL    HW187846   0.775   8.453   6.107 -1.0480  1.2539 -0.5700
28318SOL    HW287847   0.717   8.453   6.247  1.5273  0.6673  0.5534
28319SOL     OW87848   6.348   0.419   1.934 -0.1705  0.0954  0.8166
28319SOL    HW187849   6.439   0.450   1.934 -0.0239 -0.3123 -0.0495
28319SOL    HW287850   6.306   0.470   2.003 -0.3342  3.4289 -1.4779
28320SOL     OW87851   0.282   7.641   1.408 -0.4465  0.1427  0.6519
28320SOL    HW187852   0.282   7.732   1.381 -1.5883  0.0255  0.2046
28320SOL    HW287853   0.267   7.592   1.327 -1.2016 -0.3583  1.0812
28321SOL     OW87854   9.232   0.301   7.590 -0.6393 -0.1150 -0.2660
28321SOL    HW187855   9.148   0.323   7.631 -1.1074  1.3259 -1.8936
28321SOL    HW287856   9.268   0.231   7.645 -1.8953  0.7161  1.7126
28322SOL     OW87857   5.765   3.840   4.164  0.2625  0.2898  0.0551
28322SOL    HW187858   5.716   3.915   4.129 -0.0249 -0.8041 -2.0377
28322SOL    HW287859   5.698   3.774   4.183  0.6072  0.1328  0.7299
28323SOL     OW87860   4.063   9.482   3.806  0.0048  0.1885  0.3415
28323SOL    HW187861   4.060   9.577   3.799 -0.4092  0.1496 -0.0579
28323SOL    HW287862   4.008   9.462   3.882 -0.9400  0.1943 -0.3245
28324SOL     OW87863   7.665   7.479   1.723 -1.0994 -0.0408  0.4813
28324SOL    HW187864   7.597   7.428   1.680 -0.8936 -0.3375  0.5012
28324SOL    HW287865   7.738   7.479   1.661 -1.1504  0.3498  0.4212
28325SOL     OW87866   5.118   4.394   1.531  0.1024 -0.1510 -0.5359
28325SOL    HW187867   5.204   4.436   1.543 -0.0937 -0.3061  1.8470
28325SOL    HW287868   5.118   4.322   1.593 -1.9350  0.1428 -0.1359
28326SOL     OW87869   7.302   0.712   6.272  0.0291  0.1464  0.0151
28326SOL    HW187870   7.208   0.696   6.263  0.4456 -2.5147 -0.6347
28326SOL    HW287871   7.314   0.803   6.247 -2.2180  0.1708 -1.2119
28327SOL     OW87872   5.802   7.516   8.110  0.2055 -0.3340  0.1494
28327SOL    HW187873   5.777   7.594   8.160  2.9407  0.6809  0.0823
28327SOL    HW287874   5.840   7.457   8.175  0.5554 -0.4952 -0.1984
28328SOL     OW87875   7.594   5.873   5.592 -0.0821  0.7799  0.3534
28328SOL    HW187876   7.635   5.959   5.603 -0.9233  1.2997 -0.3956
28328SOL    HW287877   7.605   5.830   5.677 -0.2368  1.8932  0.9609
28329SOL     OW87878   2.407   9.519   6.192 -0.1387  0.2801  0.3834
28329SOL    HW187879   2.449   9.552   6.112  3.5469  1.4968  2.5973
28329SOL    HW287880   2.340   9.585   6.212  0.6364  1.3129 -0.3391
28330SOL     OW87881   8.916   9.136   2.237 -0.3123 -0.0824  0.2610
28330SOL    HW187882   8.906   9.047   2.270  0.7784  0.6327  2.7028
28330SOL    HW287883   8.975   9.128   2.163  0.9350 -1.2460  1.3480
28331SOL     OW87884   7.811   0.556   3.790 -0.3644 -0.0083 -0.0673
28331SOL    HW187885   7.806   0.637   3.841 -1.7219  0.5768 -1.0756
28331SOL    HW287886   7.733   0.507   3.814 -1.3677  0.5550 -1.9611
28332SOL     OW87887   4.137   3.396   2.774  0.1258 -0.1433  0.3507
28332SOL    HW187888   4.172   3.437   2.694  0.3467 -0.5732  0.2247
28332SOL    HW287889   4.048   3.370   2.750 -0.4665  1.3576  0.8101
28333SOL     OW87890   1.659   7.041   4.026 -0.2709  0.1251  0.2127
28333SOL    HW187891   1.615   7.069   4.106  0.2199 -0.2418  0.6120
28333SOL    HW287892   1.605   7.078   3.956  0.1460  1.7359  0.7070
28334SOL     OW87893   4.597   2.938   7.485 -0.5144  0.3708  0.1952
28334SOL    HW187894   4.623   2.965   7.573 -1.5556  0.4638  0.4875
28334SOL    HW287895   4.517   2.889   7.497 -0.7060  0.4371 -0.7117
28335SOL     OW87896   4.707   6.409   0.565  0.2131  0.5706  0.0768
28335SOL    HW187897   4.687   6.467   0.639  1.3704 -0.3752  1.1633
28335SOL    HW287898   4.760   6.463   0.506  1.3021  0.6526  1.0888
28336SOL     OW87899   0.509   2.923   7.828 -0.4341  0.2964  0.1565
28336SOL    HW187900   0.481   2.997   7.773 -0.8265 -0.2007 -0.3273
28336SOL    HW287901   0.507   2.958   7.917 -0.0536  1.0353 -0.1190
28337SOL     OW87902   4.166   1.496   0.843  0.7446 -0.2595  0.3288
28337SOL    HW187903   4.148   1.475   0.935 -1.8030 -1.0541 -0.2675
28337SOL    HW287904   4.127   1.424   0.794 -0.1548  1.3723 -1.4775
28338SOL     OW87905   7.138   2.977   8.680 -0.1497 -0.2703  0.1483
28338SOL    HW187906   7.221   3.024   8.675 -0.0965 -0.4826 -3.2909
28338SOL    HW287907   7.161   2.891   8.716  1.7050 -1.1809 -2.8370
28339SOL     OW87908   0.434   2.078   0.776  0.4009  0.3351 -0.0506
28339SOL    HW187909   0.495   2.072   0.702  1.1856 -0.5034  0.6427
28339SOL    HW287910   0.368   2.141   0.747  0.3087 -0.4791 -1.7417
28340SOL     OW87911   9.106   2.224   4.020 -0.5258  0.3743 -0.0774
28340SOL    HW187912   9.037   2.159   4.024 -0.4523  0.3208  0.3221
28340SOL    HW287913   9.064   2.302   3.983 -0.1969 -0.4363 -2.3118
28341SOL     OW87914   5.545   1.235   3.121  0.0541 -0.6893  0.7050
28341SOL    HW187915   5.586   1.178   3.187  1.8569 -0.5202 -0.2170
28341SOL    HW287916   5.490   1.176   3.070 -0.2359 -1.0896  1.4542
28342SOL     OW87917   3.769   4.127   8.084 -0.0355 -0.0059  0.0815
28342SOL    HW187918   3.767   4.052   8.144 -0.1130  0.8655  1.1952
28342SOL    HW287919   3.774   4.203   8.141  2.1339  0.7912 -1.0447
28343SOL     OW87920   6.022   8.110   5.645  0.5194 -0.6334  0.3132
28343SOL    HW187921   5.997   8.055   5.570  1.4646  1.1042 -1.3750
28343SOL    HW287922   5.950   8.173   5.653  2.0945  1.6316 -1.7594
28344SOL     OW87923   5.543   8.978   3.583  0.1021 -0.0639  0.2789
28344SOL    HW187924   5.555   9.055   3.528  1.2892  0.7345  1.6027
28344SOL    HW287925   5.625   8.929   3.574 -1.1965 -2.0851 -1.8019
28345SOL     OW87926   1.831   8.074   4.130  0.2758 -0.5259 -0.7123
28345SOL    HW187927   1.898   8.016   4.165  0.4813  0.5575  0.8078
28345SOL    HW287928   1.777   8.096   4.206  2.6971  4.6254 -0.0583
28346SOL     OW87929   8.748   9.278   8.132 -0.6414 -0.2672  0.7624
28346SOL    HW187930   8.807   9.315   8.066 -0.2208  0.0791  1.3249
28346SOL    HW287931   8.754   9.184   8.119  0.4936 -0.2760  1.1779
28347SOL     OW87932   7.070   7.625   3.482  0.1698  0.2670  0.0820
28347SOL    HW187933   7.099   7.715   3.466  0.2923  0.5940  1.9304
28347SOL    HW287934   6.976   7.633   3.499  0.4402  0.2839  1.7144
28348SOL     OW87935   5.195   4.827   8.002  0.0716  0.0540  0.0737
28348SOL    HW187936   5.270   4.793   7.952 -0.9482 -0.1923 -1.3618
28348SOL    HW287937   5.121   4.820   7.941 -0.9944  0.9103  1.2276
28349SOL     OW87938   6.994   9.533   7.404  0.1969  0.4825 -0.4353
28349SOL    HW187939   6.942   9.614   7.403 -0.2783  0.1783 -1.0462
28349SOL    HW287940   7.059   9.547   7.473  0.1130  1.3849 -0.5269
28350SOL     OW87941   1.420   4.460   7.923  1.4716  0.2241 -0.0883
28350SOL    HW187942   1.412   4.366   7.943  1.1011  0.3113  0.1940
28350SOL    HW287943   1.496   4.489   7.974  0.7846  0.3524  0.8899
28351SOL     OW87944   3.601   9.023   0.246 -0.1617  0.5121 -0.2426
28351SOL    HW187945   3.606   9.114   0.215  0.0537  0.1388 -1.3539
28351SOL    HW287946   3.657   8.974   0.186  0.4749 -0.2297  0.9067
28352SOL     OW87947   2.094   0.668   5.802 -1.3715  0.1339 -0.4033
28352SOL    HW187948   2.123   0.742   5.749 -2.6501  0.4346 -0.7108
28352SOL    HW287949   2.034   0.619   5.745 -1.0863 -0.7500  0.0358
28353SOL     OW87950   3.812   5.662   4.152  0.2730 -0.6342  0.6558
28353SOL    HW187951   3.766   5.603   4.091  1.4726 -2.0232  1.0335
28353SOL    HW287952   3.752   5.735   4.165 -1.8976 -2.4124  1.2121
28354SOL     OW87953   7.533   5.176   2.467  0.0615 -0.6001 -0.1050
28354SOL    HW187954   7.621   5.214   2.475 -0.4565  0.7502 -0.6314
28354SOL    HW287955   7.508   5.155   2.557  0.8426 -0.8146  0.0687
28355SOL     OW87956   9.602   3.507   7.738 -0.2021  0.3833 -0.2583
28355SOL    HW187957   9.536   3.479   7.676 -2.6104  0.3182  2.1448
28355SOL    HW287958   9.564   3.583   7.781  1.5179  0.6609  0.8753
28356SOL     OW87959   0.881   0.520   9.240  0.2446 -0.8026 -0.1654
28356SOL    HW187960   0.796   0.526   9.196  0.1202 -1.4501 -0.0235
28356SOL    HW287961   0.945   0.526   9.169  0.1226  0.6897 -0.1806
28357SOL     OW87962   4.066   5.413   5.804 -0.1121 -0.5969  0.3618
28357SOL    HW187963   4.106   5.495   5.834  0.4729 -0.6337 -0.3000
28357SOL    HW287964   4.075   5.354   5.879  0.8452 -0.5234  0.3172
28358SOL     OW87965   3.847   1.272   9.426  0.3274  0.3376 -0.3485
28358SOL    HW187966   3.812   1.187   9.452  1.0518 -0.7915 -2.7032
28358SOL    HW287967   3.861   1.319   9.508 -1.2319 -1.3265  0.9670
28359SOL     OW87968   4.850   3.895   1.129 -0.2239 -0.2296 -0.5513
28359SOL    HW187969   4.822   3.834   1.198  1.7559  0.0714  0.5851
28359SOL    HW287970   4.945   3.881   1.122  0.1065  1.9183 -1.0467
28360SOL     OW87971   1.950   6.937   5.127  0.2946 -0.1276 -0.1487
28360SOL    HW187972   1.888   6.965   5.059 -1.1731 -0.3712  1.0197
28360SOL    HW287973   2.021   6.896   5.079 -1.7613 -2.3782 -1.4915
28361SOL     OW87974   1.187   5.946   7.519  0.1357  0.1619  0.4353
28361SOL    HW187975   1.204   6.035   7.548  0.9534 -0.2223  1.2078
28361SOL    HW287976   1.148   5.955   7.432  0.4503  1.2530  0.3983
28362SOL     OW87977   4.028   7.736   6.382 -0.4280  0.2152  0.5496
28362SOL    HW187978   3.963   7.786   6.332 -1.8973 -1.5850  0.5324
28362SOL    HW287979   3.980   7.659   6.412  1.6656 -1.0928  0.7284
28363SOL     OW87980   0.530   6.677   2.984 -0.7301 -0.5424  0.2629
28363SOL    HW187981   0.523   6.699   3.077  1.6943  0.8509  0.2117
28363SOL    HW287982   0.509   6.759   2.938  2.9774  0.4153 -0.1247
28364SOL     OW87983   6.109   5.799   2.349 -0.3573 -0.0963 -0.1533
28364SOL    HW187984   6.185   5.849   2.321 -0.3698 -0.2444 -0.4497
28364SOL    HW287985   6.050   5.800   2.274  0.0713 -1.4230 -0.5253
28365SOL     OW87986   1.808   2.067   8.472  0.4790  0.5784  0.3428
28365SOL    HW187987   1.768   2.092   8.389 -1.3365  1.0507  1.3082
28365SOL    HW287988   1.754   2.109   8.539  0.8938 -1.1180  1.8350
28366SOL     OW87989   2.857   7.310   1.192 -0.4547  0.2492 -0.0336
28366SOL    HW187990   2.927   7.301   1.126  0.1867  1.0233  0.5255
28366SOL    HW287991   2.849   7.404   1.205  2.4583  0.2086  4.0901
28367SOL     OW87992   9.254   6.424   1.417  0.4292 -0.1102 -0.5849
28367SOL    HW187993   9.216   6.512   1.425  0.6626  0.0894 -1.5355
28367SOL    HW287994   9.347   6.440   1.402  0.5252 -0.5348 -0.4443
28368SOL     OW87995   7.037   3.325   8.151  0.3139 -0.3733 -0.1415
28368SOL    HW187996   7.038   3.230   8.138  0.6207 -0.3077 -0.6014
28368SOL    HW287997   7.111   3.358   8.099 -0.4195  0.2246 -0.8262
28369SOL     OW87998   1.011   3.288   1.656 -0.1309 -0.6784 -0.2148
28369SOL    HW187999   0.919   3.306   1.636 -0.0297 -1.1180 -1.1203
28369SOL    HW288000   1.055   3.296   1.572  0.6464 -0.6114  0.1930
28370SOL     OW88001   4.681   0.823   3.872 -0.1982  0.5843 -0.0681
28370SOL    HW188002   4.636   0.741   3.892  3.1165 -1.7135 -1.0775
28370SOL    HW288003   4.741   0.836   3.945  0.7500  0.9458 -0.8786
28371SOL     OW88004   5.046   0.294   4.069 -0.3965  0.0783  0.5815
28371SOL    HW188005   4.977   0.316   4.007  0.9194 -1.8376 -1.7433
28371SOL    HW288006   5.001   0.248   4.140 -1.6752  0.1563 -0.1520
28372SOL     OW88007   5.178   0.892   1.590  0.5487 -0.3852 -0.0227
28372SOL    HW188008   5.259   0.925   1.629  0.0767 -0.3839  1.0093
28372SOL    HW288009   5.199   0.803   1.562  1.2337  0.0387 -0.8754
28373SOL     OW88010   6.555   8.972   4.994 -0.1740  0.4031  0.3151
28373SOL    HW188011   6.488   9.028   4.954 -0.2665 -0.2746 -0.4930
28373SOL    HW288012   6.592   8.923   4.921  0.4835  0.0042  0.9066
28374SOL     OW88013   3.879   4.613   0.143 -0.3778 -0.2668  0.4271
28374SOL    HW188014   3.817   4.545   0.118 -1.0603  1.0588 -1.7816
28374SOL    HW288015   3.965   4.576   0.122 -0.8366  0.1853 -2.7539
28375SOL     OW88016   6.077   3.853   0.371 -0.7123 -0.3160 -0.3428
28375SOL    HW188017   6.037   3.939   0.374 -1.8253 -0.8196 -0.3230
28375SOL    HW288018   6.034   3.808   0.298 -0.6472 -1.0878  0.0780
28376SOL     OW88019   5.734   9.340   7.280 -0.1936  0.1189  0.0941
28376SOL    HW188020   5.684   9.266   7.247  0.3091 -0.3197  0.2984
28376SOL    HW288021   5.788   9.367   7.206  1.9739 -1.7499  0.8719
28377SOL     OW88022   8.980   1.597   0.072 -0.2759 -0.0186  0.0152
28377SOL    HW188023   9.017   1.511   0.052  1.2109  0.9480 -1.7636
28377SOL    HW288024   8.886   1.582   0.078  0.0999 -2.1382  2.1093
28378SOL     OW88025   2.657   8.179   9.220 -0.3271  0.7734 -0.4360
28378SOL    HW188026   2.572   8.197   9.259  0.8152  2.6517  1.3524
28378SOL    HW288027   2.655   8.085   9.201 -1.4326 -0.0541  3.1197
28379SOL     OW88028   4.639   0.519   6.974 -0.6479 -0.0236  0.1058
28379SOL    HW188029   4.597   0.474   7.047  0.5552 -0.3377  0.6342
28379SOL    HW288030   4.590   0.491   6.897  0.1301 -2.3784  0.3962
28380SOL     OW88031   5.042   2.918   8.205  0.2869  0.3449  0.2845
28380SOL    HW188032   4.991   2.840   8.226  0.2485 -0.1676 -1.5416
28380SOL    HW288033   5.081   2.944   8.289  0.5640 -1.8021  0.8842
28381SOL     OW88034   9.635   1.496   2.117  0.1907 -0.4135 -0.0643
28381SOL    HW188035   9.694   1.571   2.106 -0.4855 -0.0015 -1.0985
28381SOL    HW288036   9.678   1.441   2.182 -0.2867  1.8744  2.3606
28382SOL     OW88037   2.704   3.482   1.299 -0.3503  0.0986 -0.7420
28382SOL    HW188038   2.645   3.528   1.360 -1.6306 -1.5968 -0.6377
28382SOL    HW288039   2.667   3.394   1.291  0.6400 -0.1881 -2.8404
28383SOL     OW88040   3.126   5.692   8.454  0.1953  0.1387  0.4386
28383SOL    HW188041   3.101   5.775   8.493  0.3590  0.0502  0.7291
28383SOL    HW288042   3.112   5.705   8.360 -1.4508 -0.0695  0.6286
28384SOL     OW88043   2.872   2.488   4.097 -0.0287 -0.4100 -0.1409
28384SOL    HW188044   2.903   2.456   4.012 -2.4863 -1.9688 -0.5463
28384SOL    HW288045   2.875   2.584   4.088  1.0548 -0.5314 -1.4570
28385SOL     OW88046   9.561   4.300   5.224  0.1181  0.0482 -0.1588
28385SOL    HW188047   9.500   4.227   5.234 -1.7603  1.4446 -0.8912
28385SOL    HW288048   9.581   4.327   5.313 -0.9354 -0.0001  0.1106
28386SOL     OW88049   2.666   1.228   9.162 -0.2062  0.1247  0.0524
28386SOL    HW188050   2.698   1.247   9.250 -0.1596 -1.6489  0.4419
28386SOL    HW288051   2.628   1.140   9.168 -0.5705  0.1391 -1.6020
28387SOL     OW88052   5.861   2.796   4.198  0.1865 -0.2711  0.6148
28387SOL    HW188053   5.794   2.819   4.262  0.5176 -0.1692  0.9265
28387SOL    HW288054   5.926   2.746   4.247  0.4873 -0.1158  0.3815
28388SOL     OW88055   3.659   9.617   4.793  0.4108 -0.1433  0.0770
28388SOL    HW188056   3.580   9.662   4.764  1.3259  2.1013  0.8109
28388SOL    HW288057   3.702   9.589   4.712  0.2594  1.1937 -0.4920
28389SOL     OW88058   3.923   6.400   1.982  0.4533  0.0380 -0.0046
28389SOL    HW188059   3.916   6.484   2.028  1.0506 -0.0230  0.2087
28389SOL    HW288060   4.017   6.381   1.982  0.6610  0.6652 -2.3979
28390SOL     OW88061   9.488   4.777   2.760 -0.2200 -0.4965  0.3082
28390SOL    HW188062   9.549   4.842   2.794  0.6840 -2.7332  3.4638
28390SOL    HW288063   9.504   4.776   2.665  1.4068  2.0901  0.4504
28391SOL     OW88064   7.186   0.884   4.743  0.2287 -0.0376  0.5289
28391SOL    HW188065   7.262   0.867   4.798  0.8007 -0.3416 -0.3306
28391SOL    HW288066   7.111   0.863   4.799  0.8256 -2.2774  0.5947
28392SOL     OW88067   5.047   8.594   4.342 -0.1362  0.1074 -0.1544
28392SOL    HW188068   5.010   8.626   4.260  1.8875  1.6673 -0.5368
28392SOL    HW288069   5.034   8.665   4.404  0.6909  0.0162  0.1418
28393SOL     OW88070   6.644   8.193   2.540  0.1277 -0.1142 -0.0201
28393SOL    HW188071   6.573   8.243   2.499 -0.4877  0.5177  1.7207
28393SOL    HW288072   6.609   8.105   2.551 -0.1767  0.0399  0.2675
28394SOL     OW88073   7.386   2.937   7.766  0.6732 -0.0059 -0.5553
28394SOL    HW188074   7.452   2.884   7.811  0.8483 -0.9194 -1.8242
28394SOL    HW288075   7.321   2.957   7.833  1.1068 -1.0031  0.1873
28395SOL     OW88076   0.109   0.132   1.697 -0.0519  0.7841 -0.0386
28395SOL    HW188077   0.135   0.068   1.764  2.7019  2.9937  1.2711
28395SOL    HW288078   0.116   0.085   1.614  1.3122 -0.7825  0.9010
28396SOL     OW88079   5.351   4.565   1.506 -0.4182 -0.4505  0.2588
28396SOL    HW188080   5.417   4.574   1.575 -0.8654  0.8757  0.5514
28396SOL    HW288081   5.312   4.652   1.500 -1.5015 -0.9792 -0.5580
28397SOL     OW88082   5.840   8.374   4.889  0.0164 -0.1294  0.2531
28397SOL    HW188083   5.927   8.411   4.874 -0.5776  1.1075 -0.2677
28397SOL    HW288084   5.786   8.411   4.819 -0.9863 -0.7030  0.7066
28398SOL     OW88085   3.791   3.160   6.676 -0.2398  0.5182 -0.1051
28398SOL    HW188086   3.851   3.148   6.602  0.8022  1.3640  0.5617
28398SOL    HW288087   3.846   3.148   6.754 -1.3698 -0.6310  0.5537
28399SOL     OW88088   7.741   2.962   9.224  0.7126  0.1146 -0.5147
28399SOL    HW188089   7.781   2.884   9.187  0.3376 -0.3106 -0.0295
28399SOL    HW288090   7.679   2.992   9.158 -1.4503 -1.7850  0.5076
28400SOL     OW88091   4.989   0.414   3.630 -0.6209 -0.1139 -0.3702
28400SOL    HW188092   4.940   0.425   3.712 -1.7940 -0.3667 -1.0210
28400SOL    HW288093   4.923   0.393   3.565  0.5376 -2.1341 -0.9694
28401SOL     OW88094   7.318   4.044   3.375 -0.2384 -0.3872  0.2947
28401SOL    HW188095   7.253   4.074   3.311 -0.0422  2.6764  1.3536
28401SOL    HW288096   7.292   4.086   3.457  0.9167 -2.2328  1.6836
28402SOL     OW88097   0.789   9.061   3.323 -0.0695 -0.4863  0.3274
28402SOL    HW188098   0.716   9.009   3.356  0.2750 -1.5004 -0.4680
28402SOL    HW288099   0.820   9.013   3.246  1.0332  0.2658  0.2803
28403SOL     OW88100   0.581   4.484   1.576 -0.1578  0.3252  0.5217
28403SOL    HW188101   0.588   4.504   1.483  1.9082 -0.2692  0.5032
28403SOL    HW288102   0.495   4.442   1.586  0.4485 -1.5524 -1.4948
28404SOL     OW88103   2.549   8.862   3.051 -0.0401  0.9161  0.1500
28404SOL    HW188104   2.477   8.815   3.092 -0.3000  0.3989 -0.8751
28404SOL    HW288105   2.627   8.814   3.076  0.0228  1.7230  1.6200
28405SOL     OW88106   7.255   9.470   1.746 -0.1318 -1.0149  0.2790
28405SOL    HW188107   7.247   9.375   1.748  1.1402 -1.1419  0.6945
28405SOL    HW288108   7.294   9.492   1.831  0.3615 -0.2125 -0.1403
28406SOL     OW88109   5.445   2.749   8.908  0.2312 -0.3568  0.1270
28406SOL    HW188110   5.410   2.670   8.867  2.1915 -1.6362  0.7526
28406SOL    HW288111   5.483   2.799   8.836 -1.0386  0.0718 -0.2746
28407SOL     OW88112   4.220   5.567   1.182 -0.3002 -0.5716 -0.1642
28407SOL    HW188113   4.160   5.586   1.254 -0.2966 -1.4911  0.0957
28407SOL    HW288114   4.196   5.479   1.153 -0.8137  0.0812 -1.8146
28408SOL     OW88115   6.866   6.528   3.004 -0.2012 -0.4564  0.4561
28408SOL    HW188116   6.885   6.470   2.929  0.7408 -0.8423  0.9758
28408SOL    HW288117   6.784   6.571   2.980 -0.8690 -1.9154 -0.0026
28409SOL     OW88118   0.304   0.819   2.510  0.3834  0.0155  0.0028
28409SOL    HW188119   0.238   0.888   2.508  0.2702 -0.1018 -0.2506
28409SOL    HW288120   0.259   0.743   2.546  0.0229 -0.4403 -1.3501
28410SOL     OW88121   2.857   3.887   0.464  0.0370  0.4439 -0.0503
28410SOL    HW188122   2.911   3.965   0.469  0.4613  0.0961  0.9062
28410SOL    HW288123   2.788   3.900   0.528 -2.0142  1.5879 -2.3293
28411SOL     OW88124   9.423   5.357   8.204  0.0804  0.1379  0.4528
28411SOL    HW188125   9.448   5.411   8.280  0.1354  0.1066  0.4575
28411SOL    HW288126   9.354   5.407   8.161 -1.3771 -0.7656  1.6332
28412SOL     OW88127   2.529   0.656   0.819  0.4079  0.1048  0.1296
28412SOL    HW188128   2.493   0.731   0.864 -0.9692 -1.1611  1.2418
28412SOL    HW288129   2.574   0.606   0.887  1.5532  0.0283 -0.6396
28413SOL     OW88130   9.119   6.501   4.791  0.0803  0.0221 -0.2248
28413SOL    HW188131   9.133   6.558   4.715 -0.6500 -0.4261 -0.7080
28413SOL    HW288132   9.115   6.413   4.754 -0.2350 -0.2071  0.3452
28414SOL     OW88133   4.098   2.384   1.875  0.0109 -0.0878  0.3997
28414SOL    HW188134   4.133   2.402   1.962  2.1256  0.6870 -0.5299
28414SOL    HW288135   4.112   2.465   1.826 -0.6546 -0.6629 -0.7981
28415SOL     OW88136   0.770   3.015   1.332  0.0205 -0.4117 -0.3532
28415SOL    HW188137   0.771   3.099   1.286  0.2901 -1.3355 -2.1548
28415SOL    HW288138   0.694   3.020   1.390  0.6611  1.4613  0.3971
28416SOL     OW88139   7.096   6.012   4.175 -0.1534  0.0199  0.2006
28416SOL    HW188140   7.150   6.062   4.236 -0.3208 -0.2732  0.5959
28416SOL    HW288141   7.065   5.937   4.226 -0.0810 -0.3722 -0.3193
28417SOL     OW88142   1.930   3.694   3.683 -0.3962 -0.5642 -0.0649
28417SOL    HW188143   1.958   3.643   3.607  1.2662  0.5013 -0.2320
28417SOL    HW288144   1.874   3.762   3.647 -0.4120 -0.6585 -0.2173
28418SOL     OW88145   6.459   2.397   4.821 -0.5970 -0.3555 -0.8682
28418SOL    HW188146   6.554   2.383   4.818 -0.5773 -0.1736 -1.1784
28418SOL    HW288147   6.450   2.491   4.836 -0.7055 -0.8556  3.4097
28419SOL     OW88148   9.311   3.248   0.429 -0.1425 -0.4843 -0.2009
28419SOL    HW188149   9.399   3.222   0.457 -1.0721 -1.3870  2.2124
28419SOL    HW288150   9.266   3.165   0.412 -0.8338 -0.0865 -0.3493
28420SOL     OW88151   7.762   4.271   4.608  0.1651 -0.8314  0.0553
28420SOL    HW188152   7.772   4.341   4.543 -1.8499 -1.1434 -0.6525
28420SOL    HW288153   7.745   4.317   4.690  1.8667 -0.4574  0.2385
28421SOL     OW88154   0.388   6.907   6.761 -0.6508 -0.3660  0.4289
28421SOL    HW188155   0.364   6.814   6.764 -0.5841 -0.4427 -0.9311
28421SOL    HW288156   0.393   6.933   6.853  0.4083 -1.9800  0.8769
28422SOL     OW88157   1.701   3.989   7.384 -0.1962  0.0679  0.4387
28422SOL    HW188158   1.673   4.075   7.414 -1.2565 -0.1708  0.1844
28422SOL    HW288159   1.685   3.931   7.459  0.0808  0.0075  0.4538
28423SOL     OW88160   3.355   7.100   8.583 -0.0872  0.2796 -0.1568
28423SOL    HW188161   3.424   7.049   8.626  0.7541  1.3442 -0.1933
28423SOL    HW288162   3.303   7.136   8.655 -1.0786 -1.0966 -0.1377
28424SOL     OW88163   2.332   1.761   4.357  0.1415  0.1355 -0.3106
28424SOL    HW188164   2.257   1.714   4.319 -0.9116  0.7110  0.9891
28424SOL    HW288165   2.330   1.739   4.450 -0.7092  3.0729  0.4710
28425SOL     OW88166   2.137   5.579   0.763 -0.8043 -0.5311  0.0885
28425SOL    HW188167   2.205   5.645   0.749 -0.7784 -0.2098  1.6075
28425SOL    HW288168   2.184   5.496   0.765 -0.4367 -0.3110  1.1243
28426SOL     OW88169   5.447   6.029   4.230 -0.5790  0.0490  0.4649
28426SOL    HW188170   5.486   6.107   4.190 -0.6546 -1.2039 -2.2715
28426SOL    HW288171   5.368   6.012   4.178 -0.9255 -1.4691  1.4190
28427SOL     OW88172   7.973   0.151   3.340 -0.0179 -0.2635 -0.0460
28427SOL    HW188173   7.985   0.244   3.356  0.9476 -0.4354  0.2977
28427SOL    HW288174   8.052   0.123   3.293 -0.2273 -0.9345 -0.0190
28428SOL     OW88175   3.374   3.787   1.041  0.4073  0.2007  0.4827
28428SOL    HW188176   3.396   3.696   1.022  0.0012  0.4168 -1.1843
28428SOL    HW288177   3.457   3.834   1.036  0.3871  0.1626 -0.2799
28429SOL     OW88178   6.538   0.097   1.931  0.2948 -0.3785  0.2029
28429SOL    HW188179   6.588   0.165   1.976  1.2896 -0.0372 -1.3528
28429SOL    HW288180   6.469   0.145   1.885 -0.3932 -0.6747  0.8976
28430SOL     OW88181   0.277   9.605   2.450 -0.7001 -0.0772  0.1631
28430SOL    HW188182   0.275   9.642   2.538  1.2434 -0.2805  0.3270
28430SOL    HW288183   0.370   9.599   2.428 -1.0605 -1.9522 -1.0910
28431SOL     OW88184   4.846   6.245   9.543 -0.4721 -0.3089 -0.0609
28431SOL    HW188185   4.853   6.285   9.629  0.4441 -0.8358  0.1232
28431SOL    HW288186   4.753   6.220   9.536 -0.6412  0.0985  0.5929
28432SOL     OW88187   0.244   4.351   4.709  0.2158 -0.5687  0.1744
28432SOL    HW188188   0.162   4.380   4.671 -0.0706 -2.0507 -0.4209
28432SOL    HW288189   0.221   4.273   4.759  0.8430  0.4997  2.2161
28433SOL     OW88190   3.580   5.107   0.804 -0.1569 -0.0854  0.3806
28433SOL    HW188191   3.571   5.182   0.745  0.4374 -0.4717 -0.2195
28433SOL    HW288192   3.656   5.128   0.858  0.2952 -0.4491 -0.1015
28434SOL     OW88193   2.966   7.502   0.608  0.6017 -0.3837  0.4433
28434SOL    HW188194   2.940   7.413   0.584  0.3364 -0.1409 -0.1920
28434SOL    HW288195   2.896   7.534   0.664  0.5752 -0.4852  0.4671
28435SOL     OW88196   9.252   4.677   0.884 -0.2318 -0.0597  0.1987
28435SOL    HW188197   9.340   4.664   0.918 -0.0331  0.3927 -0.1274
28435SOL    HW288198   9.195   4.639   0.950  0.1625  0.3948  0.8179
28436SOL     OW88199   2.168   3.592   9.501  0.1856 -0.3238  0.2074
28436SOL    HW188200   2.196   3.623   9.587 -0.0352 -0.2928  0.2683
28436SOL    HW288201   2.088   3.542   9.517 -0.3785  0.4596 -0.0851
28437SOL     OW88202   5.001   3.191   6.576 -0.4585  0.5273  0.1427
28437SOL    HW188203   4.936   3.233   6.519  1.1436  0.7298 -1.6088
28437SOL    HW288204   5.063   3.261   6.597 -1.4961  0.7347  3.0456
28438SOL     OW88205   1.556   2.375   0.641 -0.0148  0.4481  0.1071
28438SOL    HW188206   1.645   2.346   0.661  0.3512  2.1901  1.2645
28438SOL    HW288207   1.514   2.299   0.600  1.2827 -1.1864  1.6573
28439SOL     OW88208   7.832   0.149   5.371  0.2280  0.7585  0.2884
28439SOL    HW188209   7.852   0.119   5.459  1.1958 -0.8828 -0.4467
28439SOL    HW288210   7.739   0.171   5.374 -0.0113 -0.2853  1.4556
28440SOL     OW88211   3.949   2.506   0.103  0.4299 -0.4056  0.2863
28440SOL    HW188212   4.042   2.531   0.098  0.3253 -0.2538 -2.8363
28440SOL    HW288213   3.921   2.501   0.011 -2.3712 -1.5883  1.1161
28441SOL     OW88214   8.957   5.031   3.636 -0.3280  0.6643  0.3271
28441SOL    HW188215   9.042   5.042   3.679 -0.5846  0.9424  0.7805
28441SOL    HW288216   8.973   4.967   3.567  0.2688  0.7784  0.3526
28442SOL     OW88217   0.275   6.650   0.352  0.4050 -0.2626  0.3845
28442SOL    HW188218   0.190   6.607   0.346  1.0843 -1.5941 -0.2753
28442SOL    HW288219   0.328   6.592   0.407  0.5364  1.2028  1.8826
28443SOL     OW88220   3.814   5.569   7.914 -0.2588 -0.3534  0.1943
28443SOL    HW188221   3.862   5.627   7.974  0.0046 -1.3270  0.9521
28443SOL    HW288222   3.880   5.507   7.883 -0.4842 -0.1198 -0.7991
28444SOL     OW88223   6.806   2.531   1.623  0.1109 -0.0374  0.5600
28444SOL    HW188224   6.740   2.475   1.664  1.3103  0.0425  2.7441
28444SOL    HW288225   6.872   2.471   1.590  1.0455 -0.0133  2.2714
28445SOL     OW88226   5.825   1.684   0.198  0.1012  0.3185 -0.0930
28445SOL    HW188227   5.916   1.713   0.207 -0.1958  2.0499 -1.9037
28445SOL    HW288228   5.830   1.606   0.142  0.4568  0.8468 -0.8233
28446SOL     OW88229   2.284   5.573   1.289 -0.1699 -0.9026 -0.3732
28446SOL    HW188230   2.225   5.564   1.364  0.3368  0.2513  0.1893
28446SOL    HW288231   2.278   5.489   1.244 -1.7418 -1.0360  0.0275
28447SOL     OW88232   4.502   6.463   4.028 -0.2472  0.4688  0.3075
28447SOL    HW188233   4.476   6.461   3.936  1.1072 -1.4808 -0.0730
28447SOL    HW288234   4.481   6.553   4.056 -1.6313  0.8110 -1.5844
28448SOL     OW88235   8.125   8.271   5.663  0.3091  0.0100  0.0981
28448SOL    HW188236   8.040   8.268   5.620  1.5751 -2.0807 -2.5737
28448SOL    HW288237   8.176   8.334   5.613  1.0341 -0.5291  0.1329
28449SOL     OW88238   7.441   8.283   7.721  0.2507  0.0006 -0.0903
28449SOL    HW188239   7.436   8.189   7.704 -1.2128  0.1992 -0.9226
28449SOL    HW288240   7.501   8.316   7.654  1.1321 -0.3869  0.4919
28450SOL     OW88241   8.188   1.244   1.592 -0.2741  0.4922 -0.2266
28450SOL    HW188242   8.218   1.335   1.587  0.0388  0.5440  1.5941
28450SOL    HW288243   8.215   1.205   1.509  1.5669  1.5108 -0.1645
28451SOL     OW88244   2.619   6.768   5.310 -0.7233  0.1113  0.3708
28451SOL    HW188245   2.616   6.680   5.273 -2.2187 -0.6533  2.1480
28451SOL    HW288246   2.674   6.760   5.388  1.5627  1.4636 -0.9984
28452SOL     OW88247   7.801   8.001   7.564 -0.1516  0.2294 -0.2997
28452SOL    HW188248   7.771   8.085   7.599  0.0497 -0.6983  2.3306
28452SOL    HW288249   7.755   7.993   7.481 -1.4211  2.2198  0.1149
28453SOL     OW88250   2.232   1.482   0.575  0.6945  0.1574 -0.2457
28453SOL    HW188251   2.192   1.538   0.640  0.8721 -0.1863  0.1662
28453SOL    HW288252   2.167   1.474   0.505 -0.4355 -1.3124  0.9128
28454SOL     OW88253   6.234   2.494   1.928  0.0862  0.3331  0.4783
28454SOL    HW188254   6.209   2.428   1.993  1.4738  0.2308  0.9345
28454SOL    HW288255   6.186   2.573   1.954  0.8054  0.3672  1.7900
28455SOL     OW88256   3.932   8.584   1.011 -0.3184 -0.0656  0.1707
28455SOL    HW188257   3.895   8.648   1.072 -1.2413 -0.5612  0.1609
28455SOL    HW288258   4.019   8.564   1.046 -0.6835 -0.0529  1.1104
28456SOL     OW88259   9.530   6.062   1.868  0.8605 -0.1199  0.5416
28456SOL    HW188260   9.543   6.045   1.775  0.9403  1.0509  0.3198
28456SOL    HW288261   9.439   6.038   1.885  0.7774 -0.1181  0.1011
28457SOL     OW88262   5.049   7.095   6.668  0.2515  0.5250  0.1579
28457SOL    HW188263   5.002   7.158   6.722  1.1747  1.5188 -0.1558
28457SOL    HW288264   5.027   7.119   6.578  2.1356  1.6966 -0.0398
28458SOL     OW88265   7.350   3.207   3.275  0.0111  0.2901 -0.2054
28458SOL    HW188266   7.282   3.200   3.207 -1.1950  1.1795  0.8524
28458SOL    HW288267   7.306   3.252   3.347  0.5067 -2.6214  2.1154
28459SOL     OW88268   6.959   1.914   0.178 -0.0114  0.2919 -0.1602
28459SOL    HW188269   6.867   1.897   0.156 -0.5037  2.4925 -0.0898
28459SOL    HW288270   6.986   1.839   0.231 -1.5489 -0.7136 -0.7224
28460SOL     OW88271   9.310   8.946   6.091  0.0450  0.5629 -0.2022
28460SOL    HW188272   9.312   8.856   6.057 -0.8223  0.5928 -0.3717
28460SOL    HW288273   9.262   8.995   6.024 -1.2923  0.7251  0.8229
28461SOL     OW88274   7.214   6.113   5.713  0.2060  0.4958 -0.2364
28461SOL    HW188275   7.270   6.161   5.652  1.5475  0.6819  1.0842
28461SOL    HW288276   7.249   6.024   5.712  0.8075  0.7060  0.8985
28462SOL     OW88277   5.839   6.153   1.272  0.5374  0.3923 -0.5489
28462SOL    HW188278   5.799   6.201   1.199 -0.1692  0.3619 -0.1937
28462SOL    HW288279   5.841   6.062   1.243 -0.0919  0.3231 -0.3884
28463SOL     OW88280   6.659   9.030   0.575  0.2836 -0.4213 -0.4287
28463SOL    HW188281   6.725   9.098   0.588 -0.3294  0.0389  0.3289
28463SOL    HW288282   6.667   9.007   0.482  1.7815 -0.6733 -0.2617
28464SOL     OW88283   2.377   3.728   4.230 -0.1688 -0.0817  0.3252
28464SOL    HW188284   2.409   3.766   4.312  0.9872 -0.1833 -0.0520
28464SOL    HW288285   2.292   3.691   4.252  0.2204 -0.3147  1.5359
28465SOL     OW88286   7.322   8.021   7.749  0.2480  0.0491 -0.3012
28465SOL    HW188287   7.229   8.003   7.735  0.2986  0.3135 -1.0533
28465SOL    HW288288   7.363   8.001   7.664  0.8304  0.2028 -0.0582
28466SOL     OW88289   3.369   6.022   7.793 -0.4827 -0.6571  0.0073
28466SOL    HW188290   3.341   6.108   7.764  1.1594 -0.4053 -0.9378
28466SOL    HW288291   3.456   6.010   7.754  0.8366 -1.3164  2.8349
28467SOL     OW88292   9.205   8.523   8.837 -0.0355  0.0323  0.0658
28467SOL    HW188293   9.193   8.497   8.746 -0.4303 -0.4987  0.2651
28467SOL    HW288294   9.166   8.452   8.888  1.0167 -0.1276  0.6675
28468SOL     OW88295   3.881   5.543   6.873  0.9725 -0.1524 -0.5450
28468SOL    HW188296   3.967   5.522   6.839  1.6210  2.3456 -0.6020
28468SOL    HW288297   3.820   5.505   6.810  2.0442 -0.3771 -1.4669
28469SOL     OW88298   2.301   1.731   9.041  0.4043 -0.4063 -0.4388
28469SOL    HW188299   2.395   1.743   9.051  0.2118  0.8849  0.1157
28469SOL    HW288300   2.272   1.695   9.124  0.2189  0.6366 -0.0327
28470SOL     OW88301   8.350   1.688   4.954 -0.0540 -0.1127 -0.3214
28470SOL    HW188302   8.257   1.677   4.975  0.6781 -3.1283  2.0577
28470SOL    HW288303   8.379   1.759   5.011 -0.3772 -0.9534  0.9199
28471SOL     OW88304   6.970   2.430   0.020 -0.3920 -0.1265  0.2763
28471SOL    HW188305   7.002   2.344   0.050  0.5752  0.8166  2.1263
28471SOL    HW288306   6.875   2.420   0.015 -0.2814 -1.3679  0.1942
28472SOL     OW88307   9.165   2.954   2.590 -0.4846  0.1382 -0.1309
28472SOL    HW188308   9.177   3.032   2.537 -0.1566  0.2335  0.0797
28472SOL    HW288309   9.242   2.951   2.646  0.6722 -1.5605 -1.6844
28473SOL     OW88310   5.265   3.399   3.491 -0.4424 -0.0420 -1.1442
28473SOL    HW188311   5.251   3.493   3.497 -0.4063 -0.0850 -0.1694
28473SOL    HW288312   5.266   3.369   3.582  1.9754 -0.6356 -1.2973
28474SOL     OW88313   7.690   2.163   6.085  0.1220 -0.6711  0.1635
28474SOL    HW188314   7.760   2.099   6.095 -0.0326 -1.1582 -1.5270
28474SOL    HW288315   7.629   2.143   6.157  0.1508 -2.3549 -0.2318
28475SOL     OW88316   3.863   5.792   4.471 -0.0242  0.4445  0.3025
28475SOL    HW188317   3.947   5.833   4.452 -0.8983  1.2387 -2.1903
28475SOL    HW288318   3.842   5.740   4.393 -0.9521 -1.3909  1.6670
28476SOL     OW88319   6.240   2.098   2.270 -0.4179  0.1052  0.3550
28476SOL    HW188320   6.314   2.042   2.250 -0.0709  1.1364 -1.4163
28476SOL    HW288321   6.172   2.038   2.302  1.4872 -0.7473  3.2293
28477SOL     OW88322   0.101   2.926   5.411 -0.2572 -0.4765 -0.4817
28477SOL    HW188323   0.049   2.954   5.486  1.6412  2.0699  0.0507
28477SOL    HW288324   0.112   2.832   5.423  0.7321 -0.0679  3.0270
28478SOL     OW88325   7.433   5.872   4.363 -0.4340  0.0883  0.0001
28478SOL    HW188326   7.379   5.843   4.437 -1.1733  1.6170  0.1138
28478SOL    HW288327   7.523   5.855   4.390 -0.7343 -0.0360  0.9655
28479SOL     OW88328   7.891   4.988   6.254  0.1937 -0.8339 -0.1903
28479SOL    HW188329   7.875   4.903   6.212  2.2381 -0.8118 -1.1229
28479SOL    HW288330   7.929   4.966   6.339  2.8320 -0.9512 -1.3020
28480SOL     OW88331   7.453   2.551   7.130  0.2415  0.0172 -0.3678
28480SOL    HW188332   7.411   2.539   7.216  0.6432 -0.8520 -0.2812
28480SOL    HW288333   7.380   2.560   7.069 -0.1363 -1.8880 -0.2769
28481SOL     OW88334   6.142   2.543   9.239 -0.3515 -0.4703  0.1936
28481SOL    HW188335   6.064   2.571   9.192 -0.9726 -1.1087  0.8139
28481SOL    HW288336   6.109   2.514   9.324  0.4758 -1.4442  0.1924
28482SOL     OW88337   1.022   6.951   1.530 -0.6182 -0.5489  1.1561
28482SOL    HW188338   1.026   7.004   1.450  1.2948 -1.5903  0.5154
28482SOL    HW288339   1.109   6.912   1.538 -1.3931 -2.1007  2.6491
28483SOL     OW88340   5.451   3.587   2.844 -0.1722  0.4367 -0.7767
28483SOL    HW188341   5.499   3.540   2.776 -1.7814 -1.1314 -0.8938
28483SOL    HW288342   5.415   3.664   2.800 -0.5540 -0.1524 -1.5124
28484SOL     OW88343   6.754   6.234   4.808  0.5842 -0.2253 -0.6882
28484SOL    HW188344   6.838   6.220   4.851 -0.1798 -0.2368  0.9014
28484SOL    HW288345   6.711   6.148   4.813 -0.6187  0.4069  1.1316
28485SOL     OW88346   6.985   2.863   0.532  0.1717  0.2450  0.4922
28485SOL    HW188347   6.912   2.907   0.577 -0.3322  0.0279 -0.1093
28485SOL    HW288348   6.993   2.780   0.578  2.3743  1.6389  2.9265
28486SOL     OW88349   1.475   2.240   7.650  0.1939  0.1628  0.0691
28486SOL    HW188350   1.570   2.234   7.638 -0.0079 -0.2099 -1.5844
28486SOL    HW288351   1.439   2.230   7.562 -1.2883  2.4718  0.3269
28487SOL     OW88352   6.233   5.241   1.810  0.7092 -0.0323  0.9672
28487SOL    HW188353   6.256   5.328   1.776  0.9046  0.2288  1.7506
28487SOL    HW288354   6.231   5.252   1.905 -1.1782 -0.4068  1.0224
28488SOL     OW88355   1.216   2.557   8.331  0.0729 -0.6188  0.5438
28488SOL    HW188356   1.238   2.482   8.277  0.6110  0.0402 -0.1894
28488SOL    HW288357   1.236   2.633   8.275 -3.2808  0.0882  0.0979
28489SOL     OW88358   8.738   1.060   1.267  0.0265 -0.1510  0.3961
28489SOL    HW188359   8.768   1.138   1.220  0.1832 -0.1642  0.4733
28489SOL    HW288360   8.655   1.038   1.225  0.5190 -0.5918 -0.3721
28490SOL     OW88361   5.264   4.620   2.242  0.0343 -0.2119 -0.5063
28490SOL    HW188362   5.210   4.667   2.306  1.2462  1.2133 -0.4784
28490SOL    HW288363   5.217   4.629   2.159 -2.0556 -2.8992  0.2448
28491SOL     OW88364   6.942   7.834   2.070  0.1643  0.0714 -0.1968
28491SOL    HW188365   6.958   7.864   1.981  1.7834 -1.3417 -0.4341
28491SOL    HW288366   6.848   7.818   2.074 -0.0307  0.7917 -1.4293
28492SOL     OW88367   9.468   5.952   4.791  0.3699  0.2815  0.4310
28492SOL    HW188368   9.447   5.888   4.860 -2.1197 -1.9135 -2.1112
28492SOL    HW288369   9.460   6.037   4.834 -1.5042 -0.9518  2.7505
28493SOL     OW88370   6.485   2.032   4.848 -0.4934 -0.2482  0.6678
28493SOL    HW188371   6.438   1.953   4.821 -1.0913 -0.3426  1.9287
28493SOL    HW288372   6.455   2.049   4.937  0.9233  0.4212  1.0540
28494SOL     OW88373   0.791   3.536   4.440  0.6553 -0.0894  0.2168
28494SOL    HW188374   0.819   3.582   4.519  1.3797  1.5342 -0.9185
28494SOL    HW288375   0.859   3.471   4.425  0.5277 -0.3887  0.9006
28495SOL     OW88376   2.581   8.632   1.124  0.1410  0.5122 -0.0658
28495SOL    HW188377   2.533   8.550   1.128 -0.6220  0.9313 -0.4836
28495SOL    HW288378   2.534   8.690   1.185  0.6991  0.6325  0.2597
28496SOL     OW88379   3.446   1.316   6.692 -0.1185 -0.5194  0.1666
28496SOL    HW188380   3.426   1.314   6.598 -0.1009 -0.2217  0.1567
28496SOL    HW288381   3.462   1.408   6.712 -0.2529 -0.5647  0.4913
28497SOL     OW88382   7.504   4.187   2.581  0.2552  0.0117 -0.6299
28497SOL    HW188383   7.586   4.166   2.626 -0.4356  0.4627  0.8983
28497SOL    HW288384   7.464   4.254   2.636  0.7530  2.8777 -3.4690
28498SOL     OW88385   1.956   6.899   5.618  0.2889  0.1500  0.3231
28498SOL    HW188386   1.960   6.821   5.675 -0.4747 -1.7958 -2.1123
28498SOL    HW288387   1.864   6.925   5.620  0.2715  0.1127  0.0282
28499SOL     OW88388   0.163   9.424   3.106 -0.7659  0.0307  0.0548
28499SOL    HW188389   0.254   9.395   3.093 -1.4520 -2.0837 -0.3421
28499SOL    HW288390   0.161   9.455   3.197  0.1463 -0.7388  0.3594
28500SOL     OW88391   7.807   7.446   5.081  0.3997 -0.3284 -0.3543
28500SOL    HW188392   7.736   7.486   5.032  0.8817  0.6128 -0.2969
28500SOL    HW288393   7.771   7.363   5.113 -0.6174  0.0723 -0.4465
28501SOL     OW88394   3.878   5.502   3.057 -0.4992 -0.4821  0.0815
28501SOL    HW188395   3.815   5.434   3.081 -0.7087  0.4633  2.4999
28501SOL    HW288396   3.960   5.455   3.041 -0.8412 -1.3840  0.9190
28502SOL     OW88397   3.164   9.610   1.347  0.3957 -0.1163  0.9632
28502SOL    HW188398   3.132   9.525   1.317  0.6229  0.2013 -0.2252
28502SOL    HW288399   3.147   9.670   1.274  0.7839  0.7392  1.5500
28503SOL     OW88400   4.276   3.820   3.727  0.1223  0.1961 -0.1741
28503SOL    HW188401   4.317   3.877   3.661  1.0534 -1.4278 -1.0631
28503SOL    HW288402   4.217   3.764   3.676  1.1690 -1.3710  0.2695
28504SOL     OW88403   1.919   2.658   8.656 -0.1204  0.0024  0.5097
28504SOL    HW188404   1.827   2.634   8.670  0.4922 -2.4888  0.7675
28504SOL    HW288405   1.935   2.727   8.720 -1.9760  1.0195 -0.0367
28505SOL     OW88406   8.008   1.767   4.623  0.5817  0.5879  0.5784
28505SOL    HW188407   8.068   1.841   4.633 -0.9636  2.1106 -0.8254
28505SOL    HW288408   8.033   1.727   4.539 -0.1856  1.0658  0.1190
28506SOL     OW88409   0.610   2.978   6.732  0.5270 -0.0645  0.4749
28506SOL    HW188410   0.582   3.057   6.686 -0.1906  0.1225  1.2135
28506SOL    HW288411   0.594   2.997   6.824 -2.1921 -1.9879  0.5236
28507SOL     OW88412   2.123   4.596   0.049  0.1319 -0.2013  0.1031
28507SOL    HW188413   2.038   4.639   0.046 -0.5255 -1.4929 -1.2177
28507SOL    HW288414   2.120   4.542   0.128 -0.2874 -0.2481  0.0579
28508SOL     OW88415   6.780   0.654   4.299 -0.2242  0.1705 -0.1871
28508SOL    HW188416   6.730   0.732   4.323  0.6290  0.6361  0.1369
28508SOL    HW288417   6.853   0.688   4.247 -0.2553 -0.4992 -0.6914
28509SOL     OW88418   4.894   5.775   1.241  0.6670  0.5748 -0.0687
28509SOL    HW188419   4.810   5.730   1.226  1.6741 -1.0759 -1.1480
28509SOL    HW288420   4.897   5.843   1.175  0.2197  0.5750 -0.0938
28510SOL     OW88421   6.456   2.518   6.600 -0.1091  0.3470  0.1770
28510SOL    HW188422   6.399   2.555   6.668  1.2836 -1.2499  2.3534
28510SOL    HW288423   6.398   2.467   6.544 -1.1636  0.8695  0.7785
28511SOL     OW88424   2.565   1.775   9.110 -0.1854  0.7639 -0.1584
28511SOL    HW188425   2.572   1.682   9.132 -0.4176  0.8945  0.5063
28511SOL    HW288426   2.646   1.795   9.065  0.0237  0.3191  0.0074
28512SOL     OW88427   9.482   1.932   1.582 -0.0144  0.0018  0.1491
28512SOL    HW188428   9.552   1.997   1.594  0.4267 -0.7453  2.1114
28512SOL    HW288429   9.498   1.896   1.495  1.5278  0.4641  0.2029
28513SOL     OW88430   7.130   6.869   0.756 -0.1084  0.0170  0.4946
28513SOL    HW188431   7.097   6.854   0.667  0.0763 -1.3749  0.6301
28513SOL    HW288432   7.208   6.813   0.761 -0.3281 -0.1986  1.6514
28514SOL     OW88433   2.483   7.498   1.579 -0.2511  0.2938 -0.1110
28514SOL    HW188434   2.564   7.520   1.625  1.1565 -0.6905 -2.0093
28514SOL    HW288435   2.474   7.566   1.513 -1.2198  0.6220  0.3460
28515SOL     OW88436   3.933   0.622   4.692 -0.5987 -0.3185  0.0104
28515SOL    HW188437   3.845   0.651   4.667 -0.7228 -0.2220  0.5401
28515SOL    HW288438   3.990   0.658   4.624 -0.8260  0.6831  0.3271
28516SOL     OW88439   0.147   3.547   3.452  0.1524 -0.5402 -0.5398
28516SOL    HW188440   0.160   3.481   3.384 -0.7331 -0.2664 -0.9870
28516SOL    HW288441   0.210   3.616   3.430 -0.2093 -0.3987 -1.1559
28517SOL     OW88442   9.313   8.987   7.359 -0.0182  0.4204  0.0289
28517SOL    HW188443   9.298   8.992   7.453  1.1867  1.0025  0.2060
28517SOL    HW288444   9.367   9.063   7.339 -1.7292  1.3404 -1.4579
28518SOL     OW88445   4.994   5.889   7.988 -0.0268 -0.3844 -0.2123
28518SOL    HW188446   4.954   5.967   8.027  1.6583 -0.4488  1.8516
28518SOL    HW288447   4.963   5.817   8.043  0.1819 -0.8666 -0.7198
28519SOL     OW88448   6.453   3.966   0.518 -0.1589 -0.0149 -0.2158
28519SOL    HW188449   6.450   3.871   0.506  0.3559  0.1385 -1.7820
28519SOL    HW288450   6.534   3.981   0.568  1.0837 -0.2574 -2.0535
28520SOL     OW88451   2.073   9.122   4.746  0.1991  0.0084 -0.6251
28520SOL    HW188452   2.135   9.195   4.745  0.4771 -0.2149 -0.1467
28520SOL    HW288453   2.006   9.148   4.809  1.0362 -0.7349  0.6084
28521SOL     OW88454   5.887   9.373   2.002 -0.1847 -0.4840 -0.2098
28521SOL    HW188455   5.968   9.419   2.024 -0.2159 -0.7496  0.4738
28521SOL    HW288456   5.877   9.307   2.070 -1.7499  0.4892  0.5777
28522SOL     OW88457   1.088   8.848   6.859  0.4060 -0.2699 -0.4098
28522SOL    HW188458   1.117   8.769   6.814  0.6572  0.1704 -1.0411
28522SOL    HW288459   1.027   8.890   6.799 -0.0049 -0.1632  0.0723
28523SOL     OW88460   1.680   5.025   0.284 -0.3280 -0.0421  0.3699
28523SOL    HW188461   1.730   5.100   0.252 -0.6876 -0.0869 -0.3133
28523SOL    HW288462   1.746   4.959   0.304 -0.0278  0.3607  0.7173
28524SOL     OW88463   6.079   8.429   8.674  0.0995 -0.7599  0.4652
28524SOL    HW188464   6.061   8.500   8.611 -0.4362 -0.4683  0.9347
28524SOL    HW288465   6.170   8.442   8.699  0.2109 -0.6563  0.0225
28525SOL     OW88466   9.128   5.527   1.219  0.1917 -0.2494  0.2488
28525SOL    HW188467   9.119   5.473   1.140  2.1712 -1.7028  0.9403
28525SOL    HW288468   9.222   5.546   1.224 -0.0145  0.4869  1.8544
28526SOL     OW88469   2.893   3.094   5.166  0.2843 -0.1774  0.1815
28526SOL    HW188470   2.828   3.076   5.234 -1.3541  0.7328 -1.0702
28526SOL    HW288471   2.957   3.151   5.209 -0.2644 -0.2912  1.1811
28527SOL     OW88472   1.624   2.259   5.181  0.1317  0.1994  0.3384
28527SOL    HW188473   1.575   2.177   5.172 -0.0116  0.4387 -1.3999
28527SOL    HW288474   1.571   2.324   5.135  0.5457  1.1524  1.1685
28528SOL     OW88475   8.397   5.747   3.910 -0.9117  0.6991  0.1207
28528SOL    HW188476   8.493   5.754   3.917 -0.5967 -2.4200  0.3939
28528SOL    HW288477   8.368   5.837   3.895  1.9491  1.9266  1.0866
28529SOL     OW88478   6.370   1.554   1.848  0.0010 -0.2633 -0.3926
28529SOL    HW188479   6.422   1.502   1.787  1.9423  0.5343  0.5298
28529SOL    HW288480   6.387   1.645   1.822  2.3606  0.2065  2.4045
28530SOL     OW88481   3.726   0.729   8.837 -0.2396 -0.5560 -0.6073
28530SOL    HW188482   3.713   0.640   8.806 -0.9179  0.0520 -2.1609
28530SOL    HW288483   3.781   0.770   8.771  0.5225  0.0449  0.3700
28531SOL     OW88484   9.484   2.485   3.872 -0.2037  0.2281  0.8212
28531SOL    HW188485   9.444   2.434   3.943  0.1605  1.7407  2.1819
28531SOL    HW288486   9.577   2.465   3.878 -0.2718 -0.3162  0.1738
28532SOL     OW88487   7.704   5.427   5.676 -0.2855 -0.3228 -0.3291
28532SOL    HW188488   7.683   5.501   5.734 -3.5600 -0.8403 -0.6422
28532SOL    HW288489   7.780   5.456   5.626  0.3133  1.6415  1.5810
28533SOL     OW88490   0.886   3.403   7.251  0.2122  0.2987 -0.2713
28533SOL    HW188491   0.792   3.395   7.235  0.0851  0.9669  0.0936
28533SOL    HW288492   0.896   3.491   7.288  0.9855  0.2429 -0.3455
28534SOL     OW88493   3.803   3.160   4.992  0.3459 -0.1537 -0.0053
28534SOL    HW188494   3.813   3.082   5.047  0.1136  0.1159  0.4334
28534SOL    HW288495   3.865   3.223   5.029 -0.0770  0.1560  0.1923
28535SOL     OW88496   9.213   2.335   2.380 -0.2909  0.0906 -0.1861
28535SOL    HW188497   9.271   2.343   2.305  0.8390  3.1478  0.8413
28535SOL    HW288498   9.135   2.291   2.347  1.5210 -1.7749 -2.2462
28536SOL     OW88499   5.016   0.032   2.559 -0.3284  0.1076  0.8674
28536SOL    HW188500   5.107   0.000   2.560  0.0035  0.8795 -1.1218
28536SOL    HW288501   5.020   0.114   2.608  0.2327  0.5285  0.1455
28537SOL     OW88502   3.568   4.632   7.478  0.3416  0.1928 -0.0537
28537SOL    HW188503   3.625   4.632   7.554 -0.0391 -1.0080  0.2415
28537SOL    HW288504   3.493   4.579   7.503  0.1934 -0.1993 -1.2483
28538SOL     OW88505   4.166   1.535   2.707  0.0815  0.2005  0.5086
28538SOL    HW188506   4.156   1.440   2.710 -4.0133  0.4396 -0.1187
28538SOL    HW288507   4.130   1.565   2.790 -1.6471  1.2974 -0.5925
28539SOL     OW88508   6.758   5.210   0.660 -0.0370 -0.0784 -0.1264
28539SOL    HW188509   6.694   5.277   0.683  1.8756  1.5584  0.7806
28539SOL    HW288510   6.739   5.189   0.569 -0.1942  2.3946 -0.7489
28540SOL     OW88511   1.105   5.627   0.093 -0.3983 -0.3763  0.0894
28540SOL    HW188512   1.079   5.695   0.031  0.7239 -0.7360 -0.8121
28540SOL    HW288513   1.182   5.663   0.137 -0.0245 -0.9051 -0.1230
28541SOL     OW88514   4.547   0.009   9.076 -0.2572 -0.2691 -0.2924
28541SOL    HW188515   4.507   0.087   9.037  2.7201  0.7307 -1.6085
28541SOL    HW288516   4.558   0.031   9.169 -1.1325  0.0813 -0.2610
28542SOL     OW88517   3.551   6.919   5.267 -0.4605 -0.3427 -0.1890
28542SOL    HW188518   3.546   6.853   5.337  0.6903  2.2673  2.6010
28542SOL    HW288519   3.465   6.959   5.265 -0.9343 -1.3623 -1.3651
28543SOL     OW88520   0.936   7.768   3.611  0.0964 -0.1415 -0.5049
28543SOL    HW188521   0.926   7.786   3.518 -1.3156 -0.6999 -0.4951
28543SOL    HW288522   0.846   7.769   3.645  0.1631 -3.5234  0.1408
28544SOL     OW88523   9.048   5.205   9.160  0.1661 -0.3495  0.0702
28544SOL    HW188524   8.980   5.189   9.094  0.6438 -1.6619 -0.1367
28544SOL    HW288525   8.999   5.231   9.239 -0.7217 -2.5430  0.3140
28545SOL     OW88526   8.920   0.049   9.411  0.1289 -0.0960 -0.4926
28545SOL    HW188527   8.948   0.132   9.449  1.2847 -0.3920 -0.6486
28545SOL    HW288528   8.953  -0.017   9.472 -0.5816 -0.4510 -0.4872
28546SOL     OW88529   4.130   6.844   1.420  0.0931  0.5897  0.2083
28546SOL    HW188530   4.195   6.913   1.409 -0.7653  1.2558 -0.9555
28546SOL    HW288531   4.168   6.784   1.484  1.3914  1.4964  0.3086
28547SOL     OW88532   2.443   9.530   0.262  0.1470  0.5829 -0.5855
28547SOL    HW188533   2.465   9.604   0.207  0.0295  0.4496 -0.8158
28547SOL    HW288534   2.391   9.473   0.205  0.1399  0.3801 -0.3776
28548SOL     OW88535   1.733   5.456   4.070 -0.1736  0.1336  0.2879
28548SOL    HW188536   1.789   5.379   4.082  1.7657  1.2878 -0.8394
28548SOL    HW288537   1.744   5.505   4.152  1.1783  0.7630 -0.2498
28549SOL     OW88538   2.823   2.579   5.260 -0.2781 -0.0940 -0.5634
28549SOL    HW188539   2.896   2.522   5.284 -0.2294  0.4332  0.5886
28549SOL    HW288540   2.748   2.520   5.253 -0.1514 -0.3537  0.2488
28550SOL     OW88541   4.930   8.457   2.502 -0.0421 -0.3182  0.0507
28550SOL    HW188542   4.998   8.509   2.459 -0.0906  0.1040  0.4757
28550SOL    HW288543   4.919   8.498   2.588  1.2836 -2.1903  1.1976
28551SOL     OW88544   2.440   8.892   5.927 -0.2093  0.5069 -0.2854
28551SOL    HW188545   2.498   8.932   5.991 -1.2176  1.0741  0.3043
28551SOL    HW288546   2.450   8.945   5.848  1.0238 -0.1823 -0.6092
28552SOL     OW88547   4.074   3.389   0.414 -0.0302  0.5131 -0.9096
28552SOL    HW188548   3.980   3.395   0.397 -0.1093 -0.4576 -0.8973
28552SOL    HW288549   4.096   3.297   0.395  0.6491  0.3772  0.3563
28553SOL     OW88550   3.554   3.454   3.746 -0.1289  0.0370 -0.3172
28553SOL    HW188551   3.554   3.528   3.686 -1.9267  1.2250  1.0449
28553SOL    HW288552   3.499   3.389   3.704  0.1028  0.1294 -0.7693
28554SOL     OW88553   4.959   0.472   7.894  0.4083 -0.7658  0.8508
28554SOL    HW188554   5.023   0.478   7.824  0.0910 -1.6053  0.4685
28554SOL    HW288555   5.010   0.476   7.975  0.7283  0.6941  0.5900
28555SOL     OW88556   7.957   7.574   5.281 -0.5142  0.1656  0.5374
28555SOL    HW188557   7.915   7.507   5.228 -0.2736  1.6176 -1.6013
28555SOL    HW288558   7.922   7.657   5.248  0.1454  1.1751  2.2276
28556SOL     OW88559   6.352   0.417   6.870 -0.0707  0.4796  0.3507
28556SOL    HW188560   6.321   0.490   6.816  0.3983  1.6674  1.6191
28556SOL    HW288561   6.300   0.424   6.951  0.2180 -0.3916  0.6206
28557SOL     OW88562   6.949   9.219   4.566 -0.6725 -0.0673 -0.2157
28557SOL    HW188563   6.943   9.287   4.499 -1.2059 -1.3234 -1.4949
28557SOL    HW288564   6.964   9.138   4.516 -0.7260 -0.9827  1.2132
28558SOL     OW88565   7.639   2.377   3.766 -0.6518  0.1322  0.2238
28558SOL    HW188566   7.555   2.379   3.719 -0.5961  2.6134  0.0804
28558SOL    HW288567   7.703   2.353   3.698 -0.9109  1.0389 -0.3595
28559SOL     OW88568   3.333   0.709   4.540 -0.5027 -0.0616  0.0510
28559SOL    HW188569   3.393   0.635   4.529  0.0437  0.0114  2.1651
28559SOL    HW288570   3.374   0.781   4.492 -1.1780 -1.1112 -2.2816
28560SOL     OW88571   2.918   8.507   0.735  0.2262  0.2304  0.2929
28560SOL    HW188572   2.908   8.496   0.829  0.3310  0.6546  0.3588
28560SOL    HW288573   2.868   8.435   0.696  0.5111 -0.1755  0.6737
28561SOL     OW88574   0.132   7.842   1.912 -0.4248  0.0541  0.8911
28561SOL    HW188575   0.124   7.907   1.982  1.0644  1.7982 -0.4795
28561SOL    HW288576   0.224   7.818   1.912 -0.3228  0.3674 -0.7171
28562SOL     OW88577   0.117   0.978   2.221  0.1994 -0.4498  0.4536
28562SOL    HW188578   0.185   0.936   2.168 -0.0718  1.3030 -1.4426
28562SOL    HW288579   0.037   0.971   2.167 -0.1960  1.0031  0.8017
28563SOL     OW88580   0.773   4.951   9.575  0.7990 -0.0307  0.5465
28563SOL    HW188581   0.827   4.911   9.643  1.1520  0.0054  0.2920
28563SOL    HW288582   0.685   4.918   9.591  0.9765 -0.4222  0.7137
28564SOL     OW88583   5.776   3.762   5.026  0.2008  0.7290 -0.1055
28564SOL    HW188584   5.734   3.809   5.098  0.5874 -0.3324  0.8361
28564SOL    HW288585   5.707   3.753   4.960 -0.5747  0.4500  0.7311
28565SOL     OW88586   1.867   9.204   6.577 -0.2579 -0.0464 -0.5727
28565SOL    HW188587   1.811   9.130   6.600 -0.3241  0.2608  0.2777
28565SOL    HW288588   1.807   9.274   6.552 -0.2858  0.4024  0.6965
28566SOL     OW88589   2.503   3.427   0.640 -0.2444  0.0802  0.1838
28566SOL    HW188590   2.496   3.351   0.583 -1.3083 -0.2068  0.6727
28566SOL    HW288591   2.587   3.467   0.617  0.2925 -1.1891 -0.1380
28567SOL     OW88592   4.359   6.825   0.581 -0.3078  0.2259 -0.0820
28567SOL    HW188593   4.451   6.847   0.569 -0.3712  0.9808  0.7287
28567SOL    HW288594   4.322   6.828   0.493 -0.2291  3.1042 -0.1002
28568SOL     OW88595   1.996   0.848   2.225  0.4537  0.0339 -0.0667
28568SOL    HW188596   1.984   0.760   2.261 -0.8777  0.1510 -0.1510
28568SOL    HW288597   2.036   0.897   2.297 -1.2975  0.0243  0.9934
28569SOL     OW88598   1.654   3.057   6.737  0.8706  0.3514 -0.6126
28569SOL    HW188599   1.620   3.138   6.774  0.0541  0.7168 -2.0769
28569SOL    HW288600   1.710   3.084   6.665  0.3875 -0.3623 -1.2850
28570SOL     OW88601   2.047   0.038   6.463 -0.6386  0.3842  0.8654
28570SOL    HW188602   2.060  -0.054   6.486  1.5248  0.3933 -0.0905
28570SOL    HW288603   2.081   0.087   6.538  0.2532  0.3877  0.4719
28571SOL     OW88604   9.633   3.794   5.679  0.5143  0.3646  0.2857
28571SOL    HW188605   9.623   3.861   5.612 -1.4663 -0.8165 -0.7105
28571SOL    HW288606   9.553   3.802   5.733  0.7027 -0.5675  0.7215
28572SOL     OW88607   3.276   9.134   5.563  0.1442  0.3859  0.2643
28572SOL    HW188608   3.309   9.219   5.592  0.3821  1.2624 -2.3338
28572SOL    HW288609   3.354   9.080   5.552  0.1951  0.5426 -0.1606
28573SOL     OW88610   6.378   0.916   6.704  0.1639 -0.1911 -0.5041
28573SOL    HW188611   6.400   1.009   6.697  0.0937 -0.2336 -1.3212
28573SOL    HW288612   6.395   0.895   6.796 -1.2162  0.9765  0.0576
28574SOL     OW88613   0.493   6.495   4.629  0.0572 -0.6238 -0.3455
28574SOL    HW188614   0.460   6.511   4.540  1.7580  0.3283 -0.8598
28574SOL    HW288615   0.448   6.559   4.683  0.5335  0.2253 -0.9219
28575SOL     OW88616   4.141   0.010   9.009  0.4047  1.0501 -0.0649
28575SOL    HW188617   4.214  -0.052   9.010  0.3670  0.9957 -0.3777
28575SOL    HW288618   4.063  -0.046   9.004  0.3391  1.1067  0.2753
28576SOL     OW88619   6.272   7.232   6.129  0.1078  0.0767 -0.4784
28576SOL    HW188620   6.202   7.296   6.120  1.0781  1.0073 -2.0351
28576SOL    HW288621   6.349   7.277   6.093  1.0859 -1.5318 -0.4665
28577SOL     OW88622   8.452   1.891   4.437 -0.0803 -0.0601 -0.0396
28577SOL    HW188623   8.498   1.820   4.391 -0.7942 -1.4757  1.3116
28577SOL    HW288624   8.493   1.893   4.523 -1.7297 -0.5694  0.7962
28578SOL     OW88625   2.160   7.575   9.304  0.0499 -0.2223  0.2851
28578SOL    HW188626   2.095   7.592   9.373  0.4973 -0.7467  0.8464
28578SOL    HW288627   2.177   7.661   9.266 -1.7483 -0.2048 -0.5855
28579SOL     OW88628   0.875   5.327   5.090 -0.1074 -0.2711  0.5273
28579SOL    HW188629   0.849   5.291   5.175 -2.1149  1.2036  0.6166
28579SOL    HW288630   0.810   5.292   5.028  0.9890 -0.8677 -0.3166
28580SOL     OW88631   4.071   7.856   3.692  0.1475  0.0416 -0.2303
28580SOL    HW188632   4.055   7.907   3.612  0.4048  1.2565  0.4580
28580SOL    HW288633   4.014   7.897   3.758  3.4259  2.3249  1.4540
28581SOL     OW88634   3.314   1.173   4.651 -0.0973  0.3099 -0.0845
28581SOL    HW188635   3.237   1.152   4.599  1.1657 -0.9161 -1.5304
28581SOL    HW288636   3.354   1.088   4.672  0.2329  0.8487  1.6827
28582SOL     OW88637   7.637   9.114   5.013 -0.1756 -0.2325 -0.0970
28582SOL    HW188638   7.609   9.035   4.967 -0.4411 -0.7028  0.8548
28582SOL    HW288639   7.556   9.159   5.037 -0.1121  2.0803 -3.4216
28583SOL     OW88640   2.469   8.431   2.210 -0.1433 -0.1068  0.0322
28583SOL    HW188641   2.483   8.394   2.123 -0.1368  0.7818 -0.3520
28583SOL    HW288642   2.547   8.485   2.226 -1.4167  2.0168 -0.6168
28584SOL     OW88643   6.086   8.253   0.446  0.3264  0.7298  0.5163
28584SOL    HW188644   6.025   8.261   0.373  0.3035 -0.6046  0.3632
28584SOL    HW288645   6.046   8.304   0.517  0.0513  1.5372 -0.2060
28585SOL     OW88646   2.274   9.185   5.042  0.3469 -0.1531  0.0882
28585SOL    HW188647   2.362   9.149   5.031 -0.0988 -0.8702 -1.4004
28585SOL    HW288648   2.264   9.246   4.969 -0.5745 -0.4889 -0.0812
28586SOL     OW88649   8.889   2.015   5.064 -0.5150  0.5610 -0.1697
28586SOL    HW188650   8.842   1.933   5.047  1.1520 -0.7407  1.1670
28586SOL    HW288651   8.821   2.074   5.099 -1.5520 -0.5764 -0.1898
28587SOL     OW88652   7.110   6.198   7.544 -0.4820 -0.2806  0.3469
28587SOL    HW188653   7.174   6.129   7.527 -0.8965 -0.5167 -0.3181
28587SOL    HW288654   7.060   6.165   7.619 -0.4387 -0.5408  0.2645
28588SOL     OW88655   9.382   3.165   8.549 -0.1534  0.0681 -0.9136
28588SOL    HW188656   9.448   3.228   8.578  1.9825 -2.2294 -0.3915
28588SOL    HW288657   9.359   3.192   8.461  0.1640  1.9390 -0.4565
28589SOL     OW88658   8.718   2.139   5.562  0.2654 -0.1349  0.7721
28589SOL    HW188659   8.794   2.195   5.576 -0.0293  0.1908  1.1146
28589SOL    HW288660   8.754   2.053   5.542  0.7449  0.3056 -0.3491
28590SOL     OW88661   8.105   0.332   4.466  0.1922  0.6004  0.9102
28590SOL    HW188662   8.037   0.398   4.485  0.7849  1.2090  0.9531
28590SOL    HW288663   8.182   0.363   4.513  1.1250  1.0653 -0.8343
28591SOL     OW88664   3.905   1.226   4.051 -0.3929 -0.7159  0.0124
28591SOL    HW188665   3.928   1.150   4.105 -0.9778 -0.7164  0.2803
28591SOL    HW288666   3.934   1.301   4.102 -0.1612 -0.7481 -0.0731
28592SOL     OW88667   5.051   2.426   6.946 -0.5667  0.0976 -0.6748
28592SOL    HW188668   5.038   2.386   6.860 -1.8687 -0.3798 -0.2722
28592SOL    HW288669   4.998   2.506   6.944 -2.3515 -0.9910  0.3888
28593SOL     OW88670   2.395   8.389   6.432  0.5675  0.4132 -0.2065
28593SOL    HW188671   2.386   8.481   6.457  1.9397  0.8671 -1.2475
28593SOL    HW288672   2.475   8.360   6.475  0.5162 -0.1028 -0.4474
28594SOL     OW88673   8.495   6.814   5.383 -0.4254  0.1824  0.3147
28594SOL    HW188674   8.523   6.887   5.327 -1.0601  0.4024  0.2763
28594SOL    HW288675   8.400   6.824   5.390 -0.6279 -1.1057 -0.3228
28595SOL     OW88676   7.192   4.240   7.160  0.2935  0.2719  0.0380
28595SOL    HW188677   7.138   4.286   7.224 -0.0898 -0.0940 -0.0270
28595SOL    HW288678   7.260   4.197   7.212 -0.4383 -0.6205  0.2707
28596SOL     OW88679   1.423   4.088   1.187 -0.1789 -0.2106 -0.0363
28596SOL    HW188680   1.356   4.041   1.237 -0.6685  0.1722 -0.3184
28596SOL    HW288681   1.476   4.132   1.253 -0.9656  0.4876  0.1513
28597SOL     OW88682   4.473   1.036   3.354 -0.6240 -0.1393  0.4059
28597SOL    HW188683   4.485   1.131   3.360 -2.2063  0.0657  0.8299
28597SOL    HW288684   4.384   1.021   3.387  0.0843 -1.9326  1.6746
28598SOL     OW88685   8.123   7.100   6.952  0.3481  0.5372  0.4177
28598SOL    HW188686   8.053   7.043   6.918  2.0786 -0.9487 -0.8895
28598SOL    HW288687   8.092   7.189   6.935 -1.8143 -0.0127  1.1669
28599SOL     OW88688   8.294   5.092   4.419 -0.3445 -0.2443  0.1376
28599SOL    HW188689   8.386   5.090   4.392 -0.6067  0.8497 -0.8884
28599SOL    HW288690   8.271   5.000   4.430  0.3184 -0.6527 -1.5571
28600SOL     OW88691   8.454   7.629   7.776 -0.2297  0.1503  0.3198
28600SOL    HW188692   8.474   7.538   7.795  0.7052  0.0715 -0.8931
28600SOL    HW288693   8.366   7.627   7.739 -0.9137 -0.0188  1.8610
28601SOL     OW88694   2.248   1.569   0.238 -0.0897 -0.0525 -0.2079
28601SOL    HW188695   2.297   1.599   0.315 -0.0043 -1.2130  0.2152
28601SOL    HW288696   2.225   1.649   0.191  0.1000  0.6590  0.8783
28602SOL     OW88697   2.621   3.661   3.519 -0.0146  0.1550  0.1371
28602SOL    HW188698   2.618   3.723   3.593 -2.3822  1.1944 -0.7527
28602SOL    HW288699   2.570   3.703   3.450  1.1976 -1.3020 -1.7386
28603SOL     OW88700   4.626   1.861   7.324 -0.4302  0.3300 -0.7730
28603SOL    HW188701   4.546   1.848   7.375  0.0235  0.5004  0.0138
28603SOL    HW288702   4.619   1.950   7.290 -0.4225  0.4694 -0.4175
28604SOL     OW88703   0.021   4.224   7.140  0.0051  0.3746 -0.3364
28604SOL    HW188704   0.090   4.258   7.196 -0.2825  1.1903 -0.4639
28604SOL    HW288705  -0.014   4.149   7.188  0.8402  0.0651 -0.1866
28605SOL     OW88706   3.330   4.462   0.978 -0.0991 -0.2860 -0.3538
28605SOL    HW188707   3.392   4.530   0.950  0.5261  0.3464  2.2209
28605SOL    HW288708   3.344   4.456   1.073 -3.0493 -1.0956  0.1286
28606SOL     OW88709   6.273   4.996   1.737 -0.0590  0.0679  0.2163
28606SOL    HW188710   6.258   5.083   1.776 -2.0252  0.1175 -0.5416
28606SOL    HW288711   6.227   4.936   1.795 -1.2071 -0.1039 -0.8394
28607SOL     OW88712   8.668   7.893   6.828 -0.3092 -0.0370  0.2583
28607SOL    HW188713   8.763   7.884   6.831 -0.3327 -0.2196  0.5512
28607SOL    HW288714   8.651   7.980   6.862 -0.2031  0.3095 -0.5531
28608SOL     OW88715   0.343   7.539   4.167 -0.5840 -1.0124  0.1073
28608SOL    HW188716   0.332   7.445   4.161 -0.0818 -0.9845 -2.9577
28608SOL    HW288717   0.262   7.576   4.133 -0.1416 -0.3780 -0.2908
28609SOL     OW88718   8.924   3.888   1.345 -0.2281  0.2545  0.7614
28609SOL    HW188719   8.849   3.832   1.330  1.0339 -1.3274  0.0361
28609SOL    HW288720   8.940   3.930   1.260 -1.2470  1.9063  1.3288
28610SOL     OW88721   7.380   3.502   1.272 -0.0452  0.3935 -0.1375
28610SOL    HW188722   7.358   3.528   1.182  0.6434 -0.1991 -0.4921
28610SOL    HW288723   7.350   3.574   1.326 -0.3860  0.8028 -0.8578
28611SOL     OW88724   2.876   4.990   7.247  0.4201 -0.7890 -0.1284
28611SOL    HW188725   2.957   4.962   7.205  0.2183 -0.8046 -0.5092
28611SOL    HW288726   2.896   4.989   7.341  0.7374 -1.1755 -0.1997
28612SOL     OW88727   5.359   5.605   3.450  0.6381  0.3384 -0.4699
28612SOL    HW188728   5.280   5.653   3.474  1.8888  1.6787  1.1554
28612SOL    HW288729   5.381   5.636   3.362 -1.4266 -1.2063 -1.6399
28613SOL     OW88730   9.634   4.523   2.960  0.3230  0.3731  0.0447
28613SOL    HW188731   9.639   4.613   2.930  0.7740 -0.5069 -2.7637
28613SOL    HW288732   9.723   4.488   2.947 -0.5190 -1.2586 -1.8278
28614SOL     OW88733   7.735   2.701   1.390 -0.3217  0.0292  0.0772
28614SOL    HW188734   7.825   2.701   1.357  1.0151 -1.4996  3.2198
28614SOL    HW288735   7.731   2.779   1.446 -1.6534  1.1311 -1.4683
28615SOL     OW88736   8.202   3.963   2.784  0.1153  0.1571  0.0196
28615SOL    HW188737   8.258   4.040   2.790 -0.9417  0.8856  1.3668
28615SOL    HW288738   8.199   3.941   2.691  0.1474  1.9825 -0.4429
28616SOL     OW88739   1.027   2.843   5.963  0.3432  0.5058 -0.6345
28616SOL    HW188740   1.061   2.788   6.033  0.5376 -0.1085 -1.2051
28616SOL    HW288741   0.989   2.782   5.900  0.8130  0.9941 -1.4050
28617SOL     OW88742   2.133   3.687   2.947 -0.3521  0.6036  0.6787
28617SOL    HW188743   2.146   3.617   2.883  0.9516  0.6513  0.8717
28617SOL    HW288744   2.062   3.656   3.003  0.1754 -0.5351  0.7359
28618SOL     OW88745   6.281   2.563   2.454  0.0777 -0.5096  0.2313
28618SOL    HW188746   6.297   2.586   2.546  0.1156 -0.6411  0.2571
28618SOL    HW288747   6.214   2.495   2.458 -0.7581  0.2810  0.1096
28619SOL     OW88748   6.827   0.392   3.703 -0.2155 -0.0251 -0.6967
28619SOL    HW188749   6.741   0.423   3.730 -0.0892  1.1787 -1.6208
28619SOL    HW288750   6.881   0.471   3.698  1.0065 -0.7754  0.0374
28620SOL     OW88751   8.040   0.865   3.832  0.6502 -0.7360  0.0519
28620SOL    HW188752   8.062   0.939   3.776  0.4241  0.2049  1.1650
28620SOL    HW288753   8.011   0.905   3.914  2.4103 -2.0360  1.4057
28621SOL     OW88754   2.091   9.028   5.202 -0.4038 -0.0523 -0.0687
28621SOL    HW188755   2.174   9.063   5.169 -0.2631  0.9999  1.3227
28621SOL    HW288756   2.117   8.962   5.267 -0.6085  1.1979  1.3270
28622SOL     OW88757   4.598   5.178   1.584  0.1114 -0.0093 -0.4749
28622SOL    HW188758   4.602   5.086   1.610  0.0337  0.2805  0.6402
28622SOL    HW288759   4.689   5.206   1.580  0.1453 -0.2030 -1.0808
28623SOL     OW88760   6.004   8.167   6.745 -0.2750  0.3345 -0.2835
28623SOL    HW188761   6.083   8.209   6.712 -2.0588  2.9365 -1.5696
28623SOL    HW288762   5.992   8.090   6.690  2.2093 -1.1445  1.0697
28624SOL     OW88763   7.895   8.764   4.694 -0.2818 -0.1602  0.2285
28624SOL    HW188764   7.937   8.754   4.780 -1.0875 -0.5412  0.5871
28624SOL    HW288765   7.877   8.674   4.666 -0.3655 -0.0193 -0.1757
28625SOL     OW88766   2.021   1.575   6.634  0.5669 -0.2395  0.1213
28625SOL    HW188767   1.954   1.573   6.702  0.7199  0.4474  0.3065
28625SOL    HW288768   2.017   1.664   6.600  0.1505 -0.7251 -1.1340
28626SOL     OW88769   1.211   3.877   2.239 -0.1404 -0.8196  0.2535
28626SOL    HW188770   1.272   3.830   2.182 -0.3985  1.1151 -1.7520
28626SOL    HW288771   1.129   3.880   2.190 -1.4955 -2.0617  2.2626
28627SOL     OW88772   7.245   8.231   0.307  0.0573  0.4418 -0.3758
28627SOL    HW188773   7.310   8.201   0.370 -1.3856 -0.2747  0.8505
28627SOL    HW288774   7.199   8.302   0.352 -0.0898  0.8642 -1.1729
28628SOL     OW88775   2.621   2.552   2.152 -0.1059 -0.3379 -0.0995
28628SOL    HW188776   2.642   2.638   2.117  1.0722 -0.8722 -0.7544
28628SOL    HW288777   2.658   2.551   2.240 -1.8372  0.4992  0.6875
28629SOL     OW88778   9.556   6.213   9.354 -0.2727 -0.0889  0.4437
28629SOL    HW188779   9.644   6.176   9.351  0.3431  1.0188  2.5479
28629SOL    HW288780   9.505   6.161   9.291  1.8791 -0.6911 -0.9054
28630SOL     OW88781   5.581   7.822   5.036 -0.3790  0.0884 -0.0170
28630SOL    HW188782   5.613   7.799   4.949 -0.9113 -0.7569 -0.0016
28630SOL    HW288783   5.629   7.902   5.059 -0.7744  0.7698 -1.3977
28631SOL     OW88784   2.835   1.472   8.649 -0.0423  0.6074  0.2190
28631SOL    HW188785   2.832   1.377   8.638 -1.5712  0.8413 -1.9742
28631SOL    HW288786   2.928   1.493   8.650  0.3974 -0.6350 -2.8740
28632SOL     OW88787   0.484   1.248   7.575  0.4887 -0.3059  0.6190
28632SOL    HW188788   0.491   1.338   7.543  0.8546 -0.2099  0.9566
28632SOL    HW288789   0.401   1.216   7.540  0.2116  0.2621  0.7437
28633SOL     OW88790   7.092   4.557   9.030  0.0516 -0.1541 -0.1534
28633SOL    HW188791   7.167   4.560   9.089  0.0566 -2.0985  0.0187
28633SOL    HW288792   7.118   4.609   8.954  0.7827  0.7982  0.7312
28634SOL     OW88793   4.330   7.329   5.073 -0.3616  0.4586  0.2649
28634SOL    HW188794   4.282   7.256   5.112  2.3823 -2.8433 -1.9410
28634SOL    HW288795   4.289   7.340   4.987  0.3622  0.2248 -0.1185
28635SOL     OW88796   2.141   9.156   9.368  0.2083  0.5702  0.0796
28635SOL    HW188797   2.050   9.127   9.361  0.8791 -1.3935 -1.3647
28635SOL    HW288798   2.153   9.213   9.292  0.5800 -0.3739 -0.5765
28636SOL     OW88799   8.496   2.221   7.744 -1.1584 -0.6334  0.1709
28636SOL    HW188800   8.409   2.202   7.779 -1.0169  1.0824  1.6114
28636SOL    HW288801   8.521   2.302   7.787  0.0862  0.3133 -2.1687
28637SOL     OW88802   7.090   5.150   1.063 -0.1014 -0.5778 -0.3841
28637SOL    HW188803   7.017   5.087   1.061 -0.7099  0.1157 -0.6557
28637SOL    HW288804   7.136   5.130   1.144 -0.5137 -1.1249 -0.2737
28638SOL     OW88805   2.387   6.451   3.523  0.7021  0.4057  0.1052
28638SOL    HW188806   2.418   6.533   3.561 -1.4377  1.1937  0.3044
28638SOL    HW288807   2.399   6.462   3.429 -2.1728  2.2728 -0.1890
28639SOL     OW88808   5.574   7.483   2.703  0.2019  0.1915 -0.0049
28639SOL    HW188809   5.517   7.477   2.627 -0.6102 -0.8621  0.6585
28639SOL    HW288810   5.638   7.412   2.691  2.2732  2.1647 -1.4059
28640SOL     OW88811   1.932   3.318   3.967  0.9742  0.5371 -0.3669
28640SOL    HW188812   2.021   3.348   3.987  0.8002  0.5385  0.4310
28640SOL    HW288813   1.878   3.356   4.036  0.4881 -0.2135 -0.3289
28641SOL     OW88814   2.186   3.691   4.464 -0.1656  0.0634  0.0032
28641SOL    HW188815   2.156   3.716   4.551  0.7945  0.1547  0.3219
28641SOL    HW288816   2.131   3.617   4.439  0.6127 -1.0081  1.3738
28642SOL     OW88817   1.896   4.158   0.972 -0.2337 -0.2440 -0.2917
28642SOL    HW188818   1.835   4.151   0.898 -0.3836 -1.1870 -0.0929
28642SOL    HW288819   1.957   4.227   0.946 -1.5990  1.0015 -0.3251
28643SOL     OW88820   1.133   3.037   7.214 -0.2345  0.2681 -0.2576
28643SOL    HW188821   1.225   3.014   7.226 -0.5270 -0.3394  1.0148
28643SOL    HW288822   1.125   3.058   7.121  1.3827  1.2459 -0.2048
28644SOL     OW88823   8.065   5.312   5.986 -0.0627  0.3049 -0.1076
28644SOL    HW188824   8.080   5.298   5.893 -0.9340 -0.9888 -0.0836
28644SOL    HW288825   8.096   5.401   6.002 -1.1894  1.0980 -1.9347
28645SOL     OW88826   7.793   3.879   7.365 -0.3717  0.3667  0.2482
28645SOL    HW188827   7.699   3.898   7.371 -1.1254 -2.8237  0.3291
28645SOL    HW288828   7.809   3.814   7.433  1.1642 -1.5348 -1.7869
28646SOL     OW88829   7.139   5.148   4.656  0.7316 -0.4108 -0.2869
28646SOL    HW188830   7.083   5.180   4.585  1.6599  1.1208 -0.3519
28646SOL    HW288831   7.107   5.192   4.734  0.4117 -1.2725  0.0880
28647SOL     OW88832   5.550   6.123   2.627 -0.0425  0.3612  0.1880
28647SOL    HW188833   5.633   6.142   2.671 -0.7944 -0.2084  1.9170
28647SOL    HW288834   5.576   6.075   2.548  1.2703  0.3844  0.5763
28648SOL     OW88835   1.456   2.668   1.978  0.8823 -0.6886 -0.2171
28648SOL    HW188836   1.448   2.723   2.056  0.9585 -0.1927 -0.5541
28648SOL    HW288837   1.383   2.695   1.922  0.9745 -0.8632 -0.4218
28649SOL     OW88838   1.015   4.929   3.450 -0.0388 -0.3078  0.5011
28649SOL    HW188839   1.020   4.843   3.491 -0.3556 -0.1596  0.8626
28649SOL    HW288840   1.104   4.963   3.455  0.0780 -0.5911  0.3997
28650SOL     OW88841   9.483   7.432   0.997 -0.3182  0.3843  0.4346
28650SOL    HW188842   9.395   7.403   1.020 -1.0320  2.5633  0.7261
28650SOL    HW288843   9.473   7.473   0.911  0.1459  1.5881  0.9222
28651SOL     OW88844   9.259   0.609   8.147 -0.1263  0.4871 -0.2957
28651SOL    HW188845   9.305   0.674   8.200 -0.3240  0.9261 -0.6618
28651SOL    HW288846   9.324   0.539   8.133 -0.3562 -0.0956  1.3275
28652SOL     OW88847   4.754   4.658   5.880 -0.0467  0.4095 -0.2143
28652SOL    HW188848   4.789   4.665   5.969  3.1986  0.5567 -1.3635
28652SOL    HW288849   4.812   4.596   5.836 -0.9164  1.1078 -2.5091
28653SOL     OW88850   6.535   9.050   1.411  0.7224 -0.0889  0.3015
28653SOL    HW188851   6.490   9.083   1.489  1.6081 -0.0703  0.8100
28653SOL    HW288852   6.470   8.993   1.369  0.1694  0.0549  0.9397
28654SOL     OW88853   0.702   6.562   3.514 -0.3893 -0.6021  0.1475
28654SOL    HW188854   0.770   6.574   3.581 -0.2902  0.6521 -0.1548
28654SOL    HW288855   0.687   6.650   3.480  0.7702 -1.3899 -2.6829
28655SOL     OW88856   7.592   6.984   9.155  0.0489 -0.4482 -0.4264
28655SOL    HW188857   7.499   7.004   9.146  0.0346 -0.1821  0.2642
28655SOL    HW288858   7.617   7.022   9.239  1.2069  1.0645 -1.3996
28656SOL     OW88859   6.219   5.916   8.396  0.0501  0.3077  0.1925
28656SOL    HW188860   6.239   5.836   8.445 -0.1211  0.5916  0.7252
28656SOL    HW288861   6.287   5.978   8.422 -1.9215  1.5870  2.7127
28657SOL     OW88862   6.386   7.199   5.269 -0.0316  0.3580  0.1885
28657SOL    HW188863   6.395   7.213   5.175  1.3455  0.3534  0.3039
28657SOL    HW288864   6.362   7.285   5.304  1.4528  0.8550  0.0507
28658SOL     OW88865   2.383   5.199   4.834  0.0109  0.2833  0.0073
28658SOL    HW188866   2.421   5.260   4.770  0.6356 -1.6233 -1.5525
28658SOL    HW288867   2.403   5.237   4.919  1.6610  1.5129 -0.8784
28659SOL     OW88868   8.666   4.203   8.049  0.3834 -0.3892 -0.3027
28659SOL    HW188869   8.582   4.247   8.033 -0.1928 -1.1283  0.5414
28659SOL    HW288870   8.660   4.120   8.001  1.3980  0.3529 -1.7570
28660SOL     OW88871   1.001   7.532   9.428 -0.7186  0.1831  0.8164
28660SOL    HW188872   1.090   7.530   9.465 -0.7086 -0.3280  0.7788
28660SOL    HW288873   1.009   7.486   9.345 -0.7489  1.3189  0.1669
28661SOL     OW88874   4.434   1.121   1.470  0.6235  0.0234 -0.1872
28661SOL    HW188875   4.458   1.030   1.451  1.4227  0.0278  0.6890
28661SOL    HW288876   4.391   1.152   1.390  2.1346 -0.5060 -1.2532
28662SOL     OW88877   7.450   7.587   8.591  0.2497 -0.2687  0.6039
28662SOL    HW188878   7.395   7.665   8.590  0.8994  0.1950 -0.0205
28662SOL    HW288879   7.443   7.551   8.503  0.8489 -0.2723  0.5530
28663SOL     OW88880   5.694   0.988   2.339  0.0333  0.8465  0.1311
28663SOL    HW188881   5.709   0.977   2.433 -1.2440 -0.5572  0.2038
28663SOL    HW288882   5.736   0.912   2.299 -0.7096  0.6412 -0.2815
28664SOL     OW88883   1.679   1.621   7.187 -0.1244  0.2773 -0.1969
28664SOL    HW188884   1.612   1.683   7.157  0.1621  1.0924  0.8119
28664SOL    HW288885   1.762   1.659   7.159  0.2128  1.4410  2.1672
28665SOL     OW88886   2.368   1.306   0.081  0.9850  0.1557  0.1814
28665SOL    HW188887   2.385   1.391   0.121 -0.9738  0.2770  0.8654
28665SOL    HW288888   2.325   1.256   0.150  2.8229 -1.7254  0.0697
28666SOL     OW88889   6.184   9.477   7.524  0.1746 -0.0647 -0.9823
28666SOL    HW188890   6.214   9.427   7.448 -0.4989 -1.1369 -0.5487
28666SOL    HW288891   6.109   9.429   7.557  0.5957  0.2572  0.5094
28667SOL     OW88892   5.617   4.531   0.756  0.0359  0.4012 -0.6656
28667SOL    HW188893   5.662   4.604   0.713  0.2147  0.4771 -0.3522
28667SOL    HW288894   5.567   4.490   0.686 -1.0380  1.5622 -0.6154
28668SOL     OW88895   1.747   8.514   1.746  0.0733 -0.4064  0.4322
28668SOL    HW188896   1.740   8.510   1.842  0.1834 -0.5418  0.4348
28668SOL    HW288897   1.699   8.437   1.715  0.6635 -0.7737  0.4092
28669SOL     OW88898   6.266   2.772   9.125 -0.3886 -0.8196  0.1287
28669SOL    HW188899   6.194   2.719   9.160 -1.3803  0.0007 -0.5992
28669SOL    HW288900   6.340   2.711   9.118 -0.8940 -1.5813  1.2622
28670SOL     OW88901   9.477   5.631   8.311  0.2605 -0.5838  0.0302
28670SOL    HW188902   9.561   5.654   8.271 -0.0423  0.1764 -0.1857
28670SOL    HW288903   9.411   5.670   8.253 -0.2268 -0.7979  0.4320
28671SOL     OW88904   8.979   5.763   2.317  0.3344 -0.0825 -0.3463
28671SOL    HW188905   8.963   5.790   2.407 -2.6839  0.5698 -0.9818
28671SOL    HW288906   9.054   5.816   2.289  2.3126 -1.3518  2.1172
28672SOL     OW88907   3.588   4.655   4.714 -0.7829  0.3774  0.8412
28672SOL    HW188908   3.577   4.707   4.634  1.0655  0.8864  0.8580
28672SOL    HW288909   3.564   4.566   4.688 -1.0206  0.6843 -0.0468
28673SOL     OW88910   4.950   0.739   8.447  0.3858 -0.4748  0.1766
28673SOL    HW188911   4.964   0.718   8.539  1.1765  0.4375  0.2887
28673SOL    HW288912   4.919   0.830   8.448  2.1284  0.1669 -0.5256
28674SOL     OW88913   5.613   2.897   7.881 -0.4607  0.4536 -0.1422
28674SOL    HW188914   5.593   2.979   7.927  0.3103 -0.8484  2.7787
28674SOL    HW288915   5.557   2.899   7.803 -1.4368  3.1230  0.4994
28675SOL     OW88916   0.328   5.471   5.430  0.6565 -0.3183 -0.2347
28675SOL    HW188917   0.362   5.503   5.346 -1.0482  2.2320 -0.0507
28675SOL    HW288918   0.398   5.491   5.493  0.5964  0.9112 -0.5329
28676SOL     OW88919   7.816   7.753   3.570  0.2272  0.4894  0.3238
28676SOL    HW188920   7.757   7.786   3.638 -0.6919 -0.3127 -0.0461
28676SOL    HW288921   7.852   7.831   3.528 -2.0898  1.0783 -0.7298
28677SOL     OW88922   4.680   0.391   9.644  0.0008  0.0694  0.0725
28677SOL    HW188923   4.743   0.412   9.713 -0.3106  0.1397  0.3418
28677SOL    HW288924   4.697   0.299   9.623  0.8609  0.3720 -0.5726
28678SOL     OW88925   2.581   8.028   3.566 -0.1641  0.4391  0.4017
28678SOL    HW188926   2.523   7.976   3.510  1.3870 -0.8615 -0.0563
28678SOL    HW288927   2.633   8.080   3.506  1.1387 -0.5645  0.6231
28679NA      NA88928   0.276   6.428   6.288 -0.1103  0.0870 -0.6426
28680NA      NA88929   2.156   6.728   0.648  0.5710 -0.3990 -0.5743
28681NA      NA88930   2.979   8.713   6.967  0.1851  0.0728  0.6533
28682NA      NA88931   5.252   6.939   6.026 -0.2651  0.2087  0.3833
28683NA      NA88932   3.825   8.169   2.064  0.3331  0.0185  0.3768
28684NA      NA88933   7.082   5.480   0.885  0.2200  0.1844  0.1840
28685NA      NA88934   1.327   8.730   0.670 -0.4601  0.1797  0.2711
28686NA      NA88935   7.692   9.454   9.026  0.0124 -0.2777 -0.1819
28687NA      NA88936   2.319   7.841   7.157  0.5894  0.1177  0.0511
28688NA      NA88937   1.319   5.141   6.947 -0.1935 -0.0662 -0.1337
28689NA      NA88938   5.303   6.021   0.871  0.0839 -0.2591  0.2029
28690NA      NA88939   2.999   5.331   7.724 -0.0539  0.1093 -0.1336
28691NA      NA88940   2.389   1.970   1.709  0.0881  0.5254 -0.1487
28692NA      NA88941   0.479   7.894   8.459  0.4037  0.0927  0.2489
28693NA      NA88942   9.521   7.640   9.495 -0.0814  0.7247  0.3874
28694NA      NA88943   0.156   9.107   4.491  0.1894 -0.2394 -0.8864
28695NA      NA88944   1.384   7.935   4.305  0.4630 -0.1031 -0.2875
28696NA      NA88945   2.390   4.845   0.870 -0.1184 -0.5242 -0.3527
28697NA      NA88946   1.799   7.941   7.538 -0.0583 -0.3504  0.0938
28698NA      NA88947   2.494   7.393   7.970  0.0100  0.2727  0.8096
28699NA      NA88948   1.670   5.417   9.049 -0.5273 -0.7318  0.3069
28700NA      NA88949   0.887   4.421   9.195 -0.2518  0.3159  0.3075
28701NA      NA88950   1.255   6.095   7.095 -0.5063 -0.0768  0.1286
28702NA      NA88951   2.438   1.910   3.960  0.5087  0.0252  0.3358
28703NA      NA88952   2.575   7.256   7.634  0.0431 -0.1640  0.4009
28704NA      NA88953   1.098   6.764   0.612 -0.4303  0.0919 -0.2818
28705NA      NA88954   0.105   5.870   9.338 -0.2991 -0.2140  0.2728
28706NA      NA88955   1.334   4.485   8.960  0.2097 -0.1791 -0.0725
28707NA      NA88956   2.189   6.400   0.446 -0.0233 -0.3710 -0.1804
28708NA      NA88957   1.892   8.114   8.008 -0.4744 -0.3957 -0.0803
28709NA      NA88958   1.899   2.216   6.138 -0.2272 -0.4632 -0.1620
28710NA      NA88959   1.781   6.313   7.931  0.1301 -0.1294 -0.2547
28711NA      NA88960   0.187   3.747   3.881  0.0543 -0.2651  0.2211
28712NA      NA88961   1.235   1.412   7.655  0.1769  0.1164 -0.0411
28713NA      NA88962   4.088   6.183   6.996 -0.1740  0.2123  0.3469
28714NA      NA88963   3.666   6.510   8.441  0.0487  0.3753  0.0042
28715NA      NA88964   1.794   6.158   7.641 -0.0460 -0.0202  0.2626
28716NA      NA88965   0.524   2.586   0.672  0.0701 -0.3009  0.3566
28717NA      NA88966   4.993   4.765   8.622  0.4615  0.4711  0.6729
28718NA      NA88967   5.168   1.914   2.437 -0.0666  0.6277  0.4892
28719NA      NA88968   4.774   5.953   7.171 -0.3529  0.5046  0.3010
28720NA      NA88969   1.219   6.305   8.969 -0.2930 -0.0146  0.4288
28721NA      NA88970   2.144   4.757   8.866 -0.1233  0.2191 -0.2135
28722NA      NA88971   3.347   5.462   6.788 -0.6425  0.1354  0.1678
28723NA      NA88972   6.117   7.933   8.050  0.2485 -0.3808 -0.3810
28724NA      NA88973   0.575   7.393   0.567  0.4142  0.1454  0.4268
28725NA      NA88974   8.924   3.469   2.380  0.1960  0.0452  0.3328
28726NA      NA88975   1.505   5.483   8.840 -0.0775 -0.1231  0.0258
28727NA      NA88976   4.131   0.368   0.741  0.3634 -0.4934  0.0008
28728NA      NA88977   1.220   6.401   0.691 -0.1342  0.5690 -0.0018
28729NA      NA88978   9.527   5.445   6.224 -0.2717  0.5098  0.0613
28730NA      NA88979   3.088   5.167   0.331  0.6198 -0.7054  0.0742
28731NA      NA88980   2.939   4.657   8.341  0.0476  0.0319  0.3803
28732NA      NA88981   1.566   5.139   8.006 -0.1864 -0.0447  0.2685
28733NA      NA88982   2.900   4.940   0.557 -0.5454  0.0029  0.7299
28734NA      NA88983   5.157   6.176   4.494 -0.2432  0.3156  0.0579
28735NA      NA88984   2.656   7.809   6.743 -0.0705  0.1035 -0.0495
28736NA      NA88985   8.811   1.620   1.505  0.4250  0.3420 -0.4835
28737NA      NA88986   5.038   0.547   6.777 -0.0204 -0.1457 -0.5095
28738NA      NA88987   3.999   8.738   2.469 -0.7378 -0.0247 -0.2236
28739NA      NA88988   1.092   7.666   7.242 -0.0667  0.3447 -0.4181
28740NA      NA88989   3.064   5.484   0.216  0.5072  0.3232 -0.1438
28741NA      NA88990   7.585   0.969   7.852  0.2099  0.6663 -0.1742
28742NA      NA88991   7.754   4.001   6.391  0.5491  0.4435  0.5518
28743NA      NA88992   1.416   7.571   7.210  0.0686  0.0349  0.4504
28744NA      NA88993   4.979   3.526   4.157 -0.4681 -0.4473 -0.2223
28745NA      NA88994   5.269   0.000   8.723  0.7727 -0.3695 -0.0670
28746NA      NA88995   2.624   5.862   0.932  0.1840 -0.1608 -0.0718
28747NA      NA88996   1.550   0.226   3.501 -0.1593  0.2451  0.2645
28748NA      NA88997   3.260   5.485   7.779  0.0263 -0.0564  0.1391
28749NA      NA88998   0.191   2.727   3.140  0.0388 -0.2247  0.5375
28750NA      NA88999   7.366   1.578   7.337  0.2634  0.0637  0.2860
28751NA      NA89000   2.546   5.598   2.604 -0.1288 -0.0656 -0.3246
28752NA      NA89001   1.628   6.058   7.888 -0.7423 -0.0640  0.3594
28753NA      NA89002   6.482   8.855   5.159  0.5336  0.3943 -0.0397
28754NA      NA89003   7.364   7.017   3.261 -0.1721  0.1899 -0.1766
28755NA      NA89004   5.236   6.089   7.666  0.3743 -0.0225  0.1736
28756NA      NA89005   2.930   0.099   2.028 -0.4621  0.5961 -0.2224
28757NA      NA89006   0.973   6.178   7.147 -0.1601 -0.3199 -0.3587
28758NA      NA89007   1.968   5.493   8.144 -0.1243 -0.2439  0.2208
28759NA      NA89008   3.091   5.665   7.981  0.4445  0.1239  0.0455
28760NA      NA89009   4.447   4.527   8.923  0.2420  0.7264  0.2060
28761NA      NA89010   1.214   4.661   9.523 -0.0382  0.2590  0.3224
28762NA      NA89011   8.129   0.127   4.420  0.4255  0.0544 -0.1980
28763NA      NA89012   6.831   2.733   1.530 -0.3105  0.3549 -0.0421
28764NA      NA89013   0.189   6.121   9.135 -0.1123 -0.2727 -0.4816
28765NA      NA89014   1.005   8.660   7.851  0.3187 -0.5501  0.5049
28766NA      NA89015   1.219   6.596   8.994 -0.1822  0.3710 -0.4196
28767NA      NA89016   9.632   7.520   9.218 -0.1299 -0.2129  0.0736
28768NA      NA89017   0.265   8.001   8.631 -0.2876  0.5112 -0.0032
28769NA      NA89018   2.108   6.167   0.638 -0.0022  0.0771 -0.4001
28770NA      NA89019   0.400   5.919   9.291  0.4037 -0.3187  0.4194
28771NA      NA89020   4.943   9.392   4.005  0.1263 -0.4574 -0.1086
28772NA      NA89021   1.220   6.581   0.141  0.5399 -0.7071  0.1139
28773NA      NA89022   9.516   6.606   9.631 -0.3702 -0.4454 -0.1209
28774NA      NA89023   8.372   5.330   2.015  0.0729  0.0694 -0.0248
28775NA      NA89024   2.419   7.120   7.873  0.1783  0.1416 -0.4104
28776NA      NA89025   6.018   6.814   4.172  0.1525  0.0008  0.4012
28777NA      NA89026   9.199   3.558   0.948  0.3168  0.8329 -0.1076
28778NA      NA89027   6.085   0.250   3.584  0.1501 -0.3246 -0.5653
28779NA      NA89028   1.123   6.878   6.812 -0.0885 -0.1892 -0.2737
28780NA      NA89029   2.443   6.810   7.844 -0.1653 -0.4263 -0.3444
28781NA      NA89030   3.438   8.350   7.503 -0.7694 -0.2634  0.0815
28782NA      NA89031   2.352   6.947   0.478 -0.5088  0.1312  0.0869
28783NA      NA89032   8.133   5.224   4.389 -0.0362  0.0167  0.2079
28784NA      NA89033   3.262   6.598   7.973  0.0623  0.0891 -0.2178
28785NA      NA89034   2.905   7.680   6.870  0.4295 -0.0935 -0.0544
28786NA      NA89035   2.292   4.412   9.340  0.5315  0.0502  0.1215
28787NA      NA89036   9.138   7.190   6.563  0.4660 -0.1595 -0.1991
28788NA      NA89037   4.501   8.080   6.360 -0.0159 -0.2830  0.2123
28789NA      NA89038   2.903   8.946   7.438  0.7473 -0.1662 -0.0477
28790NA      NA89039   4.814   3.654   7.631  0.1069  0.2597 -0.4544
28791NA      NA89040   4.365   6.228   0.300 -0.0964 -0.0618 -0.2085
28792NA      NA89041   0.886   8.689   8.184  0.4708 -0.6145  0.3593
28793NA      NA89042   9.637   6.458   6.831  0.0993 -0.3278  0.1296
28794NA      NA89043   1.206   7.355   7.228  0.0050  0.1019 -0.2082
28795NA      NA89044   1.342   0.452   0.617 -0.1856  0.2524 -0.0102
28796NA      NA89045   0.536   7.514   0.287 -0.0494  0.0858 -0.1054
28797NA      NA89046   3.155   5.414   0.494  0.2177  0.4413  0.4518
28798NA      NA89047   1.172   6.590   0.425  0.2429  0.1567 -0.3837
28799NA      NA89048   4.012   4.312   3.818  0.1838 -0.1839  0.2475
28800NA      NA89049   1.036   6.298   0.452 -0.0648  0.1355  0.3876
28801NA      NA89050   4.139   5.750   3.628 -0.1752  0.4853 -0.1222
28802NA      NA89051   3.833   5.000   9.520 -0.1056  0.2615 -0.3786
28803NA      NA89052   1.205   6.259   9.298  0.1939 -0.0234 -0.0542
28804NA      NA89053   4.191   6.986   9.281  0.5493 -0.3735 -0.0391
28805NA      NA89054   0.576   5.803   6.301 -0.4731 -0.1197 -0.0800
28806NA      NA89055   1.045   5.957   6.617 -0.0112  0.0432  0.1781
28807NA      NA89056   1.227   7.855   7.026  0.2379  0.2232  0.1457
28808NA      NA89057   4.272   6.547   8.059 -0.4910  0.2710  0.5346
28809NA      NA89058   1.169   6.404   7.055  0.1708 -0.1054 -0.0209
28810NA      NA89059   2.539   6.202   7.209 -0.0901  0.2523 -0.3153
28811NA      NA89060   6.202   2.453   7.857 -0.2001 -0.6007 -0.3851
28812NA      NA89061   4.081   6.395   0.239 -0.0157  0.1399  0.1847
28813NA      NA89062   2.099   0.470   8.082  0.0522  0.1593 -0.1905
28814NA      NA89063   1.812   5.286   7.915  0.6600 -0.3465 -0.1374
28815NA      NA89064   4.184   8.037   8.559  0.2166 -0.1697 -0.1168
28816NA      NA89065   0.852   7.498   0.710  0.3000  0.2433 -0.2713
28817NA      NA89066   3.364   6.617   7.674  0.2322 -0.5059 -0.0491
28818NA      NA89067   3.850   6.260   8.653  0.1434  0.0923  0.0250
28819NA      NA89068   4.348   4.647   2.740 -0.0406  0.1332  0.1798
28820NA      NA89069   0.205   6.543   6.638  0.6430 -0.5204  0.1385
28821NA      NA89070   1.623   2.910   6.885 -0.2551 -0.6771  0.1382
28822NA      NA89071   3.467   8.277   7.801  0.2006  0.4466 -0.0777
28823NA      NA89072   1.286   2.357   5.155  0.5389 -0.1393  0.5118
28824NA      NA89073   2.678   6.334   7.442  0.7744 -0.3960  0.1941
28825NA      NA89074   1.288   6.921   6.531 -0.3026  0.4042 -0.4136
28826NA      NA89075   4.450   3.052   1.567  0.3537  0.2434  0.2486
28827NA      NA89076   2.274   7.276   8.135 -0.0527 -0.1274  0.3597
28828NA      NA89077   8.245   7.371   2.911 -0.3374  0.0761 -0.0148
28829NA      NA89078   0.184   7.584   9.402  0.0945  0.2768  0.4686
28830NA      NA89079   6.501   3.559   8.275  0.3988  0.3061  0.3032
28831NA      NA89080   2.860   5.006   0.248  0.1224  0.1015  0.7106
28832NA      NA89081   3.276   8.590   7.427  0.0188  0.2586 -0.3405
28833NA      NA89082   2.777   6.364   7.163 -0.1190 -0.3869 -0.1805
28834NA      NA89083   3.260   5.852   7.816 -0.0626 -0.0359  0.1722
28835NA      NA89084   9.310   6.458   9.477  0.1830 -0.2316 -0.3874
28836NA      NA89085   8.016   3.449   4.157 -0.6921 -0.1114  0.1699
28837NA      NA89086   0.746   6.173   6.141 -0.1260 -0.4394  0.2100
28838NA      NA89087   3.646   4.761   9.417  0.2293  0.6246 -0.0267
28839NA      NA89088   3.761   4.802   0.067  0.4687 -0.1544 -0.4278
28840NA      NA89089   4.886   2.166   1.306 -0.2901  0.1315  0.2311
28841NA      NA89090   0.465   6.253   4.079  0.4141  0.2979 -0.4269
28842NA      NA89091   9.074   8.335   5.506 -0.3163 -0.0757 -0.2664
28843NA      NA89092   2.482   7.969   6.922  0.4007 -0.3800 -0.1187
28844NA      NA89093   7.543   3.466   5.738  0.1809 -0.5626  0.2567
28845NA      NA89094   2.633   8.228   4.747 -0.1454 -0.5905 -0.1503
28846NA      NA89095   4.761   3.330   6.971 -0.4187 -0.2229  0.0321
28847NA      NA89096   8.881   7.883   3.273  0.3157 -0.3042  0.0960
28848NA      NA89097   3.813   6.244   0.227 -0.1083 -0.4900  0.1342
28849NA      NA89098   9.210   6.766   0.098  0.4104  0.3356  0.5169
28850NA      NA89099   6.422   2.676   3.719  0.0100 -0.1407  0.0485
28851NA      NA89100   0.359   7.205   0.669 -0.3435  0.0909 -0.2023
28852NA      NA89101   1.948   7.922   7.780  0.0129 -0.2192 -0.4115
28853NA      NA89102   1.079   4.408   8.855  0.3106  0.4337  0.1643
28854NA      NA89103   3.836   6.341   0.483  0.3146 -0.4043 -0.2652
28855NA      NA89104   0.594   8.033   8.713 -0.0839  0.0479  0.1272
28856NA      NA89105   5.940   7.830   9.422 -0.5171  0.4023 -0.6348
28857NA      NA89106   3.883   6.602   0.336 -0.2127 -0.5537  0.0369
28858NA      NA89107   7.001   4.947   1.853 -0.0262 -0.0181 -0.5160
28859NA      NA89108   0.188   5.530   8.262 -0.1791  0.1534 -0.0656
28860NA      NA89109   2.117   6.942   0.872 -0.0579  0.7133  0.7835
28861NA      NA89110   3.237   6.663   4.467 -0.0440 -0.0101 -0.0344
28862NA      NA89111   5.596   2.208   7.900  0.0968 -0.2461 -0.3791
28863NA      NA89112   3.297   8.679   7.109 -0.1767 -0.2614  0.1419
28864NA      NA89113   0.844   8.411   7.949 -0.2517  0.1525 -0.3306
28865NA      NA89114   9.152   0.591   7.939  0.1063 -0.4594 -0.0642
28866NA      NA89115   4.149   7.822   8.277 -0.5409 -0.5457 -0.1651
28867NA      NA89116   2.870   6.565   1.744 -0.5468 -0.1418 -0.2926
28868NA      NA89117   9.265   7.531   0.002 -0.2643  0.2341 -0.5072
28869NA      NA89118   3.097   5.354   8.004 -0.0552  0.0916  0.3834
28870NA      NA89119   0.816   6.064   2.430  0.0054 -0.5282  0.0721
28871NA      NA89120   1.083   6.178   6.848  0.1860  0.7397  0.0364
28872NA      NA89121   2.719   6.539   6.934  0.0786  0.0590 -0.0601
28873NA      NA89122   8.195   3.197   7.363 -0.3051 -0.2847 -0.5304
28874NA      NA89123   3.471   6.671   8.158  0.1397 -0.3012 -0.1091
28875NA      NA89124   9.481   6.579   0.286  0.5886  0.0346 -0.4104
28876NA      NA89125   2.112   5.235   7.761 -0.3093  0.0658  0.0362
28877NA      NA89126   7.653   2.022   2.509 -0.2341  0.0853  0.1343
28878NA      NA89127   0.885   5.969   6.376 -0.3307  0.1374  0.1044
28879NA      NA89128   1.761   8.160   7.716 -0.3859 -0.0752  0.4888
28880NA      NA89129   1.954   8.388   7.812  0.3421  0.1592  0.2600
28881NA      NA89130   3.879   9.079   2.888  0.1936  0.8604 -0.0808
28882NA      NA89131   1.789   6.107   8.189 -0.0212 -0.1678  0.1354
28883NA      NA89132   3.712   8.434   7.761 -0.3490  0.1395  0.2036
28884NA      NA89133   9.461   8.345   7.309  0.2268  0.2074 -0.7362
28885NA      NA89134   1.209   4.441   9.247 -0.3335 -0.5464 -0.1953
28886NA      NA89135   2.201   4.524   9.055  0.1901  0.3102  0.2839
28887NA      NA89136   5.041   2.354   7.915 -0.3434  0.3202 -0.1731
28888NA      NA89137   0.121   5.808   8.364  0.0256  0.4808 -0.3899
28889NA      NA89138   2.081   5.206   8.119  0.0752 -0.0333  0.0169
28890CL      CL89139   8.692   7.995   8.288 -0.1136 -0.0492  0.2977
28891CL      CL89140   8.407   9.560   9.288 -0.6063  0.2713  0.1521
28892CL      CL89141   9.037   8.282   5.276 -0.3278  0.0267 -0.1438
28893CL      CL89142   7.870   1.033   4.038 -0.1149  0.0220 -0.4533
28894CL      CL89143   3.496   8.137   2.645  0.2424  0.2031  0.8357
28895CL      CL89144   6.495   7.457   0.138 -0.6260 -0.1573 -0.3473
28896CL      CL89145   0.807   2.802   4.093  0.3987  0.2399 -0.0552
28897CL      CL89146   4.904   8.554   9.053 -0.2736  0.0306  0.2120
28898CL      CL89147   4.248   2.468   5.760 -0.1548 -0.1027  0.1846
28899CL      CL89148   0.247   6.832   4.285  0.1159 -0.1048  0.4819
28900CL      CL89149   0.507   5.603   5.651  0.0923  0.3601 -0.3752
28901CL      CL89150   0.728   5.105   8.208  0.0174  0.1010  0.2055
28902CL      CL89151   3.912   8.368   3.913 -0.4955 -0.2262 -0.3177
28903CL      CL89152   3.343   0.218   0.461 -0.1135  0.1539 -0.4448
28904CL      CL89153   6.474   2.703   4.888 -0.1382 -0.1339  0.0905
28905CL      CL89154   9.177   6.463   7.709 -0.1742  0.4311 -0.0862
28906CL      CL89155   3.287   2.420   8.650  0.2842  0.1224  0.3556
28907CL      CL89156   0.748   3.097   0.665  0.4476 -0.2627  0.2883
28908CL      CL89157   6.682   7.476   4.078 -0.2204  0.1158 -0.0343
28909CL      CL89158   4.811   0.380   3.888 -0.6140 -0.1472 -0.0204
28910CL      CL89159   5.413   2.471   7.326 -0.0709 -0.2337  0.2166
28911CL      CL89160   2.938   9.058   7.236 -0.0651  0.0934 -0.4164
28912CL      CL89161   9.227   2.332   1.046  0.1682 -0.3392 -0.0725
28913CL      CL89162   4.664   6.407   8.164  0.1163  0.0126  0.0756
28914CL      CL89163   6.221   4.017   7.459 -0.2696  0.0300 -0.1214
28915CL      CL89164   8.280   4.505   4.387 -0.0521  0.2782  0.2072
28916CL      CL89165   7.490   0.433   3.739 -0.3420  0.1066  0.0033
28917CL      CL89166   9.328   7.903   3.256 -0.1355  0.0578 -0.5435
28918CL      CL89167   4.033   3.990   5.773  0.1770  0.0477  0.1811
28919CL      CL89168   9.153   6.358   2.370  0.1187 -0.0860 -0.0410
28920CL      CL89169   1.533   1.932   5.031 -0.0655  0.1519 -0.3810
28921CL      CL89170   3.257   3.841   3.509 -0.1967 -0.0931 -0.3902
28922CL      CL89171   4.906   2.688   6.983  0.1503  0.1139 -0.0546
28923CL      CL89172   0.291   6.055   4.650  0.2137 -0.2176  0.6525
28924CL      CL89173   8.630   2.066   3.471 -0.0847 -0.7494 -0.2477
28925CL      CL89174   6.362   8.963   3.490  0.3037  0.1337  0.1694
28926CL      CL89175   8.259   4.827   6.870 -0.2772 -0.4493  0.2864
28927CL      CL89176   1.275   0.643   4.296  0.0589  0.6950 -0.2035
28928CL      CL89177   4.274   6.507   3.088 -0.1998  0.1170  0.3477
28929CL      CL89178   8.783   7.154   4.933 -0.1355 -0.0367  0.0712
28930CL      CL89179   2.788   0.161   2.858 -0.2181  0.2925  0.1853
28931CL      CL89180   1.937   7.792   2.272 -0.0389 -0.3935  0.2885
28932CL      CL89181   6.348   0.486   8.452 -0.1694  0.1758 -0.0236
28933CL      CL89182   4.885   8.198   4.128 -0.0645  0.6345  0.3996
28934CL      CL89183   8.800   4.126   4.780  0.0446  0.2174 -0.1316
28935CL      CL89184   1.475   8.762   3.959  0.1822  0.1158  0.3665
28936CL      CL89185   4.246   6.700   1.721 -0.2211 -0.0294  0.4452
28937CL      CL89186   7.778   8.876   0.541 -0.2052 -0.1770 -0.1029
28938CL      CL89187   7.140   3.369   6.444 -0.3539  0.3052 -0.3254
28939CL      CL89188   6.424   3.386   3.762 -0.1020  0.0563  0.2653
28940CL      CL89189   8.588   3.861   2.432  0.3485 -0.3639  0.2517
28941CL      CL89190   7.210   1.238   7.549 -0.0292 -0.2617  0.2024
28942CL      CL89191   7.758   1.429   8.296  0.0458 -0.3494  0.2381
28943CL      CL89192   6.036   8.383   7.709 -0.0179 -0.1469 -0.0937
28944CL      CL89193   6.085   1.330   9.191  0.2452 -0.6466 -0.1242
28945CL      CL89194   1.622   1.194   9.574 -0.0232  0.4276 -0.4252
28946CL      CL89195   6.116   8.948   4.865  0.1456  0.2080  0.2791
28947CL      CL89196   5.556   7.467   0.122 -0.1442 -0.0088  0.3596
28948CL      CL89197   5.826   0.592   7.207  0.2807  0.0928 -0.2535
28949CL      CL89198   5.325   2.496   8.739  0.2306 -0.0456  0.0221
28950CL      CL89199   8.993   0.254   7.772  0.1548 -0.1200 -0.0686
28951CL      CL89200   3.160   8.258   1.243 -0.1771 -0.0853  0.4647
28952CL      CL89201   9.214   6.578   4.000  0.1907 -0.0246 -0.3161
28953CL      CL89202   7.026   2.158   2.224 -0.0184  0.2318  0.0600
28954CL      CL89203   5.665   6.276   3.683 -0.1382 -0.2477 -0.5096
28955CL      CL89204   4.253   3.100   1.085 -0.1045  0.0106 -0.2665
28956CL      CL89205   4.129   2.781   4.941  0.2011 -0.4050  0.0055
28957CL      CL89206   2.555   0.986   2.430 -0.3619  0.0585  0.1282
28958CL      CL89207   2.623   4.528   7.012  0.1133 -0.1885  0.0711
28959CL      CL89208   4.701   3.438   1.751  0.1416  0.1276  0.0262
28960CL      CL89209   9.322   7.728   2.159 -0.1207  0.2810 -0.0678
28961CL      CL89210   4.722   4.576   2.629  0.2636  0.0315  0.4235
28962CL      CL89211   2.791   6.707   3.067  0.0642  0.1713 -0.0300
28963CL      CL89212   8.692   7.138   2.109  0.4888  0.5453  0.2846
28964CL      CL89213   1.332   5.362   1.816  0.2115  0.0703 -0.2709
28965CL      CL89214   1.142   0.369   8.749  0.6163  0.3184  0.1282
28966CL      CL89215   1.214   9.291   0.683  0.2203 -0.1912  0.0016
28967CL      CL89216   8.159   2.769   5.781  0.0912  0.1781 -0.0760
28968CL      CL89217   8.020   7.819   3.004 -0.0137 -0.0762  0.1658
28969CL      CL89218   1.715   5.707   4.824  0.3189  0.0208 -0.0127
28970CL      CL89219   6.935   5.271   4.458 -0.1687  0.0943  0.4013
28971CL      CL89220   7.865   4.692   1.880  0.0663  0.1241 -0.0299
28972CL      CL89221   6.343   8.881   1.238 -0.1190 -0.0729 -0.3261
   9.64430   9.64430   9.64430
