;
;   File g2.5dpOcore_cooh_petim.itp  was generated
;   By user: sairam (1000)
;   On host: sairam
;   At date: Mon. February  1 15:58:36 2025
;
;   This is a standalone topology file
;
;   Created by:
;   ParmEd:       amb2gro_top_gro.py, VERSION 3.4.1
;   Executable:   amb2gro_top_gro.py
;   Library dir:  /usr/local/gromacs/share/gromacs/top
;   Command line:
;     ./amb2gro_top_gro.py -p g2.5dpOcore_cooh_petim.prmtop -c g2.5dpOcore_cooh_petim.inpcrd -t g2.5dpOcore_cooh_petim.itp -g g2.5dpOcore_cooh_petim.gro -b g2.5dpOcore_cooh_petim.pdb
;

;[ defaults ]
;; nbfunc        comb-rule       gen-pairs       fudgeLJ fudgeQQ
;1               2               yes             0.5          0.83333333  
;
;[ atomtypes ]
;; name    at.num    mass    charge ptype  sigma      epsilon
;os             8  16.000000  0.00000000  A     0.30000123        0.71128
;c3             6  12.010000  0.00000000  A     0.33996695      0.4577296
;h1             1   1.008000  0.00000000  A      0.2471353      0.0656888
;hc             1   1.008000  0.00000000  A     0.26495328      0.0656888
;hx             1   1.008000  0.00000000  A     0.19599772      0.0656888
;n4             7  14.010000  0.00000000  A     0.32499985        0.71128
;hn             1   1.008000  0.00000000  A     0.10690785      0.0656888
;c              6  12.010000  0.00000000  A     0.33996695       0.359824
;o              8  16.000000  0.00000000  A     0.29599219        0.87864
;oh             8  16.000000  0.00000000  A     0.30664734      0.8803136
;ho             1   1.008000  0.00000000  A              0              0


[ moleculetype ]
; Name            nrexcl
g2.5dpOcore_cooh_petim          3

[ atoms ]
;   nr       type  resnr residue  atom   cgnr    charge       mass  typeB    chargeB      massB
; residue    1 aaa rtp aaa q 2.0
    1         os      1    aaa     O1      1 -0.58111400  16.000000   ; qtot -0.581114
    2         c3      1    aaa     C1      2 0.17711200  12.010000   ; qtot -0.404002
    3         h1      1    aaa     H1      3 0.04565000   1.008000   ; qtot -0.358352
    4         h1      1    aaa     H2      4 0.04565000   1.008000   ; qtot -0.312702
    5         c3      1    aaa     C2      5 0.17711200  12.010000   ; qtot -0.135590
    6         h1      1    aaa     H3      6 0.04565000   1.008000   ; qtot -0.089940
    7         h1      1    aaa     H4      7 0.04565000   1.008000   ; qtot -0.044290
    8         c3      1    aaa     C3      8 0.15102100  12.010000   ; qtot 0.106731
    9         hc      1    aaa     H5      9 0.02538500   1.008000   ; qtot 0.132116
   10         hc      1    aaa     H6     10 0.02538500   1.008000   ; qtot 0.157501
   11         c3      1    aaa     C4     11 0.15102100  12.010000   ; qtot 0.308522
   12         hc      1    aaa     H7     12 0.02538500   1.008000   ; qtot 0.333907
   13         hc      1    aaa     H8     13 0.02538500   1.008000   ; qtot 0.359292
   14         c3      1    aaa     C5     14 -0.29474300  12.010000   ; qtot 0.064549
   15         hx      1    aaa     H9     15 0.12534200   1.008000   ; qtot 0.189891
   16         hx      1    aaa    H10     16 0.12534200   1.008000   ; qtot 0.315233
   17         c3      1    aaa     C6     17 -0.29474300  12.010000   ; qtot 0.020490
   18         hx      1    aaa    H11     18 0.12534200   1.008000   ; qtot 0.145832
   19         hx      1    aaa    H12     19 0.12534200   1.008000   ; qtot 0.271174
   20         n4      1    aaa     N1     20 -0.11447800  14.010000   ; qtot 0.156696
   21         n4      1    aaa     N2     21 -0.11447800  14.010000   ; qtot 0.042218
   22         c3      1    aaa     C7     22 -0.03432800  12.010000   ; qtot 0.007890
   23         hx      1    aaa    H13     23 0.10515400   1.008000   ; qtot 0.113044
   24         hx      1    aaa    H14     24 0.10515400   1.008000   ; qtot 0.218198
   25         c3      1    aaa     C8     25 -0.03432800  12.010000   ; qtot 0.183870
   26         hx      1    aaa    H15     26 0.10515400   1.008000   ; qtot 0.289024
   27         hx      1    aaa    H16     27 0.10515400   1.008000   ; qtot 0.394178
   28         c3      1    aaa     C9     28 -0.03432800  12.010000   ; qtot 0.359850
   29         hx      1    aaa    H17     29 0.10515400   1.008000   ; qtot 0.465004
   30         hx      1    aaa    H18     30 0.10515400   1.008000   ; qtot 0.570158
   31         c3      1    aaa    C10     31 -0.03432800  12.010000   ; qtot 0.535830
   32         hx      1    aaa    H19     32 0.10515400   1.008000   ; qtot 0.640984
   33         hx      1    aaa    H20     33 0.10515400   1.008000   ; qtot 0.746138
   34         c3      1    aaa    C11     34 -0.06183200  12.010000   ; qtot 0.684306
   35         hc      1    aaa    H21     35 0.08865200   1.008000   ; qtot 0.772958
   36         hc      1    aaa    H22     36 0.08865200   1.008000   ; qtot 0.861610
   37         c3      1    aaa    C12     37 -0.06183200  12.010000   ; qtot 0.799778
   38         hc      1    aaa    H23     38 0.08865200   1.008000   ; qtot 0.888430
   39         hc      1    aaa    H24     39 0.08865200   1.008000   ; qtot 0.977082
   40         c3      1    aaa    C13     40 -0.06183200  12.010000   ; qtot 0.915250
   41         hc      1    aaa    H25     41 0.08865200   1.008000   ; qtot 1.003902
   42         hc      1    aaa    H26     42 0.08865200   1.008000   ; qtot 1.092554
   43         c3      1    aaa    C14     43 -0.06183200  12.010000   ; qtot 1.030722
   44         hc      1    aaa    H27     44 0.08865200   1.008000   ; qtot 1.119374
   45         hc      1    aaa    H28     45 0.08865200   1.008000   ; qtot 1.208026
   46         c3      1    aaa    C15     46 -0.22217300  12.010000   ; qtot 0.985853
   47         hc      1    aaa    H29     47 0.16441900   1.008000   ; qtot 1.150272
   48         hc      1    aaa    H30     48 0.16441900   1.008000   ; qtot 1.314691
   49         c3      1    aaa    C16     49 -0.22217300  12.010000   ; qtot 1.092518
   50         hc      1    aaa    H31     50 0.16441900   1.008000   ; qtot 1.256937
   51         hc      1    aaa    H32     51 0.16441900   1.008000   ; qtot 1.421356
   52         c3      1    aaa    C17     52 -0.22217300  12.010000   ; qtot 1.199183
   53         hc      1    aaa    H33     53 0.16441900   1.008000   ; qtot 1.363602
   54         hc      1    aaa    H34     54 0.16441900   1.008000   ; qtot 1.528021
   55         c3      1    aaa    C18     55 -0.22217300  12.010000   ; qtot 1.305848
   56         hc      1    aaa    H35     56 0.16441900   1.008000   ; qtot 1.470267
   57         hc      1    aaa    H36     57 0.16441900   1.008000   ; qtot 1.634686
   58         hn      1    aaa    H38     58 0.18266300   1.008000   ; qtot 1.817349
   59         hn      1    aaa    H37     59 0.18266300   1.008000   ; qtot 2.000012
; residue    2 bbb rtp bbb q 1.0
   60         n4      2    bbb     N1     60 0.03726400  14.010000   ; qtot 2.037276
   61         c3      2    bbb     C1     61 -0.07020100  12.010000   ; qtot 1.967075
   62         hx      2    bbb     H1     62 0.12219000   1.008000   ; qtot 2.089265
   63         hx      2    bbb     H2     63 0.12219000   1.008000   ; qtot 2.211455
   64         c3      2    bbb     C2     64 -0.07020100  12.010000   ; qtot 2.141254
   65         hx      2    bbb     H3     65 0.12219000   1.008000   ; qtot 2.263444
   66         hx      2    bbb     H4     66 0.12219000   1.008000   ; qtot 2.385634
   67         c3      2    bbb     C3     67 -0.39007700  12.010000   ; qtot 1.995557
   68         hx      2    bbb     H5     68 0.14940300   1.008000   ; qtot 2.144960
   69         hx      2    bbb     H6     69 0.14940300   1.008000   ; qtot 2.294363
   70         c3      2    bbb     C4     70 0.18057300  12.010000   ; qtot 2.474936
   71         hc      2    bbb     H7     71 0.01788900   1.008000   ; qtot 2.492825
   72         hc      2    bbb     H8     72 0.01788900   1.008000   ; qtot 2.510714
   73         c3      2    bbb     C5     73 -0.11337700  12.010000   ; qtot 2.397337
   74         hc      2    bbb     H9     74 0.09515400   1.008000   ; qtot 2.492491
   75         hc      2    bbb    H10     75 0.09515400   1.008000   ; qtot 2.587645
   76         c3      2    bbb     C6     76 -0.11337700  12.010000   ; qtot 2.474268
   77         hc      2    bbb    H11     77 0.09515400   1.008000   ; qtot 2.569422
   78         hc      2    bbb    H12     78 0.09515400   1.008000   ; qtot 2.664576
   79         c3      2    bbb     C7     79 0.21842400  12.010000   ; qtot 2.883000
   80         h1      2    bbb    H13     80 0.04500300   1.008000   ; qtot 2.928003
   81         h1      2    bbb    H14     81 0.04500300   1.008000   ; qtot 2.973006
   82         c3      2    bbb     C8     82 -0.06455200  12.010000   ; qtot 2.908454
   83         h1      2    bbb    H15     83 0.13554100   1.008000   ; qtot 3.043995
   84         h1      2    bbb    H16     84 0.13554100   1.008000   ; qtot 3.179536
   85         c3      2    bbb     C9     85 -0.06455200  12.010000   ; qtot 3.114984
   86         h1      2    bbb    H17     86 0.13554100   1.008000   ; qtot 3.250525
   87         h1      2    bbb    H18     87 0.13554100   1.008000   ; qtot 3.386066
   88         os      2    bbb     O1     88 -0.62587700  16.000000   ; qtot 2.760189
   89         hn      2    bbb    H19     89 0.23982500   1.008000   ; qtot 3.000014
; residue    3 bbb rtp bbb q 1.0
   90         n4      3    bbb     N1     90 0.03726400  14.010000   ; qtot 3.037278
   91         c3      3    bbb     C1     91 -0.07020100  12.010000   ; qtot 2.967077
   92         hx      3    bbb     H1     92 0.12219000   1.008000   ; qtot 3.089267
   93         hx      3    bbb     H2     93 0.12219000   1.008000   ; qtot 3.211457
   94         c3      3    bbb     C2     94 -0.07020100  12.010000   ; qtot 3.141256
   95         hx      3    bbb     H3     95 0.12219000   1.008000   ; qtot 3.263446
   96         hx      3    bbb     H4     96 0.12219000   1.008000   ; qtot 3.385636
   97         c3      3    bbb     C3     97 -0.39007700  12.010000   ; qtot 2.995559
   98         hx      3    bbb     H5     98 0.14940300   1.008000   ; qtot 3.144962
   99         hx      3    bbb     H6     99 0.14940300   1.008000   ; qtot 3.294365
  100         c3      3    bbb     C4    100 0.18057300  12.010000   ; qtot 3.474938
  101         hc      3    bbb     H7    101 0.01788900   1.008000   ; qtot 3.492827
  102         hc      3    bbb     H8    102 0.01788900   1.008000   ; qtot 3.510716
  103         c3      3    bbb     C5    103 -0.11337700  12.010000   ; qtot 3.397339
  104         hc      3    bbb     H9    104 0.09515400   1.008000   ; qtot 3.492493
  105         hc      3    bbb    H10    105 0.09515400   1.008000   ; qtot 3.587647
  106         c3      3    bbb     C6    106 -0.11337700  12.010000   ; qtot 3.474270
  107         hc      3    bbb    H11    107 0.09515400   1.008000   ; qtot 3.569424
  108         hc      3    bbb    H12    108 0.09515400   1.008000   ; qtot 3.664578
  109         c3      3    bbb     C7    109 0.21842400  12.010000   ; qtot 3.883002
  110         h1      3    bbb    H13    110 0.04500300   1.008000   ; qtot 3.928005
  111         h1      3    bbb    H14    111 0.04500300   1.008000   ; qtot 3.973008
  112         c3      3    bbb     C8    112 -0.06455200  12.010000   ; qtot 3.908456
  113         h1      3    bbb    H15    113 0.13554100   1.008000   ; qtot 4.043997
  114         h1      3    bbb    H16    114 0.13554100   1.008000   ; qtot 4.179538
  115         c3      3    bbb     C9    115 -0.06455200  12.010000   ; qtot 4.114986
  116         h1      3    bbb    H17    116 0.13554100   1.008000   ; qtot 4.250527
  117         h1      3    bbb    H18    117 0.13554100   1.008000   ; qtot 4.386068
  118         os      3    bbb     O1    118 -0.62587700  16.000000   ; qtot 3.760191
  119         hn      3    bbb    H19    119 0.23982500   1.008000   ; qtot 4.000016
; residue    4 bbb rtp bbb q 1.0
  120         n4      4    bbb     N1    120 0.03726400  14.010000   ; qtot 4.037280
  121         c3      4    bbb     C1    121 -0.07020100  12.010000   ; qtot 3.967079
  122         hx      4    bbb     H1    122 0.12219000   1.008000   ; qtot 4.089269
  123         hx      4    bbb     H2    123 0.12219000   1.008000   ; qtot 4.211459
  124         c3      4    bbb     C2    124 -0.07020100  12.010000   ; qtot 4.141258
  125         hx      4    bbb     H3    125 0.12219000   1.008000   ; qtot 4.263448
  126         hx      4    bbb     H4    126 0.12219000   1.008000   ; qtot 4.385638
  127         c3      4    bbb     C3    127 -0.39007700  12.010000   ; qtot 3.995561
  128         hx      4    bbb     H5    128 0.14940300   1.008000   ; qtot 4.144964
  129         hx      4    bbb     H6    129 0.14940300   1.008000   ; qtot 4.294367
  130         c3      4    bbb     C4    130 0.18057300  12.010000   ; qtot 4.474940
  131         hc      4    bbb     H7    131 0.01788900   1.008000   ; qtot 4.492829
  132         hc      4    bbb     H8    132 0.01788900   1.008000   ; qtot 4.510718
  133         c3      4    bbb     C5    133 -0.11337700  12.010000   ; qtot 4.397341
  134         hc      4    bbb     H9    134 0.09515400   1.008000   ; qtot 4.492495
  135         hc      4    bbb    H10    135 0.09515400   1.008000   ; qtot 4.587649
  136         c3      4    bbb     C6    136 -0.11337700  12.010000   ; qtot 4.474272
  137         hc      4    bbb    H11    137 0.09515400   1.008000   ; qtot 4.569426
  138         hc      4    bbb    H12    138 0.09515400   1.008000   ; qtot 4.664580
  139         c3      4    bbb     C7    139 0.21842400  12.010000   ; qtot 4.883004
  140         h1      4    bbb    H13    140 0.04500300   1.008000   ; qtot 4.928007
  141         h1      4    bbb    H14    141 0.04500300   1.008000   ; qtot 4.973010
  142         c3      4    bbb     C8    142 -0.06455200  12.010000   ; qtot 4.908458
  143         h1      4    bbb    H15    143 0.13554100   1.008000   ; qtot 5.043999
  144         h1      4    bbb    H16    144 0.13554100   1.008000   ; qtot 5.179540
  145         c3      4    bbb     C9    145 -0.06455200  12.010000   ; qtot 5.114988
  146         h1      4    bbb    H17    146 0.13554100   1.008000   ; qtot 5.250529
  147         h1      4    bbb    H18    147 0.13554100   1.008000   ; qtot 5.386070
  148         os      4    bbb     O1    148 -0.62587700  16.000000   ; qtot 4.760193
  149         hn      4    bbb    H19    149 0.23982500   1.008000   ; qtot 5.000018
; residue    5 bbb rtp bbb q 1.0
  150         n4      5    bbb     N1    150 0.03726400  14.010000   ; qtot 5.037282
  151         c3      5    bbb     C1    151 -0.07020100  12.010000   ; qtot 4.967081
  152         hx      5    bbb     H1    152 0.12219000   1.008000   ; qtot 5.089271
  153         hx      5    bbb     H2    153 0.12219000   1.008000   ; qtot 5.211461
  154         c3      5    bbb     C2    154 -0.07020100  12.010000   ; qtot 5.141260
  155         hx      5    bbb     H3    155 0.12219000   1.008000   ; qtot 5.263450
  156         hx      5    bbb     H4    156 0.12219000   1.008000   ; qtot 5.385640
  157         c3      5    bbb     C3    157 -0.39007700  12.010000   ; qtot 4.995563
  158         hx      5    bbb     H5    158 0.14940300   1.008000   ; qtot 5.144966
  159         hx      5    bbb     H6    159 0.14940300   1.008000   ; qtot 5.294369
  160         c3      5    bbb     C4    160 0.18057300  12.010000   ; qtot 5.474942
  161         hc      5    bbb     H7    161 0.01788900   1.008000   ; qtot 5.492831
  162         hc      5    bbb     H8    162 0.01788900   1.008000   ; qtot 5.510720
  163         c3      5    bbb     C5    163 -0.11337700  12.010000   ; qtot 5.397343
  164         hc      5    bbb     H9    164 0.09515400   1.008000   ; qtot 5.492497
  165         hc      5    bbb    H10    165 0.09515400   1.008000   ; qtot 5.587651
  166         c3      5    bbb     C6    166 -0.11337700  12.010000   ; qtot 5.474274
  167         hc      5    bbb    H11    167 0.09515400   1.008000   ; qtot 5.569428
  168         hc      5    bbb    H12    168 0.09515400   1.008000   ; qtot 5.664582
  169         c3      5    bbb     C7    169 0.21842400  12.010000   ; qtot 5.883006
  170         h1      5    bbb    H13    170 0.04500300   1.008000   ; qtot 5.928009
  171         h1      5    bbb    H14    171 0.04500300   1.008000   ; qtot 5.973012
  172         c3      5    bbb     C8    172 -0.06455200  12.010000   ; qtot 5.908460
  173         h1      5    bbb    H15    173 0.13554100   1.008000   ; qtot 6.044001
  174         h1      5    bbb    H16    174 0.13554100   1.008000   ; qtot 6.179542
  175         c3      5    bbb     C9    175 -0.06455200  12.010000   ; qtot 6.114990
  176         h1      5    bbb    H17    176 0.13554100   1.008000   ; qtot 6.250531
  177         h1      5    bbb    H18    177 0.13554100   1.008000   ; qtot 6.386072
  178         os      5    bbb     O1    178 -0.62587700  16.000000   ; qtot 5.760195
  179         hn      5    bbb    H19    179 0.23982500   1.008000   ; qtot 6.000020
; residue    6 ccc rtp ccc q 1.0
  180         c3      6    ccc     C1    180 0.14608100  12.010000   ; qtot 6.146101
  181         h1      6    ccc     H1    181 0.06738100   1.008000   ; qtot 6.213482
  182         h1      6    ccc     H2    182 0.06738100   1.008000   ; qtot 6.280863
  183         c3      6    ccc     C2    183 -0.14571900  12.010000   ; qtot 6.135144
  184         hc      6    ccc     H3    184 0.08688100   1.008000   ; qtot 6.222025
  185         hc      6    ccc     H4    185 0.08688100   1.008000   ; qtot 6.308906
  186         c3      6    ccc     C3    186 0.12348100  12.010000   ; qtot 6.432387
  187         hx      6    ccc     H5    187 0.10638100   1.008000   ; qtot 6.538768
  188         hx      6    ccc     H6    188 0.10638100   1.008000   ; qtot 6.645149
  189         n4      6    ccc     N1    189 -0.69071900  14.010000   ; qtot 5.954430
  190         c3      6    ccc     C4    190 0.12498100  12.010000   ; qtot 6.079411
  191         hx      6    ccc     H7    191 0.12238100   1.008000   ; qtot 6.201792
  192         hx      6    ccc     H8    192 0.12238100   1.008000   ; qtot 6.324173
  193         c3      6    ccc     C5    193 -0.20771900  12.010000   ; qtot 6.116454
  194         hc      6    ccc     H9    194 0.11463100   1.008000   ; qtot 6.231085
  195         hc      6    ccc    H10    195 0.11463100   1.008000   ; qtot 6.345716
  196          c      6    ccc     C6    196 0.64078100  12.010000   ; qtot 6.986497
  197          o      6    ccc     O1    197 -0.49231900  16.000000   ; qtot 6.494178
  198         oh      6    ccc     O2    198 -0.51841900  16.000000   ; qtot 5.975759
  199         ho      6    ccc    H11    199 0.45318100   1.008000   ; qtot 6.428940
  200         c3      6    ccc     C7    200 0.12498100  12.010000   ; qtot 6.553921
  201         hx      6    ccc    H12    201 0.12238100   1.008000   ; qtot 6.676302
  202         hx      6    ccc    H13    202 0.12238100   1.008000   ; qtot 6.798683
  203         c3      6    ccc     C8    203 -0.20771900  12.010000   ; qtot 6.590964
  204         hc      6    ccc    H14    204 0.11463100   1.008000   ; qtot 6.705595
  205         hc      6    ccc    H15    205 0.11463100   1.008000   ; qtot 6.820226
  206          c      6    ccc     C9    206 0.64078100  12.010000   ; qtot 7.461007
  207          o      6    ccc     O3    207 -0.49231900  16.000000   ; qtot 6.968688
  208         oh      6    ccc     O4    208 -0.51841900  16.000000   ; qtot 6.450269
  209         ho      6    ccc    H16    209 0.45318100   1.008000   ; qtot 6.903450
  210         os      6    ccc     O5    210 -0.39491900  16.000000   ; qtot 6.508531
  211         hn      6    ccc    H17    211 0.49148100   1.008000   ; qtot 7.000012
; residue    7 ccc rtp ccc q 1.0
  212         c3      7    ccc     C1    212 0.14608100  12.010000   ; qtot 7.146093
  213         h1      7    ccc     H1    213 0.06738100   1.008000   ; qtot 7.213474
  214         h1      7    ccc     H2    214 0.06738100   1.008000   ; qtot 7.280855
  215         c3      7    ccc     C2    215 -0.14571900  12.010000   ; qtot 7.135136
  216         hc      7    ccc     H3    216 0.08688100   1.008000   ; qtot 7.222017
  217         hc      7    ccc     H4    217 0.08688100   1.008000   ; qtot 7.308898
  218         c3      7    ccc     C3    218 0.12348100  12.010000   ; qtot 7.432379
  219         hx      7    ccc     H5    219 0.10638100   1.008000   ; qtot 7.538760
  220         hx      7    ccc     H6    220 0.10638100   1.008000   ; qtot 7.645141
  221         n4      7    ccc     N1    221 -0.69071900  14.010000   ; qtot 6.954422
  222         c3      7    ccc     C4    222 0.12498100  12.010000   ; qtot 7.079403
  223         hx      7    ccc     H7    223 0.12238100   1.008000   ; qtot 7.201784
  224         hx      7    ccc     H8    224 0.12238100   1.008000   ; qtot 7.324165
  225         c3      7    ccc     C5    225 -0.20771900  12.010000   ; qtot 7.116446
  226         hc      7    ccc     H9    226 0.11463100   1.008000   ; qtot 7.231077
  227         hc      7    ccc    H10    227 0.11463100   1.008000   ; qtot 7.345708
  228          c      7    ccc     C6    228 0.64078100  12.010000   ; qtot 7.986489
  229          o      7    ccc     O1    229 -0.49231900  16.000000   ; qtot 7.494170
  230         oh      7    ccc     O2    230 -0.51841900  16.000000   ; qtot 6.975751
  231         ho      7    ccc    H11    231 0.45318100   1.008000   ; qtot 7.428932
  232         c3      7    ccc     C7    232 0.12498100  12.010000   ; qtot 7.553913
  233         hx      7    ccc    H12    233 0.12238100   1.008000   ; qtot 7.676294
  234         hx      7    ccc    H13    234 0.12238100   1.008000   ; qtot 7.798675
  235         c3      7    ccc     C8    235 -0.20771900  12.010000   ; qtot 7.590956
  236         hc      7    ccc    H14    236 0.11463100   1.008000   ; qtot 7.705587
  237         hc      7    ccc    H15    237 0.11463100   1.008000   ; qtot 7.820218
  238          c      7    ccc     C9    238 0.64078100  12.010000   ; qtot 8.460999
  239          o      7    ccc     O3    239 -0.49231900  16.000000   ; qtot 7.968680
  240         oh      7    ccc     O4    240 -0.51841900  16.000000   ; qtot 7.450261
  241         ho      7    ccc    H16    241 0.45318100   1.008000   ; qtot 7.903442
  242         os      7    ccc     O5    242 -0.39491900  16.000000   ; qtot 7.508523
  243         hn      7    ccc    H17    243 0.49148100   1.008000   ; qtot 8.000004
; residue    8 ccc rtp ccc q 1.0
  244         c3      8    ccc     C1    244 0.14608100  12.010000   ; qtot 8.146085
  245         h1      8    ccc     H1    245 0.06738100   1.008000   ; qtot 8.213466
  246         h1      8    ccc     H2    246 0.06738100   1.008000   ; qtot 8.280847
  247         c3      8    ccc     C2    247 -0.14571900  12.010000   ; qtot 8.135128
  248         hc      8    ccc     H3    248 0.08688100   1.008000   ; qtot 8.222009
  249         hc      8    ccc     H4    249 0.08688100   1.008000   ; qtot 8.308890
  250         c3      8    ccc     C3    250 0.12348100  12.010000   ; qtot 8.432371
  251         hx      8    ccc     H5    251 0.10638100   1.008000   ; qtot 8.538752
  252         hx      8    ccc     H6    252 0.10638100   1.008000   ; qtot 8.645133
  253         n4      8    ccc     N1    253 -0.69071900  14.010000   ; qtot 7.954414
  254         c3      8    ccc     C4    254 0.12498100  12.010000   ; qtot 8.079395
  255         hx      8    ccc     H7    255 0.12238100   1.008000   ; qtot 8.201776
  256         hx      8    ccc     H8    256 0.12238100   1.008000   ; qtot 8.324157
  257         c3      8    ccc     C5    257 -0.20771900  12.010000   ; qtot 8.116438
  258         hc      8    ccc     H9    258 0.11463100   1.008000   ; qtot 8.231069
  259         hc      8    ccc    H10    259 0.11463100   1.008000   ; qtot 8.345700
  260          c      8    ccc     C6    260 0.64078100  12.010000   ; qtot 8.986481
  261          o      8    ccc     O1    261 -0.49231900  16.000000   ; qtot 8.494162
  262         oh      8    ccc     O2    262 -0.51841900  16.000000   ; qtot 7.975743
  263         ho      8    ccc    H11    263 0.45318100   1.008000   ; qtot 8.428924
  264         c3      8    ccc     C7    264 0.12498100  12.010000   ; qtot 8.553905
  265         hx      8    ccc    H12    265 0.12238100   1.008000   ; qtot 8.676286
  266         hx      8    ccc    H13    266 0.12238100   1.008000   ; qtot 8.798667
  267         c3      8    ccc     C8    267 -0.20771900  12.010000   ; qtot 8.590948
  268         hc      8    ccc    H14    268 0.11463100   1.008000   ; qtot 8.705579
  269         hc      8    ccc    H15    269 0.11463100   1.008000   ; qtot 8.820210
  270          c      8    ccc     C9    270 0.64078100  12.010000   ; qtot 9.460991
  271          o      8    ccc     O3    271 -0.49231900  16.000000   ; qtot 8.968672
  272         oh      8    ccc     O4    272 -0.51841900  16.000000   ; qtot 8.450253
  273         ho      8    ccc    H16    273 0.45318100   1.008000   ; qtot 8.903434
  274         os      8    ccc     O5    274 -0.39491900  16.000000   ; qtot 8.508515
  275         hn      8    ccc    H17    275 0.49148100   1.008000   ; qtot 8.999996
; residue    9 ccc rtp ccc q 1.0
  276         c3      9    ccc     C1    276 0.14608100  12.010000   ; qtot 9.146077
  277         h1      9    ccc     H1    277 0.06738100   1.008000   ; qtot 9.213458
  278         h1      9    ccc     H2    278 0.06738100   1.008000   ; qtot 9.280839
  279         c3      9    ccc     C2    279 -0.14571900  12.010000   ; qtot 9.135120
  280         hc      9    ccc     H3    280 0.08688100   1.008000   ; qtot 9.222001
  281         hc      9    ccc     H4    281 0.08688100   1.008000   ; qtot 9.308882
  282         c3      9    ccc     C3    282 0.12348100  12.010000   ; qtot 9.432363
  283         hx      9    ccc     H5    283 0.10638100   1.008000   ; qtot 9.538744
  284         hx      9    ccc     H6    284 0.10638100   1.008000   ; qtot 9.645125
  285         n4      9    ccc     N1    285 -0.69071900  14.010000   ; qtot 8.954406
  286         c3      9    ccc     C4    286 0.12498100  12.010000   ; qtot 9.079387
  287         hx      9    ccc     H7    287 0.12238100   1.008000   ; qtot 9.201768
  288         hx      9    ccc     H8    288 0.12238100   1.008000   ; qtot 9.324149
  289         c3      9    ccc     C5    289 -0.20771900  12.010000   ; qtot 9.116430
  290         hc      9    ccc     H9    290 0.11463100   1.008000   ; qtot 9.231061
  291         hc      9    ccc    H10    291 0.11463100   1.008000   ; qtot 9.345692
  292          c      9    ccc     C6    292 0.64078100  12.010000   ; qtot 9.986473
  293          o      9    ccc     O1    293 -0.49231900  16.000000   ; qtot 9.494154
  294         oh      9    ccc     O2    294 -0.51841900  16.000000   ; qtot 8.975735
  295         ho      9    ccc    H11    295 0.45318100   1.008000   ; qtot 9.428916
  296         c3      9    ccc     C7    296 0.12498100  12.010000   ; qtot 9.553897
  297         hx      9    ccc    H12    297 0.12238100   1.008000   ; qtot 9.676278
  298         hx      9    ccc    H13    298 0.12238100   1.008000   ; qtot 9.798659
  299         c3      9    ccc     C8    299 -0.20771900  12.010000   ; qtot 9.590940
  300         hc      9    ccc    H14    300 0.11463100   1.008000   ; qtot 9.705571
  301         hc      9    ccc    H15    301 0.11463100   1.008000   ; qtot 9.820202
  302          c      9    ccc     C9    302 0.64078100  12.010000   ; qtot 10.460983
  303          o      9    ccc     O3    303 -0.49231900  16.000000   ; qtot 9.968664
  304         oh      9    ccc     O4    304 -0.51841900  16.000000   ; qtot 9.450245
  305         ho      9    ccc    H16    305 0.45318100   1.008000   ; qtot 9.903426
  306         os      9    ccc     O5    306 -0.39491900  16.000000   ; qtot 9.508507
  307         hn      9    ccc    H17    307 0.49148100   1.008000   ; qtot 9.999988
; residue   10 ccc rtp ccc q 1.0
  308         c3     10    ccc     C1    308 0.14608100  12.010000   ; qtot 10.146069
  309         h1     10    ccc     H1    309 0.06738100   1.008000   ; qtot 10.213450
  310         h1     10    ccc     H2    310 0.06738100   1.008000   ; qtot 10.280831
  311         c3     10    ccc     C2    311 -0.14571900  12.010000   ; qtot 10.135112
  312         hc     10    ccc     H3    312 0.08688100   1.008000   ; qtot 10.221993
  313         hc     10    ccc     H4    313 0.08688100   1.008000   ; qtot 10.308874
  314         c3     10    ccc     C3    314 0.12348100  12.010000   ; qtot 10.432355
  315         hx     10    ccc     H5    315 0.10638100   1.008000   ; qtot 10.538736
  316         hx     10    ccc     H6    316 0.10638100   1.008000   ; qtot 10.645117
  317         n4     10    ccc     N1    317 -0.69071900  14.010000   ; qtot 9.954398
  318         c3     10    ccc     C4    318 0.12498100  12.010000   ; qtot 10.079379
  319         hx     10    ccc     H7    319 0.12238100   1.008000   ; qtot 10.201760
  320         hx     10    ccc     H8    320 0.12238100   1.008000   ; qtot 10.324141
  321         c3     10    ccc     C5    321 -0.20771900  12.010000   ; qtot 10.116422
  322         hc     10    ccc     H9    322 0.11463100   1.008000   ; qtot 10.231053
  323         hc     10    ccc    H10    323 0.11463100   1.008000   ; qtot 10.345684
  324          c     10    ccc     C6    324 0.64078100  12.010000   ; qtot 10.986465
  325          o     10    ccc     O1    325 -0.49231900  16.000000   ; qtot 10.494146
  326         oh     10    ccc     O2    326 -0.51841900  16.000000   ; qtot 9.975727
  327         ho     10    ccc    H11    327 0.45318100   1.008000   ; qtot 10.428908
  328         c3     10    ccc     C7    328 0.12498100  12.010000   ; qtot 10.553889
  329         hx     10    ccc    H12    329 0.12238100   1.008000   ; qtot 10.676270
  330         hx     10    ccc    H13    330 0.12238100   1.008000   ; qtot 10.798651
  331         c3     10    ccc     C8    331 -0.20771900  12.010000   ; qtot 10.590932
  332         hc     10    ccc    H14    332 0.11463100   1.008000   ; qtot 10.705563
  333         hc     10    ccc    H15    333 0.11463100   1.008000   ; qtot 10.820194
  334          c     10    ccc     C9    334 0.64078100  12.010000   ; qtot 11.460975
  335          o     10    ccc     O3    335 -0.49231900  16.000000   ; qtot 10.968656
  336         oh     10    ccc     O4    336 -0.51841900  16.000000   ; qtot 10.450237
  337         ho     10    ccc    H16    337 0.45318100   1.008000   ; qtot 10.903418
  338         os     10    ccc     O5    338 -0.39491900  16.000000   ; qtot 10.508499
  339         hn     10    ccc    H17    339 0.49148100   1.008000   ; qtot 10.999980
; residue   11 ccc rtp ccc q 1.0
  340         c3     11    ccc     C1    340 0.14608100  12.010000   ; qtot 11.146061
  341         h1     11    ccc     H1    341 0.06738100   1.008000   ; qtot 11.213442
  342         h1     11    ccc     H2    342 0.06738100   1.008000   ; qtot 11.280823
  343         c3     11    ccc     C2    343 -0.14571900  12.010000   ; qtot 11.135104
  344         hc     11    ccc     H3    344 0.08688100   1.008000   ; qtot 11.221985
  345         hc     11    ccc     H4    345 0.08688100   1.008000   ; qtot 11.308866
  346         c3     11    ccc     C3    346 0.12348100  12.010000   ; qtot 11.432347
  347         hx     11    ccc     H5    347 0.10638100   1.008000   ; qtot 11.538728
  348         hx     11    ccc     H6    348 0.10638100   1.008000   ; qtot 11.645109
  349         n4     11    ccc     N1    349 -0.69071900  14.010000   ; qtot 10.954390
  350         c3     11    ccc     C4    350 0.12498100  12.010000   ; qtot 11.079371
  351         hx     11    ccc     H7    351 0.12238100   1.008000   ; qtot 11.201752
  352         hx     11    ccc     H8    352 0.12238100   1.008000   ; qtot 11.324133
  353         c3     11    ccc     C5    353 -0.20771900  12.010000   ; qtot 11.116414
  354         hc     11    ccc     H9    354 0.11463100   1.008000   ; qtot 11.231045
  355         hc     11    ccc    H10    355 0.11463100   1.008000   ; qtot 11.345676
  356          c     11    ccc     C6    356 0.64078100  12.010000   ; qtot 11.986457
  357          o     11    ccc     O1    357 -0.49231900  16.000000   ; qtot 11.494138
  358         oh     11    ccc     O2    358 -0.51841900  16.000000   ; qtot 10.975719
  359         ho     11    ccc    H11    359 0.45318100   1.008000   ; qtot 11.428900
  360         c3     11    ccc     C7    360 0.12498100  12.010000   ; qtot 11.553881
  361         hx     11    ccc    H12    361 0.12238100   1.008000   ; qtot 11.676262
  362         hx     11    ccc    H13    362 0.12238100   1.008000   ; qtot 11.798643
  363         c3     11    ccc     C8    363 -0.20771900  12.010000   ; qtot 11.590924
  364         hc     11    ccc    H14    364 0.11463100   1.008000   ; qtot 11.705555
  365         hc     11    ccc    H15    365 0.11463100   1.008000   ; qtot 11.820186
  366          c     11    ccc     C9    366 0.64078100  12.010000   ; qtot 12.460967
  367          o     11    ccc     O3    367 -0.49231900  16.000000   ; qtot 11.968648
  368         oh     11    ccc     O4    368 -0.51841900  16.000000   ; qtot 11.450229
  369         ho     11    ccc    H16    369 0.45318100   1.008000   ; qtot 11.903410
  370         os     11    ccc     O5    370 -0.39491900  16.000000   ; qtot 11.508491
  371         hn     11    ccc    H17    371 0.49148100   1.008000   ; qtot 11.999972
; residue   12 ccc rtp ccc q 1.0
  372         c3     12    ccc     C1    372 0.14608100  12.010000   ; qtot 12.146053
  373         h1     12    ccc     H1    373 0.06738100   1.008000   ; qtot 12.213434
  374         h1     12    ccc     H2    374 0.06738100   1.008000   ; qtot 12.280815
  375         c3     12    ccc     C2    375 -0.14571900  12.010000   ; qtot 12.135096
  376         hc     12    ccc     H3    376 0.08688100   1.008000   ; qtot 12.221977
  377         hc     12    ccc     H4    377 0.08688100   1.008000   ; qtot 12.308858
  378         c3     12    ccc     C3    378 0.12348100  12.010000   ; qtot 12.432339
  379         hx     12    ccc     H5    379 0.10638100   1.008000   ; qtot 12.538720
  380         hx     12    ccc     H6    380 0.10638100   1.008000   ; qtot 12.645101
  381         n4     12    ccc     N1    381 -0.69071900  14.010000   ; qtot 11.954382
  382         c3     12    ccc     C4    382 0.12498100  12.010000   ; qtot 12.079363
  383         hx     12    ccc     H7    383 0.12238100   1.008000   ; qtot 12.201744
  384         hx     12    ccc     H8    384 0.12238100   1.008000   ; qtot 12.324125
  385         c3     12    ccc     C5    385 -0.20771900  12.010000   ; qtot 12.116406
  386         hc     12    ccc     H9    386 0.11463100   1.008000   ; qtot 12.231037
  387         hc     12    ccc    H10    387 0.11463100   1.008000   ; qtot 12.345668
  388          c     12    ccc     C6    388 0.64078100  12.010000   ; qtot 12.986449
  389          o     12    ccc     O1    389 -0.49231900  16.000000   ; qtot 12.494130
  390         oh     12    ccc     O2    390 -0.51841900  16.000000   ; qtot 11.975711
  391         ho     12    ccc    H11    391 0.45318100   1.008000   ; qtot 12.428892
  392         c3     12    ccc     C7    392 0.12498100  12.010000   ; qtot 12.553873
  393         hx     12    ccc    H12    393 0.12238100   1.008000   ; qtot 12.676254
  394         hx     12    ccc    H13    394 0.12238100   1.008000   ; qtot 12.798635
  395         c3     12    ccc     C8    395 -0.20771900  12.010000   ; qtot 12.590916
  396         hc     12    ccc    H14    396 0.11463100   1.008000   ; qtot 12.705547
  397         hc     12    ccc    H15    397 0.11463100   1.008000   ; qtot 12.820178
  398          c     12    ccc     C9    398 0.64078100  12.010000   ; qtot 13.460959
  399          o     12    ccc     O3    399 -0.49231900  16.000000   ; qtot 12.968640
  400         oh     12    ccc     O4    400 -0.51841900  16.000000   ; qtot 12.450221
  401         ho     12    ccc    H16    401 0.45318100   1.008000   ; qtot 12.903402
  402         os     12    ccc     O5    402 -0.39491900  16.000000   ; qtot 12.508483
  403         hn     12    ccc    H17    403 0.49148100   1.008000   ; qtot 12.999964
; residue   13 ccc rtp ccc q 1.0
  404         c3     13    ccc     C1    404 0.14608100  12.010000   ; qtot 13.146045
  405         h1     13    ccc     H1    405 0.06738100   1.008000   ; qtot 13.213426
  406         h1     13    ccc     H2    406 0.06738100   1.008000   ; qtot 13.280807
  407         c3     13    ccc     C2    407 -0.14571900  12.010000   ; qtot 13.135088
  408         hc     13    ccc     H3    408 0.08688100   1.008000   ; qtot 13.221969
  409         hc     13    ccc     H4    409 0.08688100   1.008000   ; qtot 13.308850
  410         c3     13    ccc     C3    410 0.12348100  12.010000   ; qtot 13.432331
  411         hx     13    ccc     H5    411 0.10638100   1.008000   ; qtot 13.538712
  412         hx     13    ccc     H6    412 0.10638100   1.008000   ; qtot 13.645093
  413         n4     13    ccc     N1    413 -0.69071900  14.010000   ; qtot 12.954374
  414         c3     13    ccc     C4    414 0.12498100  12.010000   ; qtot 13.079355
  415         hx     13    ccc     H7    415 0.12238100   1.008000   ; qtot 13.201736
  416         hx     13    ccc     H8    416 0.12238100   1.008000   ; qtot 13.324117
  417         c3     13    ccc     C5    417 -0.20771900  12.010000   ; qtot 13.116398
  418         hc     13    ccc     H9    418 0.11463100   1.008000   ; qtot 13.231029
  419         hc     13    ccc    H10    419 0.11463100   1.008000   ; qtot 13.345660
  420          c     13    ccc     C6    420 0.64078100  12.010000   ; qtot 13.986441
  421          o     13    ccc     O1    421 -0.49231900  16.000000   ; qtot 13.494122
  422         oh     13    ccc     O2    422 -0.51841900  16.000000   ; qtot 12.975703
  423         ho     13    ccc    H11    423 0.45318100   1.008000   ; qtot 13.428884
  424         c3     13    ccc     C7    424 0.12498100  12.010000   ; qtot 13.553865
  425         hx     13    ccc    H12    425 0.12238100   1.008000   ; qtot 13.676246
  426         hx     13    ccc    H13    426 0.12238100   1.008000   ; qtot 13.798627
  427         c3     13    ccc     C8    427 -0.20771900  12.010000   ; qtot 13.590908
  428         hc     13    ccc    H14    428 0.11463100   1.008000   ; qtot 13.705539
  429         hc     13    ccc    H15    429 0.11463100   1.008000   ; qtot 13.820170
  430          c     13    ccc     C9    430 0.64078100  12.010000   ; qtot 14.460951
  431          o     13    ccc     O3    431 -0.49231900  16.000000   ; qtot 13.968632
  432         oh     13    ccc     O4    432 -0.51841900  16.000000   ; qtot 13.450213
  433         ho     13    ccc    H16    433 0.45318100   1.008000   ; qtot 13.903394
  434         os     13    ccc     O5    434 -0.39491900  16.000000   ; qtot 13.508475
  435         hn     13    ccc    H17    435 0.49148100   1.008000   ; qtot 13.999956

[ bonds ]
;    ai     aj funct         c0         c1         c2         c3
      1      2     1   0.14316 258236.480000
      1      5     1   0.14316 258236.480000
      2      8     1   0.15375 251793.120000
      5     11     1   0.15375 251793.120000
      8     14     1   0.15375 251793.120000
     11     17     1   0.15375 251793.120000
     14     20     1   0.15110 237065.440000
     17     21     1   0.15110 237065.440000
     20     28     1   0.15110 237065.440000
     20     31     1   0.15110 237065.440000
     21     22     1   0.15110 237065.440000
     21     25     1   0.15110 237065.440000
     22     34     1   0.15375 251793.120000
     25     37     1   0.15375 251793.120000
     28     40     1   0.15375 251793.120000
     31     43     1   0.15375 251793.120000
     34     55     1   0.15375 251793.120000
     37     52     1   0.15375 251793.120000
     40     49     1   0.15375 251793.120000
     43     46     1   0.15375 251793.120000
     46     88     1   0.14316 258236.480000
     49    118     1   0.14316 258236.480000
     52    148     1   0.14316 258236.480000
     55    178     1   0.14316 258236.480000
     60     61     1   0.15110 237065.440000
     60     64     1   0.15110 237065.440000
     60     67     1   0.15110 237065.440000
     61     73     1   0.15375 251793.120000
     64     76     1   0.15375 251793.120000
     67     70     1   0.15375 251793.120000
     70     79     1   0.15375 251793.120000
     73     85     1   0.15375 251793.120000
     76     82     1   0.15375 251793.120000
     79     88     1   0.14316 258236.480000
     82    210     1   0.14316 258236.480000
     85    242     1   0.14316 258236.480000
     90     91     1   0.15110 237065.440000
     90     94     1   0.15110 237065.440000
     90     97     1   0.15110 237065.440000
     91    103     1   0.15375 251793.120000
     94    106     1   0.15375 251793.120000
     97    100     1   0.15375 251793.120000
    100    109     1   0.15375 251793.120000
    103    115     1   0.15375 251793.120000
    106    112     1   0.15375 251793.120000
    109    118     1   0.14316 258236.480000
    112    274     1   0.14316 258236.480000
    115    306     1   0.14316 258236.480000
    120    121     1   0.15110 237065.440000
    120    124     1   0.15110 237065.440000
    120    127     1   0.15110 237065.440000
    121    133     1   0.15375 251793.120000
    124    136     1   0.15375 251793.120000
    127    130     1   0.15375 251793.120000
    130    139     1   0.15375 251793.120000
    133    145     1   0.15375 251793.120000
    136    142     1   0.15375 251793.120000
    139    148     1   0.14316 258236.480000
    142    338     1   0.14316 258236.480000
    145    370     1   0.14316 258236.480000
    150    151     1   0.15110 237065.440000
    150    154     1   0.15110 237065.440000
    150    157     1   0.15110 237065.440000
    151    163     1   0.15375 251793.120000
    154    166     1   0.15375 251793.120000
    157    160     1   0.15375 251793.120000
    160    169     1   0.15375 251793.120000
    163    175     1   0.15375 251793.120000
    166    172     1   0.15375 251793.120000
    169    178     1   0.14316 258236.480000
    172    402     1   0.14316 258236.480000
    175    434     1   0.14316 258236.480000
    180    183     1   0.15375 251793.120000
    180    210     1   0.14316 258236.480000
    183    186     1   0.15375 251793.120000
    186    189     1   0.15110 237065.440000
    189    190     1   0.15110 237065.440000
    189    200     1   0.15110 237065.440000
    190    193     1   0.15375 251793.120000
    193    196     1   0.15241 261918.400000
    196    197     1   0.12183 533627.360000
    196    198     1   0.13513 334803.680000
    200    203     1   0.15375 251793.120000
    203    206     1   0.15241 261918.400000
    206    207     1   0.12183 533627.360000
    206    208     1   0.13513 334803.680000
    212    215     1   0.15375 251793.120000
    212    242     1   0.14316 258236.480000
    215    218     1   0.15375 251793.120000
    218    221     1   0.15110 237065.440000
    221    222     1   0.15110 237065.440000
    221    232     1   0.15110 237065.440000
    222    225     1   0.15375 251793.120000
    225    228     1   0.15241 261918.400000
    228    229     1   0.12183 533627.360000
    228    230     1   0.13513 334803.680000
    232    235     1   0.15375 251793.120000
    235    238     1   0.15241 261918.400000
    238    239     1   0.12183 533627.360000
    238    240     1   0.13513 334803.680000
    244    247     1   0.15375 251793.120000
    244    274     1   0.14316 258236.480000
    247    250     1   0.15375 251793.120000
    250    253     1   0.15110 237065.440000
    253    254     1   0.15110 237065.440000
    253    264     1   0.15110 237065.440000
    254    257     1   0.15375 251793.120000
    257    260     1   0.15241 261918.400000
    260    261     1   0.12183 533627.360000
    260    262     1   0.13513 334803.680000
    264    267     1   0.15375 251793.120000
    267    270     1   0.15241 261918.400000
    270    271     1   0.12183 533627.360000
    270    272     1   0.13513 334803.680000
    276    279     1   0.15375 251793.120000
    276    306     1   0.14316 258236.480000
    279    282     1   0.15375 251793.120000
    282    285     1   0.15110 237065.440000
    285    286     1   0.15110 237065.440000
    285    296     1   0.15110 237065.440000
    286    289     1   0.15375 251793.120000
    289    292     1   0.15241 261918.400000
    292    293     1   0.12183 533627.360000
    292    294     1   0.13513 334803.680000
    296    299     1   0.15375 251793.120000
    299    302     1   0.15241 261918.400000
    302    303     1   0.12183 533627.360000
    302    304     1   0.13513 334803.680000
    308    311     1   0.15375 251793.120000
    308    338     1   0.14316 258236.480000
    311    314     1   0.15375 251793.120000
    314    317     1   0.15110 237065.440000
    317    318     1   0.15110 237065.440000
    317    328     1   0.15110 237065.440000
    318    321     1   0.15375 251793.120000
    321    324     1   0.15241 261918.400000
    324    325     1   0.12183 533627.360000
    324    326     1   0.13513 334803.680000
    328    331     1   0.15375 251793.120000
    331    334     1   0.15241 261918.400000
    334    335     1   0.12183 533627.360000
    334    336     1   0.13513 334803.680000
    340    343     1   0.15375 251793.120000
    340    370     1   0.14316 258236.480000
    343    346     1   0.15375 251793.120000
    346    349     1   0.15110 237065.440000
    349    350     1   0.15110 237065.440000
    349    360     1   0.15110 237065.440000
    350    353     1   0.15375 251793.120000
    353    356     1   0.15241 261918.400000
    356    357     1   0.12183 533627.360000
    356    358     1   0.13513 334803.680000
    360    363     1   0.15375 251793.120000
    363    366     1   0.15241 261918.400000
    366    367     1   0.12183 533627.360000
    366    368     1   0.13513 334803.680000
    372    375     1   0.15375 251793.120000
    372    402     1   0.14316 258236.480000
    375    378     1   0.15375 251793.120000
    378    381     1   0.15110 237065.440000
    381    382     1   0.15110 237065.440000
    381    392     1   0.15110 237065.440000
    382    385     1   0.15375 251793.120000
    385    388     1   0.15241 261918.400000
    388    389     1   0.12183 533627.360000
    388    390     1   0.13513 334803.680000
    392    395     1   0.15375 251793.120000
    395    398     1   0.15241 261918.400000
    398    399     1   0.12183 533627.360000
    398    400     1   0.13513 334803.680000
    404    407     1   0.15375 251793.120000
    404    434     1   0.14316 258236.480000
    407    410     1   0.15375 251793.120000
    410    413     1   0.15110 237065.440000
    413    414     1   0.15110 237065.440000
    413    424     1   0.15110 237065.440000
    414    417     1   0.15375 251793.120000
    417    420     1   0.15241 261918.400000
    420    421     1   0.12183 533627.360000
    420    422     1   0.13513 334803.680000
    424    427     1   0.15375 251793.120000
    427    430     1   0.15241 261918.400000
    430    431     1   0.12183 533627.360000
    430    432     1   0.13513 334803.680000
      2      3     1   0.10969 276646.080000
      2      4     1   0.10969 276646.080000
      5      6     1   0.10969 276646.080000
      5      7     1   0.10969 276646.080000
      8      9     1   0.10969 276646.080000
      8     10     1   0.10969 276646.080000
     11     12     1   0.10969 276646.080000
     11     13     1   0.10969 276646.080000
     14     15     1   0.10910 283424.160000
     14     16     1   0.10910 283424.160000
     17     18     1   0.10910 283424.160000
     17     19     1   0.10910 283424.160000
     20     58     1   0.10304 312293.760000
     21     59     1   0.10304 312293.760000
     22     23     1   0.10910 283424.160000
     22     24     1   0.10910 283424.160000
     25     26     1   0.10910 283424.160000
     25     27     1   0.10910 283424.160000
     28     29     1   0.10910 283424.160000
     28     30     1   0.10910 283424.160000
     31     32     1   0.10910 283424.160000
     31     33     1   0.10910 283424.160000
     34     35     1   0.10969 276646.080000
     34     36     1   0.10969 276646.080000
     37     38     1   0.10969 276646.080000
     37     39     1   0.10969 276646.080000
     40     41     1   0.10969 276646.080000
     40     42     1   0.10969 276646.080000
     43     44     1   0.10969 276646.080000
     43     45     1   0.10969 276646.080000
     46     47     1   0.10969 276646.080000
     46     48     1   0.10969 276646.080000
     49     50     1   0.10969 276646.080000
     49     51     1   0.10969 276646.080000
     52     53     1   0.10969 276646.080000
     52     54     1   0.10969 276646.080000
     55     56     1   0.10969 276646.080000
     55     57     1   0.10969 276646.080000
     60     89     1   0.10304 312293.760000
     61     62     1   0.10910 283424.160000
     61     63     1   0.10910 283424.160000
     64     65     1   0.10910 283424.160000
     64     66     1   0.10910 283424.160000
     67     68     1   0.10910 283424.160000
     67     69     1   0.10910 283424.160000
     70     71     1   0.10969 276646.080000
     70     72     1   0.10969 276646.080000
     73     74     1   0.10969 276646.080000
     73     75     1   0.10969 276646.080000
     76     77     1   0.10969 276646.080000
     76     78     1   0.10969 276646.080000
     79     80     1   0.10969 276646.080000
     79     81     1   0.10969 276646.080000
     82     83     1   0.10969 276646.080000
     82     84     1   0.10969 276646.080000
     85     86     1   0.10969 276646.080000
     85     87     1   0.10969 276646.080000
     90    119     1   0.10304 312293.760000
     91     92     1   0.10910 283424.160000
     91     93     1   0.10910 283424.160000
     94     95     1   0.10910 283424.160000
     94     96     1   0.10910 283424.160000
     97     98     1   0.10910 283424.160000
     97     99     1   0.10910 283424.160000
    100    101     1   0.10969 276646.080000
    100    102     1   0.10969 276646.080000
    103    104     1   0.10969 276646.080000
    103    105     1   0.10969 276646.080000
    106    107     1   0.10969 276646.080000
    106    108     1   0.10969 276646.080000
    109    110     1   0.10969 276646.080000
    109    111     1   0.10969 276646.080000
    112    113     1   0.10969 276646.080000
    112    114     1   0.10969 276646.080000
    115    116     1   0.10969 276646.080000
    115    117     1   0.10969 276646.080000
    120    149     1   0.10304 312293.760000
    121    122     1   0.10910 283424.160000
    121    123     1   0.10910 283424.160000
    124    125     1   0.10910 283424.160000
    124    126     1   0.10910 283424.160000
    127    128     1   0.10910 283424.160000
    127    129     1   0.10910 283424.160000
    130    131     1   0.10969 276646.080000
    130    132     1   0.10969 276646.080000
    133    134     1   0.10969 276646.080000
    133    135     1   0.10969 276646.080000
    136    137     1   0.10969 276646.080000
    136    138     1   0.10969 276646.080000
    139    140     1   0.10969 276646.080000
    139    141     1   0.10969 276646.080000
    142    143     1   0.10969 276646.080000
    142    144     1   0.10969 276646.080000
    145    146     1   0.10969 276646.080000
    145    147     1   0.10969 276646.080000
    150    179     1   0.10304 312293.760000
    151    152     1   0.10910 283424.160000
    151    153     1   0.10910 283424.160000
    154    155     1   0.10910 283424.160000
    154    156     1   0.10910 283424.160000
    157    158     1   0.10910 283424.160000
    157    159     1   0.10910 283424.160000
    160    161     1   0.10969 276646.080000
    160    162     1   0.10969 276646.080000
    163    164     1   0.10969 276646.080000
    163    165     1   0.10969 276646.080000
    166    167     1   0.10969 276646.080000
    166    168     1   0.10969 276646.080000
    169    170     1   0.10969 276646.080000
    169    171     1   0.10969 276646.080000
    172    173     1   0.10969 276646.080000
    172    174     1   0.10969 276646.080000
    175    176     1   0.10969 276646.080000
    175    177     1   0.10969 276646.080000
    180    181     1   0.10969 276646.080000
    180    182     1   0.10969 276646.080000
    183    184     1   0.10969 276646.080000
    183    185     1   0.10969 276646.080000
    186    187     1   0.10910 283424.160000
    186    188     1   0.10910 283424.160000
    189    211     1   0.10304 312293.760000
    190    191     1   0.10910 283424.160000
    190    192     1   0.10910 283424.160000
    193    194     1   0.10969 276646.080000
    193    195     1   0.10969 276646.080000
    198    199     1   0.09730 310787.520000
    200    201     1   0.10910 283424.160000
    200    202     1   0.10910 283424.160000
    203    204     1   0.10969 276646.080000
    203    205     1   0.10969 276646.080000
    208    209     1   0.09730 310787.520000
    212    213     1   0.10969 276646.080000
    212    214     1   0.10969 276646.080000
    215    216     1   0.10969 276646.080000
    215    217     1   0.10969 276646.080000
    218    219     1   0.10910 283424.160000
    218    220     1   0.10910 283424.160000
    221    243     1   0.10304 312293.760000
    222    223     1   0.10910 283424.160000
    222    224     1   0.10910 283424.160000
    225    226     1   0.10969 276646.080000
    225    227     1   0.10969 276646.080000
    230    231     1   0.09730 310787.520000
    232    233     1   0.10910 283424.160000
    232    234     1   0.10910 283424.160000
    235    236     1   0.10969 276646.080000
    235    237     1   0.10969 276646.080000
    240    241     1   0.09730 310787.520000
    244    245     1   0.10969 276646.080000
    244    246     1   0.10969 276646.080000
    247    248     1   0.10969 276646.080000
    247    249     1   0.10969 276646.080000
    250    251     1   0.10910 283424.160000
    250    252     1   0.10910 283424.160000
    253    275     1   0.10304 312293.760000
    254    255     1   0.10910 283424.160000
    254    256     1   0.10910 283424.160000
    257    258     1   0.10969 276646.080000
    257    259     1   0.10969 276646.080000
    262    263     1   0.09730 310787.520000
    264    265     1   0.10910 283424.160000
    264    266     1   0.10910 283424.160000
    267    268     1   0.10969 276646.080000
    267    269     1   0.10969 276646.080000
    272    273     1   0.09730 310787.520000
    276    277     1   0.10969 276646.080000
    276    278     1   0.10969 276646.080000
    279    280     1   0.10969 276646.080000
    279    281     1   0.10969 276646.080000
    282    283     1   0.10910 283424.160000
    282    284     1   0.10910 283424.160000
    285    307     1   0.10304 312293.760000
    286    287     1   0.10910 283424.160000
    286    288     1   0.10910 283424.160000
    289    290     1   0.10969 276646.080000
    289    291     1   0.10969 276646.080000
    294    295     1   0.09730 310787.520000
    296    297     1   0.10910 283424.160000
    296    298     1   0.10910 283424.160000
    299    300     1   0.10969 276646.080000
    299    301     1   0.10969 276646.080000
    304    305     1   0.09730 310787.520000
    308    309     1   0.10969 276646.080000
    308    310     1   0.10969 276646.080000
    311    312     1   0.10969 276646.080000
    311    313     1   0.10969 276646.080000
    314    315     1   0.10910 283424.160000
    314    316     1   0.10910 283424.160000
    317    339     1   0.10304 312293.760000
    318    319     1   0.10910 283424.160000
    318    320     1   0.10910 283424.160000
    321    322     1   0.10969 276646.080000
    321    323     1   0.10969 276646.080000
    326    327     1   0.09730 310787.520000
    328    329     1   0.10910 283424.160000
    328    330     1   0.10910 283424.160000
    331    332     1   0.10969 276646.080000
    331    333     1   0.10969 276646.080000
    336    337     1   0.09730 310787.520000
    340    341     1   0.10969 276646.080000
    340    342     1   0.10969 276646.080000
    343    344     1   0.10969 276646.080000
    343    345     1   0.10969 276646.080000
    346    347     1   0.10910 283424.160000
    346    348     1   0.10910 283424.160000
    349    371     1   0.10304 312293.760000
    350    351     1   0.10910 283424.160000
    350    352     1   0.10910 283424.160000
    353    354     1   0.10969 276646.080000
    353    355     1   0.10969 276646.080000
    358    359     1   0.09730 310787.520000
    360    361     1   0.10910 283424.160000
    360    362     1   0.10910 283424.160000
    363    364     1   0.10969 276646.080000
    363    365     1   0.10969 276646.080000
    368    369     1   0.09730 310787.520000
    372    373     1   0.10969 276646.080000
    372    374     1   0.10969 276646.080000
    375    376     1   0.10969 276646.080000
    375    377     1   0.10969 276646.080000
    378    379     1   0.10910 283424.160000
    378    380     1   0.10910 283424.160000
    381    403     1   0.10304 312293.760000
    382    383     1   0.10910 283424.160000
    382    384     1   0.10910 283424.160000
    385    386     1   0.10969 276646.080000
    385    387     1   0.10969 276646.080000
    390    391     1   0.09730 310787.520000
    392    393     1   0.10910 283424.160000
    392    394     1   0.10910 283424.160000
    395    396     1   0.10969 276646.080000
    395    397     1   0.10969 276646.080000
    400    401     1   0.09730 310787.520000
    404    405     1   0.10969 276646.080000
    404    406     1   0.10969 276646.080000
    407    408     1   0.10969 276646.080000
    407    409     1   0.10969 276646.080000
    410    411     1   0.10910 283424.160000
    410    412     1   0.10910 283424.160000
    413    435     1   0.10304 312293.760000
    414    415     1   0.10910 283424.160000
    414    416     1   0.10910 283424.160000
    417    418     1   0.10969 276646.080000
    417    419     1   0.10969 276646.080000
    422    423     1   0.09730 310787.520000
    424    425     1   0.10910 283424.160000
    424    426     1   0.10910 283424.160000
    427    428     1   0.10969 276646.080000
    427    429     1   0.10969 276646.080000
    432    433     1   0.09730 310787.520000

[ pairs ]
;    ai     aj funct         c0         c1         c2         c3
      1     14     1
      1     17     1
      2     11     1
      2     20     1
      5      8     1
      5     21     1
      8     28     1
      8     31     1
     11     22     1
     11     25     1
     14     40     1
     14     43     1
     17     34     1
     17     37     1
     20     49     1
     20     46     1
     21     55     1
     21     52     1
     22     37     1
     22    178     1
     25     34     1
     25    148     1
     28     43     1
     28    118     1
     31     40     1
     31     88     1
     34    169     1
     37    139     1
     40    109     1
     43     79     1
     46     70     1
     49    100     1
     52    130     1
     55    160     1
     60     85     1
     60     82     1
     60     79     1
     61     76     1
     61     70     1
     61    242     1
     64     73     1
     64     70     1
     64    210     1
     67     73     1
     67     76     1
     67     88     1
     73    212     1
     76    180     1
     82    183     1
     85    215     1
     90    115     1
     90    112     1
     90    109     1
     91    106     1
     91    100     1
     91    306     1
     94    103     1
     94    100     1
     94    274     1
     97    103     1
     97    106     1
     97    118     1
    103    276     1
    106    244     1
    112    247     1
    115    279     1
    120    145     1
    120    142     1
    120    139     1
    121    136     1
    121    130     1
    121    370     1
    124    133     1
    124    130     1
    124    338     1
    127    133     1
    127    136     1
    127    148     1
    133    340     1
    136    308     1
    142    311     1
    145    343     1
    150    175     1
    150    172     1
    150    169     1
    151    166     1
    151    160     1
    151    434     1
    154    163     1
    154    160     1
    154    402     1
    157    163     1
    157    166     1
    157    178     1
    163    404     1
    166    372     1
    172    375     1
    175    407     1
    180    189     1
    183    190     1
    183    200     1
    186    210     1
    186    193     1
    186    203     1
    189    196     1
    189    206     1
    190    203     1
    190    197     1
    190    198     1
    193    200     1
    200    207     1
    200    208     1
    212    221     1
    215    222     1
    215    232     1
    218    225     1
    218    235     1
    218    242     1
    221    228     1
    221    238     1
    222    229     1
    222    230     1
    222    235     1
    225    232     1
    232    239     1
    232    240     1
    244    253     1
    247    254     1
    247    264     1
    250    274     1
    250    257     1
    250    267     1
    253    260     1
    253    270     1
    254    267     1
    254    261     1
    254    262     1
    257    264     1
    264    271     1
    264    272     1
    276    285     1
    279    286     1
    279    296     1
    282    289     1
    282    299     1
    282    306     1
    285    292     1
    285    302     1
    286    293     1
    286    294     1
    286    299     1
    289    296     1
    296    303     1
    296    304     1
    308    317     1
    311    318     1
    311    328     1
    314    338     1
    314    321     1
    314    331     1
    317    324     1
    317    334     1
    318    331     1
    318    325     1
    318    326     1
    321    328     1
    328    335     1
    328    336     1
    340    349     1
    343    350     1
    343    360     1
    346    353     1
    346    363     1
    346    370     1
    349    356     1
    349    366     1
    350    357     1
    350    358     1
    350    363     1
    353    360     1
    360    367     1
    360    368     1
    372    381     1
    375    382     1
    375    392     1
    378    402     1
    378    385     1
    378    395     1
    381    388     1
    381    398     1
    382    395     1
    382    389     1
    382    390     1
    385    392     1
    392    399     1
    392    400     1
    404    413     1
    407    414     1
    407    424     1
    410    417     1
    410    427     1
    410    434     1
    413    420     1
    413    430     1
    414    421     1
    414    422     1
    414    427     1
    417    424     1
    424    431     1
    424    432     1
      1      9     1
      1     10     1
      1     12     1
      1     13     1
      2      6     1
      2      7     1
      2     15     1
      2     16     1
      5      3     1
      3     14     1
      3      9     1
      3     10     1
      5      4     1
      4     14     1
      4      9     1
      4     10     1
      5     18     1
      5     19     1
      6     17     1
      6     12     1
      6     13     1
      7     17     1
      7     12     1
      7     13     1
      8     58     1
      9     20     1
      9     15     1
      9     16     1
     10     20     1
     10     15     1
     10     16     1
     11     59     1
     12     21     1
     12     18     1
     12     19     1
     13     21     1
     13     18     1
     13     19     1
     14     29     1
     14     30     1
     14     32     1
     14     33     1
     15     28     1
     15     31     1
     15     58     1
     16     28     1
     16     31     1
     16     58     1
     17     23     1
     17     24     1
     17     26     1
     17     27     1
     18     22     1
     18     25     1
     18     59     1
     19     22     1
     19     25     1
     19     59     1
     20     41     1
     20     42     1
     20     44     1
     20     45     1
     21     35     1
     21     36     1
     21     38     1
     21     39     1
     22     26     1
     22     27     1
     22     56     1
     22     57     1
     23     25     1
     23     59     1
     23     55     1
     23     35     1
     23     36     1
     24     25     1
     24     59     1
     24     55     1
     24     35     1
     24     36     1
     25     53     1
     25     54     1
     26     59     1
     26     52     1
     26     38     1
     26     39     1
     27     59     1
     27     52     1
     27     38     1
     27     39     1
     28     32     1
     28     33     1
     28     50     1
     28     51     1
     29     31     1
     29     58     1
     29     49     1
     29     41     1
     29     42     1
     30     31     1
     30     58     1
     30     49     1
     30     41     1
     30     42     1
     31     47     1
     31     48     1
     32     58     1
     32     46     1
     32     44     1
     32     45     1
     33     58     1
     33     46     1
     33     44     1
     33     45     1
     34     59     1
     35    178     1
     35     56     1
     35     57     1
     36    178     1
     36     56     1
     36     57     1
     37     59     1
     38    148     1
     38     53     1
     38     54     1
     39    148     1
     39     53     1
     39     54     1
     40     58     1
     41    118     1
     41     50     1
     41     51     1
     42    118     1
     42     50     1
     42     51     1
     43     58     1
     44     88     1
     44     47     1
     44     48     1
     45     88     1
     45     47     1
     45     48     1
     46     80     1
     46     81     1
     47     79     1
     48     79     1
     49    110     1
     49    111     1
     50    109     1
     51    109     1
     52    140     1
     52    141     1
     53    139     1
     54    139     1
     55    170     1
     55    171     1
     56    169     1
     57    169     1
     60     74     1
     60     75     1
     60     77     1
     60     78     1
     60     71     1
     60     72     1
     61     65     1
     61     66     1
     61     68     1
     61     69     1
     61     86     1
     61     87     1
     62     64     1
     62     67     1
     62     89     1
     62     85     1
     62     74     1
     62     75     1
     63     64     1
     63     67     1
     63     89     1
     63     85     1
     63     74     1
     63     75     1
     64     68     1
     64     69     1
     64     83     1
     64     84     1
     65     67     1
     65     89     1
     65     82     1
     65     77     1
     65     78     1
     66     67     1
     66     89     1
     66     82     1
     66     77     1
     66     78     1
     67     80     1
     67     81     1
     68     89     1
     68     79     1
     68     71     1
     68     72     1
     69     89     1
     69     79     1
     69     71     1
     69     72     1
     70     89     1
     71     88     1
     71     80     1
     71     81     1
     72     88     1
     72     80     1
     72     81     1
     73     89     1
     74    242     1
     74     86     1
     74     87     1
     75    242     1
     75     86     1
     75     87     1
     76     89     1
     77    210     1
     77     83     1
     77     84     1
     78    210     1
     78     83     1
     78     84     1
     82    181     1
     82    182     1
     83    180     1
     84    180     1
     85    213     1
     85    214     1
     86    212     1
     87    212     1
     90    104     1
     90    105     1
     90    107     1
     90    108     1
     90    101     1
     90    102     1
     91     95     1
     91     96     1
     91     98     1
     91     99     1
     91    116     1
     91    117     1
     92     94     1
     92     97     1
     92    119     1
     92    115     1
     92    104     1
     92    105     1
     93     94     1
     93     97     1
     93    119     1
     93    115     1
     93    104     1
     93    105     1
     94     98     1
     94     99     1
     94    113     1
     94    114     1
     95     97     1
     95    119     1
     95    112     1
     95    107     1
     95    108     1
     96     97     1
     96    119     1
     96    112     1
     96    107     1
     96    108     1
     97    110     1
     97    111     1
     98    119     1
     98    109     1
     98    101     1
     98    102     1
     99    119     1
     99    109     1
     99    101     1
     99    102     1
    100    119     1
    101    118     1
    101    110     1
    101    111     1
    102    118     1
    102    110     1
    102    111     1
    103    119     1
    104    306     1
    104    116     1
    104    117     1
    105    306     1
    105    116     1
    105    117     1
    106    119     1
    107    274     1
    107    113     1
    107    114     1
    108    274     1
    108    113     1
    108    114     1
    112    245     1
    112    246     1
    113    244     1
    114    244     1
    115    277     1
    115    278     1
    116    276     1
    117    276     1
    120    134     1
    120    135     1
    120    137     1
    120    138     1
    120    131     1
    120    132     1
    121    125     1
    121    126     1
    121    128     1
    121    129     1
    121    146     1
    121    147     1
    122    124     1
    122    127     1
    122    149     1
    122    145     1
    122    134     1
    122    135     1
    123    124     1
    123    127     1
    123    149     1
    123    145     1
    123    134     1
    123    135     1
    124    128     1
    124    129     1
    124    143     1
    124    144     1
    125    127     1
    125    149     1
    125    142     1
    125    137     1
    125    138     1
    126    127     1
    126    149     1
    126    142     1
    126    137     1
    126    138     1
    127    140     1
    127    141     1
    128    149     1
    128    139     1
    128    131     1
    128    132     1
    129    149     1
    129    139     1
    129    131     1
    129    132     1
    130    149     1
    131    148     1
    131    140     1
    131    141     1
    132    148     1
    132    140     1
    132    141     1
    133    149     1
    134    370     1
    134    146     1
    134    147     1
    135    370     1
    135    146     1
    135    147     1
    136    149     1
    137    338     1
    137    143     1
    137    144     1
    138    338     1
    138    143     1
    138    144     1
    142    309     1
    142    310     1
    143    308     1
    144    308     1
    145    341     1
    145    342     1
    146    340     1
    147    340     1
    150    164     1
    150    165     1
    150    167     1
    150    168     1
    150    161     1
    150    162     1
    151    155     1
    151    156     1
    151    158     1
    151    159     1
    151    176     1
    151    177     1
    152    154     1
    152    157     1
    152    179     1
    152    175     1
    152    164     1
    152    165     1
    153    154     1
    153    157     1
    153    179     1
    153    175     1
    153    164     1
    153    165     1
    154    158     1
    154    159     1
    154    173     1
    154    174     1
    155    157     1
    155    179     1
    155    172     1
    155    167     1
    155    168     1
    156    157     1
    156    179     1
    156    172     1
    156    167     1
    156    168     1
    157    170     1
    157    171     1
    158    179     1
    158    169     1
    158    161     1
    158    162     1
    159    179     1
    159    169     1
    159    161     1
    159    162     1
    160    179     1
    161    178     1
    161    170     1
    161    171     1
    162    178     1
    162    170     1
    162    171     1
    163    179     1
    164    434     1
    164    176     1
    164    177     1
    165    434     1
    165    176     1
    165    177     1
    166    179     1
    167    402     1
    167    173     1
    167    174     1
    168    402     1
    168    173     1
    168    174     1
    172    373     1
    172    374     1
    173    372     1
    174    372     1
    175    405     1
    175    406     1
    176    404     1
    177    404     1
    180    187     1
    180    188     1
    181    186     1
    181    184     1
    181    185     1
    182    186     1
    182    184     1
    182    185     1
    183    211     1
    184    210     1
    184    189     1
    184    187     1
    184    188     1
    185    210     1
    185    189     1
    185    187     1
    185    188     1
    186    191     1
    186    192     1
    186    201     1
    186    202     1
    187    190     1
    187    200     1
    187    211     1
    188    190     1
    188    200     1
    188    211     1
    189    194     1
    189    195     1
    189    204     1
    189    205     1
    190    201     1
    190    202     1
    191    200     1
    191    211     1
    191    196     1
    191    194     1
    191    195     1
    192    200     1
    192    211     1
    192    196     1
    192    194     1
    192    195     1
    193    211     1
    193    199     1
    194    197     1
    194    198     1
    195    197     1
    195    198     1
    197    199     1
    201    211     1
    201    206     1
    201    204     1
    201    205     1
    202    211     1
    202    206     1
    202    204     1
    202    205     1
    203    211     1
    203    209     1
    204    207     1
    204    208     1
    205    207     1
    205    208     1
    207    209     1
    212    219     1
    212    220     1
    213    218     1
    213    216     1
    213    217     1
    214    218     1
    214    216     1
    214    217     1
    215    243     1
    216    221     1
    216    219     1
    216    220     1
    216    242     1
    217    221     1
    217    219     1
    217    220     1
    217    242     1
    218    223     1
    218    224     1
    218    233     1
    218    234     1
    219    222     1
    219    232     1
    219    243     1
    220    222     1
    220    232     1
    220    243     1
    221    226     1
    221    227     1
    221    236     1
    221    237     1
    222    233     1
    222    234     1
    223    228     1
    223    226     1
    223    227     1
    223    232     1
    223    243     1
    224    228     1
    224    226     1
    224    227     1
    224    232     1
    224    243     1
    225    231     1
    225    243     1
    226    229     1
    226    230     1
    227    229     1
    227    230     1
    229    231     1
    233    238     1
    233    236     1
    233    237     1
    233    243     1
    234    238     1
    234    236     1
    234    237     1
    234    243     1
    235    241     1
    235    243     1
    236    239     1
    236    240     1
    237    239     1
    237    240     1
    239    241     1
    244    251     1
    244    252     1
    245    250     1
    245    248     1
    245    249     1
    246    250     1
    246    248     1
    246    249     1
    247    275     1
    248    274     1
    248    253     1
    248    251     1
    248    252     1
    249    274     1
    249    253     1
    249    251     1
    249    252     1
    250    255     1
    250    256     1
    250    265     1
    250    266     1
    251    254     1
    251    264     1
    251    275     1
    252    254     1
    252    264     1
    252    275     1
    253    258     1
    253    259     1
    253    268     1
    253    269     1
    254    265     1
    254    266     1
    255    264     1
    255    275     1
    255    260     1
    255    258     1
    255    259     1
    256    264     1
    256    275     1
    256    260     1
    256    258     1
    256    259     1
    257    275     1
    257    263     1
    258    261     1
    258    262     1
    259    261     1
    259    262     1
    261    263     1
    265    275     1
    265    270     1
    265    268     1
    265    269     1
    266    275     1
    266    270     1
    266    268     1
    266    269     1
    267    275     1
    267    273     1
    268    271     1
    268    272     1
    269    271     1
    269    272     1
    271    273     1
    276    283     1
    276    284     1
    277    282     1
    277    280     1
    277    281     1
    278    282     1
    278    280     1
    278    281     1
    279    307     1
    280    285     1
    280    283     1
    280    284     1
    280    306     1
    281    285     1
    281    283     1
    281    284     1
    281    306     1
    282    287     1
    282    288     1
    282    297     1
    282    298     1
    283    286     1
    283    296     1
    283    307     1
    284    286     1
    284    296     1
    284    307     1
    285    290     1
    285    291     1
    285    300     1
    285    301     1
    286    297     1
    286    298     1
    287    292     1
    287    290     1
    287    291     1
    287    296     1
    287    307     1
    288    292     1
    288    290     1
    288    291     1
    288    296     1
    288    307     1
    289    295     1
    289    307     1
    290    293     1
    290    294     1
    291    293     1
    291    294     1
    293    295     1
    297    302     1
    297    300     1
    297    301     1
    297    307     1
    298    302     1
    298    300     1
    298    301     1
    298    307     1
    299    305     1
    299    307     1
    300    303     1
    300    304     1
    301    303     1
    301    304     1
    303    305     1
    308    315     1
    308    316     1
    309    314     1
    309    312     1
    309    313     1
    310    314     1
    310    312     1
    310    313     1
    311    339     1
    312    338     1
    312    317     1
    312    315     1
    312    316     1
    313    338     1
    313    317     1
    313    315     1
    313    316     1
    314    319     1
    314    320     1
    314    329     1
    314    330     1
    315    318     1
    315    328     1
    315    339     1
    316    318     1
    316    328     1
    316    339     1
    317    322     1
    317    323     1
    317    332     1
    317    333     1
    318    329     1
    318    330     1
    319    328     1
    319    339     1
    319    324     1
    319    322     1
    319    323     1
    320    328     1
    320    339     1
    320    324     1
    320    322     1
    320    323     1
    321    339     1
    321    327     1
    322    325     1
    322    326     1
    323    325     1
    323    326     1
    325    327     1
    329    339     1
    329    334     1
    329    332     1
    329    333     1
    330    339     1
    330    334     1
    330    332     1
    330    333     1
    331    339     1
    331    337     1
    332    335     1
    332    336     1
    333    335     1
    333    336     1
    335    337     1
    340    347     1
    340    348     1
    341    346     1
    341    344     1
    341    345     1
    342    346     1
    342    344     1
    342    345     1
    343    371     1
    344    349     1
    344    347     1
    344    348     1
    344    370     1
    345    349     1
    345    347     1
    345    348     1
    345    370     1
    346    351     1
    346    352     1
    346    361     1
    346    362     1
    347    350     1
    347    360     1
    347    371     1
    348    350     1
    348    360     1
    348    371     1
    349    354     1
    349    355     1
    349    364     1
    349    365     1
    350    361     1
    350    362     1
    351    356     1
    351    354     1
    351    355     1
    351    360     1
    351    371     1
    352    356     1
    352    354     1
    352    355     1
    352    360     1
    352    371     1
    353    359     1
    353    371     1
    354    357     1
    354    358     1
    355    357     1
    355    358     1
    357    359     1
    361    366     1
    361    364     1
    361    365     1
    361    371     1
    362    366     1
    362    364     1
    362    365     1
    362    371     1
    363    369     1
    363    371     1
    364    367     1
    364    368     1
    365    367     1
    365    368     1
    367    369     1
    372    379     1
    372    380     1
    373    378     1
    373    376     1
    373    377     1
    374    378     1
    374    376     1
    374    377     1
    375    403     1
    376    402     1
    376    381     1
    376    379     1
    376    380     1
    377    402     1
    377    381     1
    377    379     1
    377    380     1
    378    383     1
    378    384     1
    378    393     1
    378    394     1
    379    382     1
    379    392     1
    379    403     1
    380    382     1
    380    392     1
    380    403     1
    381    386     1
    381    387     1
    381    396     1
    381    397     1
    382    393     1
    382    394     1
    383    392     1
    383    403     1
    383    388     1
    383    386     1
    383    387     1
    384    392     1
    384    403     1
    384    388     1
    384    386     1
    384    387     1
    385    403     1
    385    391     1
    386    389     1
    386    390     1
    387    389     1
    387    390     1
    389    391     1
    393    403     1
    393    398     1
    393    396     1
    393    397     1
    394    403     1
    394    398     1
    394    396     1
    394    397     1
    395    403     1
    395    401     1
    396    399     1
    396    400     1
    397    399     1
    397    400     1
    399    401     1
    404    411     1
    404    412     1
    405    410     1
    405    408     1
    405    409     1
    406    410     1
    406    408     1
    406    409     1
    407    435     1
    408    413     1
    408    411     1
    408    412     1
    408    434     1
    409    413     1
    409    411     1
    409    412     1
    409    434     1
    410    415     1
    410    416     1
    410    425     1
    410    426     1
    411    414     1
    411    424     1
    411    435     1
    412    414     1
    412    424     1
    412    435     1
    413    418     1
    413    419     1
    413    428     1
    413    429     1
    414    425     1
    414    426     1
    415    420     1
    415    418     1
    415    419     1
    415    424     1
    415    435     1
    416    420     1
    416    418     1
    416    419     1
    416    424     1
    416    435     1
    417    423     1
    417    435     1
    418    421     1
    418    422     1
    419    421     1
    419    422     1
    421    423     1
    425    430     1
    425    428     1
    425    429     1
    425    435     1
    426    430     1
    426    428     1
    426    429     1
    426    435     1
    427    433     1
    427    435     1
    428    431     1
    428    432     1
    429    431     1
    429    432     1
    431    433     1

[ angles ]
;    ai     aj     ak funct         c0         c1         c2         c3
      1      2      8     1   107.9700462 569.024000
      1      5     11     1   107.9700462 569.024000
      2      1      5     1   112.4800480 524.673600
      2      8     14     1   111.5100476 526.347200
      5     11     17     1   111.5100476 526.347200
      8     14     20     1   114.2100488 537.225600
     11     17     21     1   114.2100488 537.225600
     14     20     28     1   109.6600471 523.836800
     14     20     31     1   109.6600471 523.836800
     17     21     22     1   109.6600471 523.836800
     17     21     25     1   109.6600471 523.836800
     20     28     40     1   114.2100488 537.225600
     20     31     43     1   114.2100488 537.225600
     21     22     34     1   114.2100488 537.225600
     21     25     37     1   114.2100488 537.225600
     22     21     25     1   109.6600471 523.836800
     22     34     55     1   111.5100476 526.347200
     25     37     52     1   111.5100476 526.347200
     28     20     31     1   109.6600471 523.836800
     28     40     49     1   111.5100476 526.347200
     31     43     46     1   111.5100476 526.347200
     34     55    178     1   107.9700462 569.024000
     37     52    148     1   107.9700462 569.024000
     40     49    118     1   107.9700462 569.024000
     43     46     88     1   107.9700462 569.024000
     46     88     79     1   112.4800480 524.673600
     49    118    109     1   112.4800480 524.673600
     52    148    139     1   112.4800480 524.673600
     55    178    169     1   112.4800480 524.673600
     60     61     73     1   114.2100488 537.225600
     60     64     76     1   114.2100488 537.225600
     60     67     70     1   114.2100488 537.225600
     61     60     64     1   109.6600471 523.836800
     61     60     67     1   109.6600471 523.836800
     61     73     85     1   111.5100476 526.347200
     64     60     67     1   109.6600471 523.836800
     64     76     82     1   111.5100476 526.347200
     67     70     79     1   111.5100476 526.347200
     70     79     88     1   107.9700462 569.024000
     73     85    242     1   107.9700462 569.024000
     76     82    210     1   107.9700462 569.024000
     82    210    180     1   112.4800480 524.673600
     85    242    212     1   112.4800480 524.673600
     90     91    103     1   114.2100488 537.225600
     90     94    106     1   114.2100488 537.225600
     90     97    100     1   114.2100488 537.225600
     91     90     94     1   109.6600471 523.836800
     91     90     97     1   109.6600471 523.836800
     91    103    115     1   111.5100476 526.347200
     94     90     97     1   109.6600471 523.836800
     94    106    112     1   111.5100476 526.347200
     97    100    109     1   111.5100476 526.347200
    100    109    118     1   107.9700462 569.024000
    103    115    306     1   107.9700462 569.024000
    106    112    274     1   107.9700462 569.024000
    112    274    244     1   112.4800480 524.673600
    115    306    276     1   112.4800480 524.673600
    120    121    133     1   114.2100488 537.225600
    120    124    136     1   114.2100488 537.225600
    120    127    130     1   114.2100488 537.225600
    121    120    124     1   109.6600471 523.836800
    121    120    127     1   109.6600471 523.836800
    121    133    145     1   111.5100476 526.347200
    124    120    127     1   109.6600471 523.836800
    124    136    142     1   111.5100476 526.347200
    127    130    139     1   111.5100476 526.347200
    130    139    148     1   107.9700462 569.024000
    133    145    370     1   107.9700462 569.024000
    136    142    338     1   107.9700462 569.024000
    142    338    308     1   112.4800480 524.673600
    145    370    340     1   112.4800480 524.673600
    150    151    163     1   114.2100488 537.225600
    150    154    166     1   114.2100488 537.225600
    150    157    160     1   114.2100488 537.225600
    151    150    154     1   109.6600471 523.836800
    151    150    157     1   109.6600471 523.836800
    151    163    175     1   111.5100476 526.347200
    154    150    157     1   109.6600471 523.836800
    154    166    172     1   111.5100476 526.347200
    157    160    169     1   111.5100476 526.347200
    160    169    178     1   107.9700462 569.024000
    163    175    434     1   107.9700462 569.024000
    166    172    402     1   107.9700462 569.024000
    172    402    372     1   112.4800480 524.673600
    175    434    404     1   112.4800480 524.673600
    180    183    186     1   111.5100476 526.347200
    183    180    210     1   107.9700462 569.024000
    183    186    189     1   114.2100488 537.225600
    186    189    190     1   109.6600471 523.836800
    186    189    200     1   109.6600471 523.836800
    189    190    193     1   114.2100488 537.225600
    189    200    203     1   114.2100488 537.225600
    190    189    200     1   109.6600471 523.836800
    190    193    196     1   111.0400475 529.694400
    193    196    197     1   123.2000528 564.003200
    193    196    198     1   112.7300484 572.371200
    197    196    198     1   122.1000523 635.131200
    200    203    206     1   111.0400475 529.694400
    203    206    207     1   123.2000528 564.003200
    203    206    208     1   112.7300484 572.371200
    207    206    208     1   122.1000523 635.131200
    212    215    218     1   111.5100476 526.347200
    215    218    221     1   114.2100488 537.225600
    215    212    242     1   107.9700462 569.024000
    218    221    222     1   109.6600471 523.836800
    218    221    232     1   109.6600471 523.836800
    221    222    225     1   114.2100488 537.225600
    221    232    235     1   114.2100488 537.225600
    222    225    228     1   111.0400475 529.694400
    222    221    232     1   109.6600471 523.836800
    225    228    229     1   123.2000528 564.003200
    225    228    230     1   112.7300484 572.371200
    229    228    230     1   122.1000523 635.131200
    232    235    238     1   111.0400475 529.694400
    235    238    239     1   123.2000528 564.003200
    235    238    240     1   112.7300484 572.371200
    239    238    240     1   122.1000523 635.131200
    244    247    250     1   111.5100476 526.347200
    247    244    274     1   107.9700462 569.024000
    247    250    253     1   114.2100488 537.225600
    250    253    254     1   109.6600471 523.836800
    250    253    264     1   109.6600471 523.836800
    253    254    257     1   114.2100488 537.225600
    253    264    267     1   114.2100488 537.225600
    254    253    264     1   109.6600471 523.836800
    254    257    260     1   111.0400475 529.694400
    257    260    261     1   123.2000528 564.003200
    257    260    262     1   112.7300484 572.371200
    261    260    262     1   122.1000523 635.131200
    264    267    270     1   111.0400475 529.694400
    267    270    271     1   123.2000528 564.003200
    267    270    272     1   112.7300484 572.371200
    271    270    272     1   122.1000523 635.131200
    276    279    282     1   111.5100476 526.347200
    279    282    285     1   114.2100488 537.225600
    279    276    306     1   107.9700462 569.024000
    282    285    286     1   109.6600471 523.836800
    282    285    296     1   109.6600471 523.836800
    285    286    289     1   114.2100488 537.225600
    285    296    299     1   114.2100488 537.225600
    286    289    292     1   111.0400475 529.694400
    286    285    296     1   109.6600471 523.836800
    289    292    293     1   123.2000528 564.003200
    289    292    294     1   112.7300484 572.371200
    293    292    294     1   122.1000523 635.131200
    296    299    302     1   111.0400475 529.694400
    299    302    303     1   123.2000528 564.003200
    299    302    304     1   112.7300484 572.371200
    303    302    304     1   122.1000523 635.131200
    308    311    314     1   111.5100476 526.347200
    311    308    338     1   107.9700462 569.024000
    311    314    317     1   114.2100488 537.225600
    314    317    318     1   109.6600471 523.836800
    314    317    328     1   109.6600471 523.836800
    317    318    321     1   114.2100488 537.225600
    317    328    331     1   114.2100488 537.225600
    318    317    328     1   109.6600471 523.836800
    318    321    324     1   111.0400475 529.694400
    321    324    325     1   123.2000528 564.003200
    321    324    326     1   112.7300484 572.371200
    325    324    326     1   122.1000523 635.131200
    328    331    334     1   111.0400475 529.694400
    331    334    335     1   123.2000528 564.003200
    331    334    336     1   112.7300484 572.371200
    335    334    336     1   122.1000523 635.131200
    340    343    346     1   111.5100476 526.347200
    343    346    349     1   114.2100488 537.225600
    343    340    370     1   107.9700462 569.024000
    346    349    350     1   109.6600471 523.836800
    346    349    360     1   109.6600471 523.836800
    349    350    353     1   114.2100488 537.225600
    349    360    363     1   114.2100488 537.225600
    350    353    356     1   111.0400475 529.694400
    350    349    360     1   109.6600471 523.836800
    353    356    357     1   123.2000528 564.003200
    353    356    358     1   112.7300484 572.371200
    357    356    358     1   122.1000523 635.131200
    360    363    366     1   111.0400475 529.694400
    363    366    367     1   123.2000528 564.003200
    363    366    368     1   112.7300484 572.371200
    367    366    368     1   122.1000523 635.131200
    372    375    378     1   111.5100476 526.347200
    375    372    402     1   107.9700462 569.024000
    375    378    381     1   114.2100488 537.225600
    378    381    382     1   109.6600471 523.836800
    378    381    392     1   109.6600471 523.836800
    381    382    385     1   114.2100488 537.225600
    381    392    395     1   114.2100488 537.225600
    382    381    392     1   109.6600471 523.836800
    382    385    388     1   111.0400475 529.694400
    385    388    389     1   123.2000528 564.003200
    385    388    390     1   112.7300484 572.371200
    389    388    390     1   122.1000523 635.131200
    392    395    398     1   111.0400475 529.694400
    395    398    399     1   123.2000528 564.003200
    395    398    400     1   112.7300484 572.371200
    399    398    400     1   122.1000523 635.131200
    404    407    410     1   111.5100476 526.347200
    407    410    413     1   114.2100488 537.225600
    407    404    434     1   107.9700462 569.024000
    410    413    414     1   109.6600471 523.836800
    410    413    424     1   109.6600471 523.836800
    413    414    417     1   114.2100488 537.225600
    413    424    427     1   114.2100488 537.225600
    414    417    420     1   111.0400475 529.694400
    414    413    424     1   109.6600471 523.836800
    417    420    421     1   123.2000528 564.003200
    417    420    422     1   112.7300484 572.371200
    421    420    422     1   122.1000523 635.131200
    424    427    430     1   111.0400475 529.694400
    427    430    431     1   123.2000528 564.003200
    427    430    432     1   112.7300484 572.371200
    431    430    432     1   122.1000523 635.131200
      1      2      3     1   109.7800468 425.094400
      1      2      4     1   109.7800468 425.094400
      1      5      6     1   109.7800468 425.094400
      1      5      7     1   109.7800468 425.094400
      2      8      9     1   109.8000471 387.438400
      2      8     10     1   109.8000471 387.438400
      3      2      8     1   109.5600471 388.275200
      3      2      4     1   108.4600466 328.025600
      4      2      8     1   109.5600471 388.275200
      5     11     12     1   109.8000471 387.438400
      5     11     13     1   109.8000471 387.438400
      6      5     11     1   109.5600471 388.275200
      6      5      7     1   108.4600466 328.025600
      7      5     11     1   109.5600471 388.275200
      8     14     15     1   110.5600475 386.601600
      8     14     16     1   110.5600475 386.601600
      9      8     14     1   109.8000471 387.438400
      9      8     10     1   107.5800459 329.699200
     10      8     14     1   109.8000471 387.438400
     11     17     18     1   110.5600475 386.601600
     11     17     19     1   110.5600475 386.601600
     12     11     17     1   109.8000471 387.438400
     12     11     13     1   107.5800459 329.699200
     13     11     17     1   109.8000471 387.438400
     14     20     58     1   110.1100470 384.091200
     15     14     20     1   108.0100461 406.684800
     15     14     16     1   109.7500473 328.025600
     16     14     20     1   108.0100461 406.684800
     17     21     59     1   110.1100470 384.091200
     18     17     21     1   108.0100461 406.684800
     18     17     19     1   109.7500473 328.025600
     19     17     21     1   108.0100461 406.684800
     20     28     29     1   108.0100461 406.684800
     20     28     30     1   108.0100461 406.684800
     20     31     32     1   108.0100461 406.684800
     20     31     33     1   108.0100461 406.684800
     21     22     23     1   108.0100461 406.684800
     21     22     24     1   108.0100461 406.684800
     21     25     26     1   108.0100461 406.684800
     21     25     27     1   108.0100461 406.684800
     22     21     59     1   110.1100470 384.091200
     22     34     35     1   109.8000471 387.438400
     22     34     36     1   109.8000471 387.438400
     23     22     34     1   110.5600475 386.601600
     23     22     24     1   109.7500473 328.025600
     24     22     34     1   110.5600475 386.601600
     25     21     59     1   110.1100470 384.091200
     25     37     38     1   109.8000471 387.438400
     25     37     39     1   109.8000471 387.438400
     26     25     37     1   110.5600475 386.601600
     26     25     27     1   109.7500473 328.025600
     27     25     37     1   110.5600475 386.601600
     28     20     58     1   110.1100470 384.091200
     28     40     41     1   109.8000471 387.438400
     28     40     42     1   109.8000471 387.438400
     29     28     40     1   110.5600475 386.601600
     29     28     30     1   109.7500473 328.025600
     30     28     40     1   110.5600475 386.601600
     31     20     58     1   110.1100470 384.091200
     31     43     44     1   109.8000471 387.438400
     31     43     45     1   109.8000471 387.438400
     32     31     43     1   110.5600475 386.601600
     32     31     33     1   109.7500473 328.025600
     33     31     43     1   110.5600475 386.601600
     34     55     56     1   109.8000471 387.438400
     34     55     57     1   109.8000471 387.438400
     35     34     55     1   109.8000471 387.438400
     35     34     36     1   107.5800459 329.699200
     36     34     55     1   109.8000471 387.438400
     37     52     53     1   109.8000471 387.438400
     37     52     54     1   109.8000471 387.438400
     38     37     52     1   109.8000471 387.438400
     38     37     39     1   107.5800459 329.699200
     39     37     52     1   109.8000471 387.438400
     40     49     50     1   109.8000471 387.438400
     40     49     51     1   109.8000471 387.438400
     41     40     49     1   109.8000471 387.438400
     41     40     42     1   107.5800459 329.699200
     42     40     49     1   109.8000471 387.438400
     43     46     47     1   109.8000471 387.438400
     43     46     48     1   109.8000471 387.438400
     44     43     46     1   109.8000471 387.438400
     44     43     45     1   107.5800459 329.699200
     45     43     46     1   109.8000471 387.438400
     47     46     88     1   108.7000466 426.768000
     47     46     48     1   107.5800459 329.699200
     48     46     88     1   108.7000466 426.768000
     50     49    118     1   108.7000466 426.768000
     50     49     51     1   107.5800459 329.699200
     51     49    118     1   108.7000466 426.768000
     53     52    148     1   108.7000466 426.768000
     53     52     54     1   107.5800459 329.699200
     54     52    148     1   108.7000466 426.768000
     56     55    178     1   108.7000466 426.768000
     56     55     57     1   107.5800459 329.699200
     57     55    178     1   108.7000466 426.768000
     60     61     62     1   108.0100461 406.684800
     60     61     63     1   108.0100461 406.684800
     60     64     65     1   108.0100461 406.684800
     60     64     66     1   108.0100461 406.684800
     60     67     68     1   108.0100461 406.684800
     60     67     69     1   108.0100461 406.684800
     61     60     89     1   110.1100470 384.091200
     61     73     74     1   109.8000471 387.438400
     61     73     75     1   109.8000471 387.438400
     62     61     73     1   110.5600475 386.601600
     62     61     63     1   109.7500473 328.025600
     63     61     73     1   110.5600475 386.601600
     64     60     89     1   110.1100470 384.091200
     64     76     77     1   109.8000471 387.438400
     64     76     78     1   109.8000471 387.438400
     65     64     76     1   110.5600475 386.601600
     65     64     66     1   109.7500473 328.025600
     66     64     76     1   110.5600475 386.601600
     67     60     89     1   110.1100470 384.091200
     67     70     71     1   109.8000471 387.438400
     67     70     72     1   109.8000471 387.438400
     68     67     70     1   110.5600475 386.601600
     68     67     69     1   109.7500473 328.025600
     69     67     70     1   110.5600475 386.601600
     70     79     80     1   109.5600471 388.275200
     70     79     81     1   109.5600471 388.275200
     71     70     79     1   109.8000471 387.438400
     71     70     72     1   107.5800459 329.699200
     72     70     79     1   109.8000471 387.438400
     73     85     86     1   109.5600471 388.275200
     73     85     87     1   109.5600471 388.275200
     74     73     85     1   109.8000471 387.438400
     74     73     75     1   107.5800459 329.699200
     75     73     85     1   109.8000471 387.438400
     76     82     83     1   109.5600471 388.275200
     76     82     84     1   109.5600471 388.275200
     77     76     82     1   109.8000471 387.438400
     77     76     78     1   107.5800459 329.699200
     78     76     82     1   109.8000471 387.438400
     80     79     88     1   109.7800468 425.094400
     80     79     81     1   108.4600466 328.025600
     81     79     88     1   109.7800468 425.094400
     83     82    210     1   109.7800468 425.094400
     83     82     84     1   108.4600466 328.025600
     84     82    210     1   109.7800468 425.094400
     86     85    242     1   109.7800468 425.094400
     86     85     87     1   108.4600466 328.025600
     87     85    242     1   109.7800468 425.094400
     90     91     92     1   108.0100461 406.684800
     90     91     93     1   108.0100461 406.684800
     90     94     95     1   108.0100461 406.684800
     90     94     96     1   108.0100461 406.684800
     90     97     98     1   108.0100461 406.684800
     90     97     99     1   108.0100461 406.684800
     91     90    119     1   110.1100470 384.091200
     91    103    104     1   109.8000471 387.438400
     91    103    105     1   109.8000471 387.438400
     92     91    103     1   110.5600475 386.601600
     92     91     93     1   109.7500473 328.025600
     93     91    103     1   110.5600475 386.601600
     94     90    119     1   110.1100470 384.091200
     94    106    107     1   109.8000471 387.438400
     94    106    108     1   109.8000471 387.438400
     95     94    106     1   110.5600475 386.601600
     95     94     96     1   109.7500473 328.025600
     96     94    106     1   110.5600475 386.601600
     97     90    119     1   110.1100470 384.091200
     97    100    101     1   109.8000471 387.438400
     97    100    102     1   109.8000471 387.438400
     98     97    100     1   110.5600475 386.601600
     98     97     99     1   109.7500473 328.025600
     99     97    100     1   110.5600475 386.601600
    100    109    110     1   109.5600471 388.275200
    100    109    111     1   109.5600471 388.275200
    101    100    109     1   109.8000471 387.438400
    101    100    102     1   107.5800459 329.699200
    102    100    109     1   109.8000471 387.438400
    103    115    116     1   109.5600471 388.275200
    103    115    117     1   109.5600471 388.275200
    104    103    115     1   109.8000471 387.438400
    104    103    105     1   107.5800459 329.699200
    105    103    115     1   109.8000471 387.438400
    106    112    113     1   109.5600471 388.275200
    106    112    114     1   109.5600471 388.275200
    107    106    112     1   109.8000471 387.438400
    107    106    108     1   107.5800459 329.699200
    108    106    112     1   109.8000471 387.438400
    110    109    118     1   109.7800468 425.094400
    110    109    111     1   108.4600466 328.025600
    111    109    118     1   109.7800468 425.094400
    113    112    274     1   109.7800468 425.094400
    113    112    114     1   108.4600466 328.025600
    114    112    274     1   109.7800468 425.094400
    116    115    306     1   109.7800468 425.094400
    116    115    117     1   108.4600466 328.025600
    117    115    306     1   109.7800468 425.094400
    120    121    122     1   108.0100461 406.684800
    120    121    123     1   108.0100461 406.684800
    120    124    125     1   108.0100461 406.684800
    120    124    126     1   108.0100461 406.684800
    120    127    128     1   108.0100461 406.684800
    120    127    129     1   108.0100461 406.684800
    121    120    149     1   110.1100470 384.091200
    121    133    134     1   109.8000471 387.438400
    121    133    135     1   109.8000471 387.438400
    122    121    133     1   110.5600475 386.601600
    122    121    123     1   109.7500473 328.025600
    123    121    133     1   110.5600475 386.601600
    124    120    149     1   110.1100470 384.091200
    124    136    137     1   109.8000471 387.438400
    124    136    138     1   109.8000471 387.438400
    125    124    136     1   110.5600475 386.601600
    125    124    126     1   109.7500473 328.025600
    126    124    136     1   110.5600475 386.601600
    127    120    149     1   110.1100470 384.091200
    127    130    131     1   109.8000471 387.438400
    127    130    132     1   109.8000471 387.438400
    128    127    130     1   110.5600475 386.601600
    128    127    129     1   109.7500473 328.025600
    129    127    130     1   110.5600475 386.601600
    130    139    140     1   109.5600471 388.275200
    130    139    141     1   109.5600471 388.275200
    131    130    139     1   109.8000471 387.438400
    131    130    132     1   107.5800459 329.699200
    132    130    139     1   109.8000471 387.438400
    133    145    146     1   109.5600471 388.275200
    133    145    147     1   109.5600471 388.275200
    134    133    145     1   109.8000471 387.438400
    134    133    135     1   107.5800459 329.699200
    135    133    145     1   109.8000471 387.438400
    136    142    143     1   109.5600471 388.275200
    136    142    144     1   109.5600471 388.275200
    137    136    142     1   109.8000471 387.438400
    137    136    138     1   107.5800459 329.699200
    138    136    142     1   109.8000471 387.438400
    140    139    148     1   109.7800468 425.094400
    140    139    141     1   108.4600466 328.025600
    141    139    148     1   109.7800468 425.094400
    143    142    338     1   109.7800468 425.094400
    143    142    144     1   108.4600466 328.025600
    144    142    338     1   109.7800468 425.094400
    146    145    370     1   109.7800468 425.094400
    146    145    147     1   108.4600466 328.025600
    147    145    370     1   109.7800468 425.094400
    150    151    152     1   108.0100461 406.684800
    150    151    153     1   108.0100461 406.684800
    150    154    155     1   108.0100461 406.684800
    150    154    156     1   108.0100461 406.684800
    150    157    158     1   108.0100461 406.684800
    150    157    159     1   108.0100461 406.684800
    151    150    179     1   110.1100470 384.091200
    151    163    164     1   109.8000471 387.438400
    151    163    165     1   109.8000471 387.438400
    152    151    163     1   110.5600475 386.601600
    152    151    153     1   109.7500473 328.025600
    153    151    163     1   110.5600475 386.601600
    154    150    179     1   110.1100470 384.091200
    154    166    167     1   109.8000471 387.438400
    154    166    168     1   109.8000471 387.438400
    155    154    166     1   110.5600475 386.601600
    155    154    156     1   109.7500473 328.025600
    156    154    166     1   110.5600475 386.601600
    157    150    179     1   110.1100470 384.091200
    157    160    161     1   109.8000471 387.438400
    157    160    162     1   109.8000471 387.438400
    158    157    160     1   110.5600475 386.601600
    158    157    159     1   109.7500473 328.025600
    159    157    160     1   110.5600475 386.601600
    160    169    170     1   109.5600471 388.275200
    160    169    171     1   109.5600471 388.275200
    161    160    169     1   109.8000471 387.438400
    161    160    162     1   107.5800459 329.699200
    162    160    169     1   109.8000471 387.438400
    163    175    176     1   109.5600471 388.275200
    163    175    177     1   109.5600471 388.275200
    164    163    175     1   109.8000471 387.438400
    164    163    165     1   107.5800459 329.699200
    165    163    175     1   109.8000471 387.438400
    166    172    173     1   109.5600471 388.275200
    166    172    174     1   109.5600471 388.275200
    167    166    172     1   109.8000471 387.438400
    167    166    168     1   107.5800459 329.699200
    168    166    172     1   109.8000471 387.438400
    170    169    178     1   109.7800468 425.094400
    170    169    171     1   108.4600466 328.025600
    171    169    178     1   109.7800468 425.094400
    173    172    402     1   109.7800468 425.094400
    173    172    174     1   108.4600466 328.025600
    174    172    402     1   109.7800468 425.094400
    176    175    434     1   109.7800468 425.094400
    176    175    177     1   108.4600466 328.025600
    177    175    434     1   109.7800468 425.094400
    180    183    184     1   109.8000471 387.438400
    180    183    185     1   109.8000471 387.438400
    181    180    183     1   109.5600471 388.275200
    181    180    210     1   109.7800468 425.094400
    181    180    182     1   108.4600466 328.025600
    182    180    183     1   109.5600471 388.275200
    182    180    210     1   109.7800468 425.094400
    183    186    187     1   110.5600475 386.601600
    183    186    188     1   110.5600475 386.601600
    184    183    186     1   109.8000471 387.438400
    184    183    185     1   107.5800459 329.699200
    185    183    186     1   109.8000471 387.438400
    186    189    211     1   110.1100470 384.091200
    187    186    189     1   108.0100461 406.684800
    187    186    188     1   109.7500473 328.025600
    188    186    189     1   108.0100461 406.684800
    189    190    191     1   108.0100461 406.684800
    189    190    192     1   108.0100461 406.684800
    189    200    201     1   108.0100461 406.684800
    189    200    202     1   108.0100461 406.684800
    190    189    211     1   110.1100470 384.091200
    190    193    194     1   109.8000471 387.438400
    190    193    195     1   109.8000471 387.438400
    191    190    193     1   110.5600475 386.601600
    191    190    192     1   109.7500473 328.025600
    192    190    193     1   110.5600475 386.601600
    194    193    196     1   108.7700466 392.459200
    194    193    195     1   107.5800459 329.699200
    195    193    196     1   108.7700466 392.459200
    196    198    199     1   106.5500460 417.563200
    200    189    211     1   110.1100470 384.091200
    200    203    204     1   109.8000471 387.438400
    200    203    205     1   109.8000471 387.438400
    201    200    203     1   110.5600475 386.601600
    201    200    202     1   109.7500473 328.025600
    202    200    203     1   110.5600475 386.601600
    204    203    206     1   108.7700466 392.459200
    204    203    205     1   107.5800459 329.699200
    205    203    206     1   108.7700466 392.459200
    206    208    209     1   106.5500460 417.563200
    212    215    216     1   109.8000471 387.438400
    212    215    217     1   109.8000471 387.438400
    213    212    215     1   109.5600471 388.275200
    213    212    242     1   109.7800468 425.094400
    213    212    214     1   108.4600466 328.025600
    214    212    215     1   109.5600471 388.275200
    214    212    242     1   109.7800468 425.094400
    215    218    219     1   110.5600475 386.601600
    215    218    220     1   110.5600475 386.601600
    216    215    218     1   109.8000471 387.438400
    216    215    217     1   107.5800459 329.699200
    217    215    218     1   109.8000471 387.438400
    218    221    243     1   110.1100470 384.091200
    219    218    221     1   108.0100461 406.684800
    219    218    220     1   109.7500473 328.025600
    220    218    221     1   108.0100461 406.684800
    221    222    223     1   108.0100461 406.684800
    221    222    224     1   108.0100461 406.684800
    221    232    233     1   108.0100461 406.684800
    221    232    234     1   108.0100461 406.684800
    222    225    226     1   109.8000471 387.438400
    222    225    227     1   109.8000471 387.438400
    222    221    243     1   110.1100470 384.091200
    223    222    225     1   110.5600475 386.601600
    223    222    224     1   109.7500473 328.025600
    224    222    225     1   110.5600475 386.601600
    226    225    228     1   108.7700466 392.459200
    226    225    227     1   107.5800459 329.699200
    227    225    228     1   108.7700466 392.459200
    228    230    231     1   106.5500460 417.563200
    232    235    236     1   109.8000471 387.438400
    232    235    237     1   109.8000471 387.438400
    232    221    243     1   110.1100470 384.091200
    233    232    235     1   110.5600475 386.601600
    233    232    234     1   109.7500473 328.025600
    234    232    235     1   110.5600475 386.601600
    236    235    238     1   108.7700466 392.459200
    236    235    237     1   107.5800459 329.699200
    237    235    238     1   108.7700466 392.459200
    238    240    241     1   106.5500460 417.563200
    244    247    248     1   109.8000471 387.438400
    244    247    249     1   109.8000471 387.438400
    245    244    247     1   109.5600471 388.275200
    245    244    274     1   109.7800468 425.094400
    245    244    246     1   108.4600466 328.025600
    246    244    247     1   109.5600471 388.275200
    246    244    274     1   109.7800468 425.094400
    247    250    251     1   110.5600475 386.601600
    247    250    252     1   110.5600475 386.601600
    248    247    250     1   109.8000471 387.438400
    248    247    249     1   107.5800459 329.699200
    249    247    250     1   109.8000471 387.438400
    250    253    275     1   110.1100470 384.091200
    251    250    253     1   108.0100461 406.684800
    251    250    252     1   109.7500473 328.025600
    252    250    253     1   108.0100461 406.684800
    253    254    255     1   108.0100461 406.684800
    253    254    256     1   108.0100461 406.684800
    253    264    265     1   108.0100461 406.684800
    253    264    266     1   108.0100461 406.684800
    254    253    275     1   110.1100470 384.091200
    254    257    258     1   109.8000471 387.438400
    254    257    259     1   109.8000471 387.438400
    255    254    257     1   110.5600475 386.601600
    255    254    256     1   109.7500473 328.025600
    256    254    257     1   110.5600475 386.601600
    258    257    260     1   108.7700466 392.459200
    258    257    259     1   107.5800459 329.699200
    259    257    260     1   108.7700466 392.459200
    260    262    263     1   106.5500460 417.563200
    264    253    275     1   110.1100470 384.091200
    264    267    268     1   109.8000471 387.438400
    264    267    269     1   109.8000471 387.438400
    265    264    267     1   110.5600475 386.601600
    265    264    266     1   109.7500473 328.025600
    266    264    267     1   110.5600475 386.601600
    268    267    270     1   108.7700466 392.459200
    268    267    269     1   107.5800459 329.699200
    269    267    270     1   108.7700466 392.459200
    270    272    273     1   106.5500460 417.563200
    276    279    280     1   109.8000471 387.438400
    276    279    281     1   109.8000471 387.438400
    277    276    279     1   109.5600471 388.275200
    277    276    306     1   109.7800468 425.094400
    277    276    278     1   108.4600466 328.025600
    278    276    279     1   109.5600471 388.275200
    278    276    306     1   109.7800468 425.094400
    279    282    283     1   110.5600475 386.601600
    279    282    284     1   110.5600475 386.601600
    280    279    282     1   109.8000471 387.438400
    280    279    281     1   107.5800459 329.699200
    281    279    282     1   109.8000471 387.438400
    282    285    307     1   110.1100470 384.091200
    283    282    285     1   108.0100461 406.684800
    283    282    284     1   109.7500473 328.025600
    284    282    285     1   108.0100461 406.684800
    285    286    287     1   108.0100461 406.684800
    285    286    288     1   108.0100461 406.684800
    285    296    297     1   108.0100461 406.684800
    285    296    298     1   108.0100461 406.684800
    286    289    290     1   109.8000471 387.438400
    286    289    291     1   109.8000471 387.438400
    286    285    307     1   110.1100470 384.091200
    287    286    289     1   110.5600475 386.601600
    287    286    288     1   109.7500473 328.025600
    288    286    289     1   110.5600475 386.601600
    290    289    292     1   108.7700466 392.459200
    290    289    291     1   107.5800459 329.699200
    291    289    292     1   108.7700466 392.459200
    292    294    295     1   106.5500460 417.563200
    296    299    300     1   109.8000471 387.438400
    296    299    301     1   109.8000471 387.438400
    296    285    307     1   110.1100470 384.091200
    297    296    299     1   110.5600475 386.601600
    297    296    298     1   109.7500473 328.025600
    298    296    299     1   110.5600475 386.601600
    300    299    302     1   108.7700466 392.459200
    300    299    301     1   107.5800459 329.699200
    301    299    302     1   108.7700466 392.459200
    302    304    305     1   106.5500460 417.563200
    308    311    312     1   109.8000471 387.438400
    308    311    313     1   109.8000471 387.438400
    309    308    311     1   109.5600471 388.275200
    309    308    338     1   109.7800468 425.094400
    309    308    310     1   108.4600466 328.025600
    310    308    311     1   109.5600471 388.275200
    310    308    338     1   109.7800468 425.094400
    311    314    315     1   110.5600475 386.601600
    311    314    316     1   110.5600475 386.601600
    312    311    314     1   109.8000471 387.438400
    312    311    313     1   107.5800459 329.699200
    313    311    314     1   109.8000471 387.438400
    314    317    339     1   110.1100470 384.091200
    315    314    317     1   108.0100461 406.684800
    315    314    316     1   109.7500473 328.025600
    316    314    317     1   108.0100461 406.684800
    317    318    319     1   108.0100461 406.684800
    317    318    320     1   108.0100461 406.684800
    317    328    329     1   108.0100461 406.684800
    317    328    330     1   108.0100461 406.684800
    318    317    339     1   110.1100470 384.091200
    318    321    322     1   109.8000471 387.438400
    318    321    323     1   109.8000471 387.438400
    319    318    321     1   110.5600475 386.601600
    319    318    320     1   109.7500473 328.025600
    320    318    321     1   110.5600475 386.601600
    322    321    324     1   108.7700466 392.459200
    322    321    323     1   107.5800459 329.699200
    323    321    324     1   108.7700466 392.459200
    324    326    327     1   106.5500460 417.563200
    328    317    339     1   110.1100470 384.091200
    328    331    332     1   109.8000471 387.438400
    328    331    333     1   109.8000471 387.438400
    329    328    331     1   110.5600475 386.601600
    329    328    330     1   109.7500473 328.025600
    330    328    331     1   110.5600475 386.601600
    332    331    334     1   108.7700466 392.459200
    332    331    333     1   107.5800459 329.699200
    333    331    334     1   108.7700466 392.459200
    334    336    337     1   106.5500460 417.563200
    340    343    344     1   109.8000471 387.438400
    340    343    345     1   109.8000471 387.438400
    341    340    343     1   109.5600471 388.275200
    341    340    370     1   109.7800468 425.094400
    341    340    342     1   108.4600466 328.025600
    342    340    343     1   109.5600471 388.275200
    342    340    370     1   109.7800468 425.094400
    343    346    347     1   110.5600475 386.601600
    343    346    348     1   110.5600475 386.601600
    344    343    346     1   109.8000471 387.438400
    344    343    345     1   107.5800459 329.699200
    345    343    346     1   109.8000471 387.438400
    346    349    371     1   110.1100470 384.091200
    347    346    349     1   108.0100461 406.684800
    347    346    348     1   109.7500473 328.025600
    348    346    349     1   108.0100461 406.684800
    349    350    351     1   108.0100461 406.684800
    349    350    352     1   108.0100461 406.684800
    349    360    361     1   108.0100461 406.684800
    349    360    362     1   108.0100461 406.684800
    350    353    354     1   109.8000471 387.438400
    350    353    355     1   109.8000471 387.438400
    350    349    371     1   110.1100470 384.091200
    351    350    353     1   110.5600475 386.601600
    351    350    352     1   109.7500473 328.025600
    352    350    353     1   110.5600475 386.601600
    354    353    356     1   108.7700466 392.459200
    354    353    355     1   107.5800459 329.699200
    355    353    356     1   108.7700466 392.459200
    356    358    359     1   106.5500460 417.563200
    360    363    364     1   109.8000471 387.438400
    360    363    365     1   109.8000471 387.438400
    360    349    371     1   110.1100470 384.091200
    361    360    363     1   110.5600475 386.601600
    361    360    362     1   109.7500473 328.025600
    362    360    363     1   110.5600475 386.601600
    364    363    366     1   108.7700466 392.459200
    364    363    365     1   107.5800459 329.699200
    365    363    366     1   108.7700466 392.459200
    366    368    369     1   106.5500460 417.563200
    372    375    376     1   109.8000471 387.438400
    372    375    377     1   109.8000471 387.438400
    373    372    375     1   109.5600471 388.275200
    373    372    402     1   109.7800468 425.094400
    373    372    374     1   108.4600466 328.025600
    374    372    375     1   109.5600471 388.275200
    374    372    402     1   109.7800468 425.094400
    375    378    379     1   110.5600475 386.601600
    375    378    380     1   110.5600475 386.601600
    376    375    378     1   109.8000471 387.438400
    376    375    377     1   107.5800459 329.699200
    377    375    378     1   109.8000471 387.438400
    378    381    403     1   110.1100470 384.091200
    379    378    381     1   108.0100461 406.684800
    379    378    380     1   109.7500473 328.025600
    380    378    381     1   108.0100461 406.684800
    381    382    383     1   108.0100461 406.684800
    381    382    384     1   108.0100461 406.684800
    381    392    393     1   108.0100461 406.684800
    381    392    394     1   108.0100461 406.684800
    382    381    403     1   110.1100470 384.091200
    382    385    386     1   109.8000471 387.438400
    382    385    387     1   109.8000471 387.438400
    383    382    385     1   110.5600475 386.601600
    383    382    384     1   109.7500473 328.025600
    384    382    385     1   110.5600475 386.601600
    386    385    388     1   108.7700466 392.459200
    386    385    387     1   107.5800459 329.699200
    387    385    388     1   108.7700466 392.459200
    388    390    391     1   106.5500460 417.563200
    392    381    403     1   110.1100470 384.091200
    392    395    396     1   109.8000471 387.438400
    392    395    397     1   109.8000471 387.438400
    393    392    395     1   110.5600475 386.601600
    393    392    394     1   109.7500473 328.025600
    394    392    395     1   110.5600475 386.601600
    396    395    398     1   108.7700466 392.459200
    396    395    397     1   107.5800459 329.699200
    397    395    398     1   108.7700466 392.459200
    398    400    401     1   106.5500460 417.563200
    404    407    408     1   109.8000471 387.438400
    404    407    409     1   109.8000471 387.438400
    405    404    407     1   109.5600471 388.275200
    405    404    434     1   109.7800468 425.094400
    405    404    406     1   108.4600466 328.025600
    406    404    407     1   109.5600471 388.275200
    406    404    434     1   109.7800468 425.094400
    407    410    411     1   110.5600475 386.601600
    407    410    412     1   110.5600475 386.601600
    408    407    410     1   109.8000471 387.438400
    408    407    409     1   107.5800459 329.699200
    409    407    410     1   109.8000471 387.438400
    410    413    435     1   110.1100470 384.091200
    411    410    413     1   108.0100461 406.684800
    411    410    412     1   109.7500473 328.025600
    412    410    413     1   108.0100461 406.684800
    413    414    415     1   108.0100461 406.684800
    413    414    416     1   108.0100461 406.684800
    413    424    425     1   108.0100461 406.684800
    413    424    426     1   108.0100461 406.684800
    414    417    418     1   109.8000471 387.438400
    414    417    419     1   109.8000471 387.438400
    414    413    435     1   110.1100470 384.091200
    415    414    417     1   110.5600475 386.601600
    415    414    416     1   109.7500473 328.025600
    416    414    417     1   110.5600475 386.601600
    418    417    420     1   108.7700466 392.459200
    418    417    419     1   107.5800459 329.699200
    419    417    420     1   108.7700466 392.459200
    420    422    423     1   106.5500460 417.563200
    424    427    428     1   109.8000471 387.438400
    424    427    429     1   109.8000471 387.438400
    424    413    435     1   110.1100470 384.091200
    425    424    427     1   110.5600475 386.601600
    425    424    426     1   109.7500473 328.025600
    426    424    427     1   110.5600475 386.601600
    428    427    430     1   108.7700466 392.459200
    428    427    429     1   107.5800459 329.699200
    429    427    430     1   108.7700466 392.459200
    430    432    433     1   106.5500460 417.563200

[ dihedrals ]
;    ai     aj     ak     al funct         c0         c1         c2         c3         c4         c5
      1      2      8     14     1  0.0000000  0.6508444  3
      1      5     11     17     1  0.0000000  0.6508444  3
      2      1      5     11     1  180.0000771  0.4184000  2
      2      1      5     11     1  0.0000000  1.6024720  3
      2      8     14     20     1  0.0000000  0.6508444  3
      5      1      2      8     1  180.0000771  0.4184000  2
      5      1      2      8     1  0.0000000  1.6024720  3
      5     11     17     21     1  0.0000000  0.6508444  3
      8     14     20     28     1  0.0000000  0.6508444  3
      8     14     20     31     1  0.0000000  0.6508444  3
     11     17     21     22     1  0.0000000  0.6508444  3
     11     17     21     25     1  0.0000000  0.6508444  3
     14     20     28     40     1  0.0000000  0.6508444  3
     14     20     31     43     1  0.0000000  0.6508444  3
     17     21     22     34     1  0.0000000  0.6508444  3
     17     21     25     37     1  0.0000000  0.6508444  3
     20     28     40     49     1  0.0000000  0.6508444  3
     20     31     43     46     1  0.0000000  0.6508444  3
     21     22     34     55     1  0.0000000  0.6508444  3
     21     25     37     52     1  0.0000000  0.6508444  3
     22     21     25     37     1  0.0000000  0.6508444  3
     22     34     55    178     1  0.0000000  0.6508444  3
     25     21     22     34     1  0.0000000  0.6508444  3
     25     37     52    148     1  0.0000000  0.6508444  3
     28     20     31     43     1  0.0000000  0.6508444  3
     28     40     49    118     1  0.0000000  0.6508444  3
     31     20     28     40     1  0.0000000  0.6508444  3
     31     43     46     88     1  0.0000000  0.6508444  3
     34     55    178    169     1  180.0000771  0.4184000  2
     34     55    178    169     1  0.0000000  1.6024720  3
     37     52    148    139     1  180.0000771  0.4184000  2
     37     52    148    139     1  0.0000000  1.6024720  3
     40     49    118    109     1  180.0000771  0.4184000  2
     40     49    118    109     1  0.0000000  1.6024720  3
     43     46     88     79     1  180.0000771  0.4184000  2
     43     46     88     79     1  0.0000000  1.6024720  3
     46     88     79     70     1  180.0000771  0.4184000  2
     46     88     79     70     1  0.0000000  1.6024720  3
     49    118    109    100     1  180.0000771  0.4184000  2
     49    118    109    100     1  0.0000000  1.6024720  3
     52    148    139    130     1  180.0000771  0.4184000  2
     52    148    139    130     1  0.0000000  1.6024720  3
     55    178    169    160     1  180.0000771  0.4184000  2
     55    178    169    160     1  0.0000000  1.6024720  3
     60     61     73     85     1  0.0000000  0.6508444  3
     60     64     76     82     1  0.0000000  0.6508444  3
     60     67     70     79     1  0.0000000  0.6508444  3
     61     60     64     76     1  0.0000000  0.6508444  3
     61     60     67     70     1  0.0000000  0.6508444  3
     61     73     85    242     1  0.0000000  0.6508444  3
     64     60     61     73     1  0.0000000  0.6508444  3
     64     60     67     70     1  0.0000000  0.6508444  3
     64     76     82    210     1  0.0000000  0.6508444  3
     67     60     61     73     1  0.0000000  0.6508444  3
     67     60     64     76     1  0.0000000  0.6508444  3
     67     70     79     88     1  0.0000000  0.6508444  3
     73     85    242    212     1  180.0000771  0.4184000  2
     73     85    242    212     1  0.0000000  1.6024720  3
     76     82    210    180     1  180.0000771  0.4184000  2
     76     82    210    180     1  0.0000000  1.6024720  3
     82    210    180    183     1  180.0000771  0.4184000  2
     82    210    180    183     1  0.0000000  1.6024720  3
     85    242    212    215     1  180.0000771  0.4184000  2
     85    242    212    215     1  0.0000000  1.6024720  3
     90     91    103    115     1  0.0000000  0.6508444  3
     90     94    106    112     1  0.0000000  0.6508444  3
     90     97    100    109     1  0.0000000  0.6508444  3
     91     90     94    106     1  0.0000000  0.6508444  3
     91     90     97    100     1  0.0000000  0.6508444  3
     91    103    115    306     1  0.0000000  0.6508444  3
     94     90     91    103     1  0.0000000  0.6508444  3
     94     90     97    100     1  0.0000000  0.6508444  3
     94    106    112    274     1  0.0000000  0.6508444  3
     97     90     91    103     1  0.0000000  0.6508444  3
     97     90     94    106     1  0.0000000  0.6508444  3
     97    100    109    118     1  0.0000000  0.6508444  3
    103    115    306    276     1  180.0000771  0.4184000  2
    103    115    306    276     1  0.0000000  1.6024720  3
    106    112    274    244     1  180.0000771  0.4184000  2
    106    112    274    244     1  0.0000000  1.6024720  3
    112    274    244    247     1  180.0000771  0.4184000  2
    112    274    244    247     1  0.0000000  1.6024720  3
    115    306    276    279     1  180.0000771  0.4184000  2
    115    306    276    279     1  0.0000000  1.6024720  3
    120    121    133    145     1  0.0000000  0.6508444  3
    120    124    136    142     1  0.0000000  0.6508444  3
    120    127    130    139     1  0.0000000  0.6508444  3
    121    120    124    136     1  0.0000000  0.6508444  3
    121    120    127    130     1  0.0000000  0.6508444  3
    121    133    145    370     1  0.0000000  0.6508444  3
    124    120    121    133     1  0.0000000  0.6508444  3
    124    120    127    130     1  0.0000000  0.6508444  3
    124    136    142    338     1  0.0000000  0.6508444  3
    127    120    121    133     1  0.0000000  0.6508444  3
    127    120    124    136     1  0.0000000  0.6508444  3
    127    130    139    148     1  0.0000000  0.6508444  3
    133    145    370    340     1  180.0000771  0.4184000  2
    133    145    370    340     1  0.0000000  1.6024720  3
    136    142    338    308     1  180.0000771  0.4184000  2
    136    142    338    308     1  0.0000000  1.6024720  3
    142    338    308    311     1  180.0000771  0.4184000  2
    142    338    308    311     1  0.0000000  1.6024720  3
    145    370    340    343     1  180.0000771  0.4184000  2
    145    370    340    343     1  0.0000000  1.6024720  3
    150    151    163    175     1  0.0000000  0.6508444  3
    150    154    166    172     1  0.0000000  0.6508444  3
    150    157    160    169     1  0.0000000  0.6508444  3
    151    150    154    166     1  0.0000000  0.6508444  3
    151    150    157    160     1  0.0000000  0.6508444  3
    151    163    175    434     1  0.0000000  0.6508444  3
    154    150    151    163     1  0.0000000  0.6508444  3
    154    150    157    160     1  0.0000000  0.6508444  3
    154    166    172    402     1  0.0000000  0.6508444  3
    157    150    151    163     1  0.0000000  0.6508444  3
    157    150    154    166     1  0.0000000  0.6508444  3
    157    160    169    178     1  0.0000000  0.6508444  3
    163    175    434    404     1  180.0000771  0.4184000  2
    163    175    434    404     1  0.0000000  1.6024720  3
    166    172    402    372     1  180.0000771  0.4184000  2
    166    172    402    372     1  0.0000000  1.6024720  3
    172    402    372    375     1  180.0000771  0.4184000  2
    172    402    372    375     1  0.0000000  1.6024720  3
    175    434    404    407     1  180.0000771  0.4184000  2
    175    434    404    407     1  0.0000000  1.6024720  3
    180    183    186    189     1  0.0000000  0.6508444  3
    183    186    189    190     1  0.0000000  0.6508444  3
    183    186    189    200     1  0.0000000  0.6508444  3
    186    183    180    210     1  0.0000000  0.6508444  3
    186    189    190    193     1  0.0000000  0.6508444  3
    186    189    200    203     1  0.0000000  0.6508444  3
    189    190    193    196     1  0.0000000  0.6508444  3
    189    200    203    206     1  0.0000000  0.6508444  3
    190    189    200    203     1  0.0000000  0.6508444  3
    190    193    196    197     1  180.0000771  0.0000000  2
    190    193    196    198     1  180.0000771  0.0000000  2
    193    190    189    200     1  0.0000000  0.6508444  3
    200    203    206    207     1  180.0000771  0.0000000  2
    200    203    206    208     1  180.0000771  0.0000000  2
    212    215    218    221     1  0.0000000  0.6508444  3
    215    218    221    222     1  0.0000000  0.6508444  3
    215    218    221    232     1  0.0000000  0.6508444  3
    218    221    222    225     1  0.0000000  0.6508444  3
    218    221    232    235     1  0.0000000  0.6508444  3
    218    215    212    242     1  0.0000000  0.6508444  3
    221    222    225    228     1  0.0000000  0.6508444  3
    221    232    235    238     1  0.0000000  0.6508444  3
    222    225    228    229     1  180.0000771  0.0000000  2
    222    225    228    230     1  180.0000771  0.0000000  2
    222    221    232    235     1  0.0000000  0.6508444  3
    225    222    221    232     1  0.0000000  0.6508444  3
    232    235    238    239     1  180.0000771  0.0000000  2
    232    235    238    240     1  180.0000771  0.0000000  2
    244    247    250    253     1  0.0000000  0.6508444  3
    247    250    253    254     1  0.0000000  0.6508444  3
    247    250    253    264     1  0.0000000  0.6508444  3
    250    247    244    274     1  0.0000000  0.6508444  3
    250    253    254    257     1  0.0000000  0.6508444  3
    250    253    264    267     1  0.0000000  0.6508444  3
    253    254    257    260     1  0.0000000  0.6508444  3
    253    264    267    270     1  0.0000000  0.6508444  3
    254    253    264    267     1  0.0000000  0.6508444  3
    254    257    260    261     1  180.0000771  0.0000000  2
    254    257    260    262     1  180.0000771  0.0000000  2
    257    254    253    264     1  0.0000000  0.6508444  3
    264    267    270    271     1  180.0000771  0.0000000  2
    264    267    270    272     1  180.0000771  0.0000000  2
    276    279    282    285     1  0.0000000  0.6508444  3
    279    282    285    286     1  0.0000000  0.6508444  3
    279    282    285    296     1  0.0000000  0.6508444  3
    282    285    286    289     1  0.0000000  0.6508444  3
    282    285    296    299     1  0.0000000  0.6508444  3
    282    279    276    306     1  0.0000000  0.6508444  3
    285    286    289    292     1  0.0000000  0.6508444  3
    285    296    299    302     1  0.0000000  0.6508444  3
    286    289    292    293     1  180.0000771  0.0000000  2
    286    289    292    294     1  180.0000771  0.0000000  2
    286    285    296    299     1  0.0000000  0.6508444  3
    289    286    285    296     1  0.0000000  0.6508444  3
    296    299    302    303     1  180.0000771  0.0000000  2
    296    299    302    304     1  180.0000771  0.0000000  2
    308    311    314    317     1  0.0000000  0.6508444  3
    311    314    317    318     1  0.0000000  0.6508444  3
    311    314    317    328     1  0.0000000  0.6508444  3
    314    311    308    338     1  0.0000000  0.6508444  3
    314    317    318    321     1  0.0000000  0.6508444  3
    314    317    328    331     1  0.0000000  0.6508444  3
    317    318    321    324     1  0.0000000  0.6508444  3
    317    328    331    334     1  0.0000000  0.6508444  3
    318    317    328    331     1  0.0000000  0.6508444  3
    318    321    324    325     1  180.0000771  0.0000000  2
    318    321    324    326     1  180.0000771  0.0000000  2
    321    318    317    328     1  0.0000000  0.6508444  3
    328    331    334    335     1  180.0000771  0.0000000  2
    328    331    334    336     1  180.0000771  0.0000000  2
    340    343    346    349     1  0.0000000  0.6508444  3
    343    346    349    350     1  0.0000000  0.6508444  3
    343    346    349    360     1  0.0000000  0.6508444  3
    346    349    350    353     1  0.0000000  0.6508444  3
    346    349    360    363     1  0.0000000  0.6508444  3
    346    343    340    370     1  0.0000000  0.6508444  3
    349    350    353    356     1  0.0000000  0.6508444  3
    349    360    363    366     1  0.0000000  0.6508444  3
    350    353    356    357     1  180.0000771  0.0000000  2
    350    353    356    358     1  180.0000771  0.0000000  2
    350    349    360    363     1  0.0000000  0.6508444  3
    353    350    349    360     1  0.0000000  0.6508444  3
    360    363    366    367     1  180.0000771  0.0000000  2
    360    363    366    368     1  180.0000771  0.0000000  2
    372    375    378    381     1  0.0000000  0.6508444  3
    375    378    381    382     1  0.0000000  0.6508444  3
    375    378    381    392     1  0.0000000  0.6508444  3
    378    375    372    402     1  0.0000000  0.6508444  3
    378    381    382    385     1  0.0000000  0.6508444  3
    378    381    392    395     1  0.0000000  0.6508444  3
    381    382    385    388     1  0.0000000  0.6508444  3
    381    392    395    398     1  0.0000000  0.6508444  3
    382    381    392    395     1  0.0000000  0.6508444  3
    382    385    388    389     1  180.0000771  0.0000000  2
    382    385    388    390     1  180.0000771  0.0000000  2
    385    382    381    392     1  0.0000000  0.6508444  3
    392    395    398    399     1  180.0000771  0.0000000  2
    392    395    398    400     1  180.0000771  0.0000000  2
    404    407    410    413     1  0.0000000  0.6508444  3
    407    410    413    414     1  0.0000000  0.6508444  3
    407    410    413    424     1  0.0000000  0.6508444  3
    410    413    414    417     1  0.0000000  0.6508444  3
    410    413    424    427     1  0.0000000  0.6508444  3
    410    407    404    434     1  0.0000000  0.6508444  3
    413    414    417    420     1  0.0000000  0.6508444  3
    413    424    427    430     1  0.0000000  0.6508444  3
    414    417    420    421     1  180.0000771  0.0000000  2
    414    417    420    422     1  180.0000771  0.0000000  2
    414    413    424    427     1  0.0000000  0.6508444  3
    417    414    413    424     1  0.0000000  0.6508444  3
    424    427    430    431     1  180.0000771  0.0000000  2
    424    427    430    432     1  180.0000771  0.0000000  2
    193    197    196    198     4  180.0000771  4.6024000  2
    203    207    206    208     4  180.0000771  4.6024000  2
    225    229    228    230     4  180.0000771  4.6024000  2
    235    239    238    240     4  180.0000771  4.6024000  2
    257    261    260    262     4  180.0000771  4.6024000  2
    267    271    270    272     4  180.0000771  4.6024000  2
    289    293    292    294     4  180.0000771  4.6024000  2
    299    303    302    304     4  180.0000771  4.6024000  2
    321    325    324    326     4  180.0000771  4.6024000  2
    331    335    334    336     4  180.0000771  4.6024000  2
    353    357    356    358     4  180.0000771  4.6024000  2
    363    367    366    368     4  180.0000771  4.6024000  2
    385    389    388    390     4  180.0000771  4.6024000  2
    395    399    398    400     4  180.0000771  4.6024000  2
    417    421    420    422     4  180.0000771  4.6024000  2
    427    431    430    432     4  180.0000771  4.6024000  2
      1      2      8      9     1  0.0000000  1.0460000  1
      1      2      8      9     1  0.0000000  0.0000000  3
      1      2      8     10     1  0.0000000  1.0460000  1
      1      2      8     10     1  0.0000000  0.0000000  3
      1      5     11     12     1  0.0000000  1.0460000  1
      1      5     11     12     1  0.0000000  0.0000000  3
      1      5     11     13     1  0.0000000  1.0460000  1
      1      5     11     13     1  0.0000000  0.0000000  3
      2      1      5      6     1  0.0000000  1.6038667  3
      2      1      5      7     1  0.0000000  1.6038667  3
      2      8     14     15     1  0.0000000  0.6508444  3
      2      8     14     16     1  0.0000000  0.6508444  3
      5      1      2      3     1  0.0000000  1.6038667  3
      3      2      8     14     1  0.0000000  0.6508444  3
      3      2      8      9     1  0.0000000  0.6508444  3
      3      2      8     10     1  0.0000000  0.6508444  3
      5      1      2      4     1  0.0000000  1.6038667  3
      4      2      8     14     1  0.0000000  0.6508444  3
      4      2      8      9     1  0.0000000  0.6508444  3
      4      2      8     10     1  0.0000000  0.6508444  3
      5     11     17     18     1  0.0000000  0.6508444  3
      5     11     17     19     1  0.0000000  0.6508444  3
      6      5     11     17     1  0.0000000  0.6508444  3
      6      5     11     12     1  0.0000000  0.6508444  3
      6      5     11     13     1  0.0000000  0.6508444  3
      7      5     11     17     1  0.0000000  0.6508444  3
      7      5     11     12     1  0.0000000  0.6508444  3
      7      5     11     13     1  0.0000000  0.6508444  3
      8     14     20     58     1  0.0000000  0.6508444  3
      9      8     14     20     1  0.0000000  0.6508444  3
      9      8     14     15     1  0.0000000  0.6508444  3
      9      8     14     16     1  0.0000000  0.6508444  3
     10      8     14     20     1  0.0000000  0.6508444  3
     10      8     14     15     1  0.0000000  0.6508444  3
     10      8     14     16     1  0.0000000  0.6508444  3
     11     17     21     59     1  0.0000000  0.6508444  3
     12     11     17     21     1  0.0000000  0.6508444  3
     12     11     17     18     1  0.0000000  0.6508444  3
     12     11     17     19     1  0.0000000  0.6508444  3
     13     11     17     21     1  0.0000000  0.6508444  3
     13     11     17     18     1  0.0000000  0.6508444  3
     13     11     17     19     1  0.0000000  0.6508444  3
     14     20     28     29     1  0.0000000  0.6508444  3
     14     20     28     30     1  0.0000000  0.6508444  3
     14     20     31     32     1  0.0000000  0.6508444  3
     14     20     31     33     1  0.0000000  0.6508444  3
     15     14     20     28     1  0.0000000  0.6508444  3
     15     14     20     31     1  0.0000000  0.6508444  3
     15     14     20     58     1  0.0000000  0.6508444  3
     16     14     20     28     1  0.0000000  0.6508444  3
     16     14     20     31     1  0.0000000  0.6508444  3
     16     14     20     58     1  0.0000000  0.6508444  3
     17     21     22     23     1  0.0000000  0.6508444  3
     17     21     22     24     1  0.0000000  0.6508444  3
     17     21     25     26     1  0.0000000  0.6508444  3
     17     21     25     27     1  0.0000000  0.6508444  3
     18     17     21     22     1  0.0000000  0.6508444  3
     18     17     21     25     1  0.0000000  0.6508444  3
     18     17     21     59     1  0.0000000  0.6508444  3
     19     17     21     22     1  0.0000000  0.6508444  3
     19     17     21     25     1  0.0000000  0.6508444  3
     19     17     21     59     1  0.0000000  0.6508444  3
     20     28     40     41     1  0.0000000  0.6508444  3
     20     28     40     42     1  0.0000000  0.6508444  3
     20     31     43     44     1  0.0000000  0.6508444  3
     20     31     43     45     1  0.0000000  0.6508444  3
     21     22     34     35     1  0.0000000  0.6508444  3
     21     22     34     36     1  0.0000000  0.6508444  3
     21     25     37     38     1  0.0000000  0.6508444  3
     21     25     37     39     1  0.0000000  0.6508444  3
     22     21     25     26     1  0.0000000  0.6508444  3
     22     21     25     27     1  0.0000000  0.6508444  3
     22     34     55     56     1  0.0000000  0.6694400  3
     22     34     55     57     1  0.0000000  0.6694400  3
     23     22     21     25     1  0.0000000  0.6508444  3
     23     22     21     59     1  0.0000000  0.6508444  3
     23     22     34     55     1  0.0000000  0.6508444  3
     23     22     34     35     1  0.0000000  0.6508444  3
     23     22     34     36     1  0.0000000  0.6508444  3
     24     22     21     25     1  0.0000000  0.6508444  3
     24     22     21     59     1  0.0000000  0.6508444  3
     24     22     34     55     1  0.0000000  0.6508444  3
     24     22     34     35     1  0.0000000  0.6508444  3
     24     22     34     36     1  0.0000000  0.6508444  3
     25     37     52     53     1  0.0000000  0.6694400  3
     25     37     52     54     1  0.0000000  0.6694400  3
     26     25     21     59     1  0.0000000  0.6508444  3
     26     25     37     52     1  0.0000000  0.6508444  3
     26     25     37     38     1  0.0000000  0.6508444  3
     26     25     37     39     1  0.0000000  0.6508444  3
     27     25     21     59     1  0.0000000  0.6508444  3
     27     25     37     52     1  0.0000000  0.6508444  3
     27     25     37     38     1  0.0000000  0.6508444  3
     27     25     37     39     1  0.0000000  0.6508444  3
     28     20     31     32     1  0.0000000  0.6508444  3
     28     20     31     33     1  0.0000000  0.6508444  3
     28     40     49     50     1  0.0000000  0.6694400  3
     28     40     49     51     1  0.0000000  0.6694400  3
     29     28     20     31     1  0.0000000  0.6508444  3
     29     28     20     58     1  0.0000000  0.6508444  3
     29     28     40     49     1  0.0000000  0.6508444  3
     29     28     40     41     1  0.0000000  0.6508444  3
     29     28     40     42     1  0.0000000  0.6508444  3
     30     28     20     31     1  0.0000000  0.6508444  3
     30     28     20     58     1  0.0000000  0.6508444  3
     30     28     40     49     1  0.0000000  0.6508444  3
     30     28     40     41     1  0.0000000  0.6508444  3
     30     28     40     42     1  0.0000000  0.6508444  3
     31     43     46     47     1  0.0000000  0.6694400  3
     31     43     46     48     1  0.0000000  0.6694400  3
     32     31     20     58     1  0.0000000  0.6508444  3
     32     31     43     46     1  0.0000000  0.6508444  3
     32     31     43     44     1  0.0000000  0.6508444  3
     32     31     43     45     1  0.0000000  0.6508444  3
     33     31     20     58     1  0.0000000  0.6508444  3
     33     31     43     46     1  0.0000000  0.6508444  3
     33     31     43     44     1  0.0000000  0.6508444  3
     33     31     43     45     1  0.0000000  0.6508444  3
     34     22     21     59     1  0.0000000  0.6508444  3
     35     34     55    178     1  0.0000000  1.0460000  1
     35     34     55    178     1  0.0000000  0.0000000  3
     35     34     55     56     1  0.0000000  0.6276000  3
     35     34     55     57     1  0.0000000  0.6276000  3
     36     34     55    178     1  0.0000000  1.0460000  1
     36     34     55    178     1  0.0000000  0.0000000  3
     36     34     55     56     1  0.0000000  0.6276000  3
     36     34     55     57     1  0.0000000  0.6276000  3
     37     25     21     59     1  0.0000000  0.6508444  3
     38     37     52    148     1  0.0000000  1.0460000  1
     38     37     52    148     1  0.0000000  0.0000000  3
     38     37     52     53     1  0.0000000  0.6276000  3
     38     37     52     54     1  0.0000000  0.6276000  3
     39     37     52    148     1  0.0000000  1.0460000  1
     39     37     52    148     1  0.0000000  0.0000000  3
     39     37     52     53     1  0.0000000  0.6276000  3
     39     37     52     54     1  0.0000000  0.6276000  3
     40     28     20     58     1  0.0000000  0.6508444  3
     41     40     49    118     1  0.0000000  1.0460000  1
     41     40     49    118     1  0.0000000  0.0000000  3
     41     40     49     50     1  0.0000000  0.6276000  3
     41     40     49     51     1  0.0000000  0.6276000  3
     42     40     49    118     1  0.0000000  1.0460000  1
     42     40     49    118     1  0.0000000  0.0000000  3
     42     40     49     50     1  0.0000000  0.6276000  3
     42     40     49     51     1  0.0000000  0.6276000  3
     43     31     20     58     1  0.0000000  0.6508444  3
     44     43     46     88     1  0.0000000  1.0460000  1
     44     43     46     88     1  0.0000000  0.0000000  3
     44     43     46     47     1  0.0000000  0.6276000  3
     44     43     46     48     1  0.0000000  0.6276000  3
     45     43     46     88     1  0.0000000  1.0460000  1
     45     43     46     88     1  0.0000000  0.0000000  3
     45     43     46     47     1  0.0000000  0.6276000  3
     45     43     46     48     1  0.0000000  0.6276000  3
     46     88     79     80     1  0.0000000  1.6038667  3
     46     88     79     81     1  0.0000000  1.6038667  3
     47     46     88     79     1  0.0000000  1.6038667  3
     48     46     88     79     1  0.0000000  1.6038667  3
     49    118    109    110     1  0.0000000  1.6038667  3
     49    118    109    111     1  0.0000000  1.6038667  3
     50     49    118    109     1  0.0000000  1.6038667  3
     51     49    118    109     1  0.0000000  1.6038667  3
     52    148    139    140     1  0.0000000  1.6038667  3
     52    148    139    141     1  0.0000000  1.6038667  3
     53     52    148    139     1  0.0000000  1.6038667  3
     54     52    148    139     1  0.0000000  1.6038667  3
     55    178    169    170     1  0.0000000  1.6038667  3
     55    178    169    171     1  0.0000000  1.6038667  3
     56     55    178    169     1  0.0000000  1.6038667  3
     57     55    178    169     1  0.0000000  1.6038667  3
     60     61     73     74     1  0.0000000  0.6508444  3
     60     61     73     75     1  0.0000000  0.6508444  3
     60     64     76     77     1  0.0000000  0.6508444  3
     60     64     76     78     1  0.0000000  0.6508444  3
     60     67     70     71     1  0.0000000  0.6508444  3
     60     67     70     72     1  0.0000000  0.6508444  3
     61     60     64     65     1  0.0000000  0.6508444  3
     61     60     64     66     1  0.0000000  0.6508444  3
     61     60     67     68     1  0.0000000  0.6508444  3
     61     60     67     69     1  0.0000000  0.6508444  3
     61     73     85     86     1  0.0000000  0.6508444  3
     61     73     85     87     1  0.0000000  0.6508444  3
     62     61     60     64     1  0.0000000  0.6508444  3
     62     61     60     67     1  0.0000000  0.6508444  3
     62     61     60     89     1  0.0000000  0.6508444  3
     62     61     73     85     1  0.0000000  0.6508444  3
     62     61     73     74     1  0.0000000  0.6508444  3
     62     61     73     75     1  0.0000000  0.6508444  3
     63     61     60     64     1  0.0000000  0.6508444  3
     63     61     60     67     1  0.0000000  0.6508444  3
     63     61     60     89     1  0.0000000  0.6508444  3
     63     61     73     85     1  0.0000000  0.6508444  3
     63     61     73     74     1  0.0000000  0.6508444  3
     63     61     73     75     1  0.0000000  0.6508444  3
     64     60     67     68     1  0.0000000  0.6508444  3
     64     60     67     69     1  0.0000000  0.6508444  3
     64     76     82     83     1  0.0000000  0.6508444  3
     64     76     82     84     1  0.0000000  0.6508444  3
     65     64     60     67     1  0.0000000  0.6508444  3
     65     64     60     89     1  0.0000000  0.6508444  3
     65     64     76     82     1  0.0000000  0.6508444  3
     65     64     76     77     1  0.0000000  0.6508444  3
     65     64     76     78     1  0.0000000  0.6508444  3
     66     64     60     67     1  0.0000000  0.6508444  3
     66     64     60     89     1  0.0000000  0.6508444  3
     66     64     76     82     1  0.0000000  0.6508444  3
     66     64     76     77     1  0.0000000  0.6508444  3
     66     64     76     78     1  0.0000000  0.6508444  3
     67     70     79     80     1  0.0000000  0.6508444  3
     67     70     79     81     1  0.0000000  0.6508444  3
     68     67     60     89     1  0.0000000  0.6508444  3
     68     67     70     79     1  0.0000000  0.6508444  3
     68     67     70     71     1  0.0000000  0.6508444  3
     68     67     70     72     1  0.0000000  0.6508444  3
     69     67     60     89     1  0.0000000  0.6508444  3
     69     67     70     79     1  0.0000000  0.6508444  3
     69     67     70     71     1  0.0000000  0.6508444  3
     69     67     70     72     1  0.0000000  0.6508444  3
     70     67     60     89     1  0.0000000  0.6508444  3
     71     70     79     88     1  0.0000000  1.0460000  1
     71     70     79     88     1  0.0000000  0.0000000  3
     71     70     79     80     1  0.0000000  0.6508444  3
     71     70     79     81     1  0.0000000  0.6508444  3
     72     70     79     88     1  0.0000000  1.0460000  1
     72     70     79     88     1  0.0000000  0.0000000  3
     72     70     79     80     1  0.0000000  0.6508444  3
     72     70     79     81     1  0.0000000  0.6508444  3
     73     61     60     89     1  0.0000000  0.6508444  3
     74     73     85    242     1  0.0000000  1.0460000  1
     74     73     85    242     1  0.0000000  0.0000000  3
     74     73     85     86     1  0.0000000  0.6508444  3
     74     73     85     87     1  0.0000000  0.6508444  3
     75     73     85    242     1  0.0000000  1.0460000  1
     75     73     85    242     1  0.0000000  0.0000000  3
     75     73     85     86     1  0.0000000  0.6508444  3
     75     73     85     87     1  0.0000000  0.6508444  3
     76     64     60     89     1  0.0000000  0.6508444  3
     77     76     82    210     1  0.0000000  1.0460000  1
     77     76     82    210     1  0.0000000  0.0000000  3
     77     76     82     83     1  0.0000000  0.6508444  3
     77     76     82     84     1  0.0000000  0.6508444  3
     78     76     82    210     1  0.0000000  1.0460000  1
     78     76     82    210     1  0.0000000  0.0000000  3
     78     76     82     83     1  0.0000000  0.6508444  3
     78     76     82     84     1  0.0000000  0.6508444  3
     82    210    180    181     1  0.0000000  1.6038667  3
     82    210    180    182     1  0.0000000  1.6038667  3
     83     82    210    180     1  0.0000000  1.6038667  3
     84     82    210    180     1  0.0000000  1.6038667  3
     85    242    212    213     1  0.0000000  1.6038667  3
     85    242    212    214     1  0.0000000  1.6038667  3
     86     85    242    212     1  0.0000000  1.6038667  3
     87     85    242    212     1  0.0000000  1.6038667  3
     90     91    103    104     1  0.0000000  0.6508444  3
     90     91    103    105     1  0.0000000  0.6508444  3
     90     94    106    107     1  0.0000000  0.6508444  3
     90     94    106    108     1  0.0000000  0.6508444  3
     90     97    100    101     1  0.0000000  0.6508444  3
     90     97    100    102     1  0.0000000  0.6508444  3
     91     90     94     95     1  0.0000000  0.6508444  3
     91     90     94     96     1  0.0000000  0.6508444  3
     91     90     97     98     1  0.0000000  0.6508444  3
     91     90     97     99     1  0.0000000  0.6508444  3
     91    103    115    116     1  0.0000000  0.6508444  3
     91    103    115    117     1  0.0000000  0.6508444  3
     92     91     90     94     1  0.0000000  0.6508444  3
     92     91     90     97     1  0.0000000  0.6508444  3
     92     91     90    119     1  0.0000000  0.6508444  3
     92     91    103    115     1  0.0000000  0.6508444  3
     92     91    103    104     1  0.0000000  0.6508444  3
     92     91    103    105     1  0.0000000  0.6508444  3
     93     91     90     94     1  0.0000000  0.6508444  3
     93     91     90     97     1  0.0000000  0.6508444  3
     93     91     90    119     1  0.0000000  0.6508444  3
     93     91    103    115     1  0.0000000  0.6508444  3
     93     91    103    104     1  0.0000000  0.6508444  3
     93     91    103    105     1  0.0000000  0.6508444  3
     94     90     97     98     1  0.0000000  0.6508444  3
     94     90     97     99     1  0.0000000  0.6508444  3
     94    106    112    113     1  0.0000000  0.6508444  3
     94    106    112    114     1  0.0000000  0.6508444  3
     95     94     90     97     1  0.0000000  0.6508444  3
     95     94     90    119     1  0.0000000  0.6508444  3
     95     94    106    112     1  0.0000000  0.6508444  3
     95     94    106    107     1  0.0000000  0.6508444  3
     95     94    106    108     1  0.0000000  0.6508444  3
     96     94     90     97     1  0.0000000  0.6508444  3
     96     94     90    119     1  0.0000000  0.6508444  3
     96     94    106    112     1  0.0000000  0.6508444  3
     96     94    106    107     1  0.0000000  0.6508444  3
     96     94    106    108     1  0.0000000  0.6508444  3
     97    100    109    110     1  0.0000000  0.6508444  3
     97    100    109    111     1  0.0000000  0.6508444  3
     98     97     90    119     1  0.0000000  0.6508444  3
     98     97    100    109     1  0.0000000  0.6508444  3
     98     97    100    101     1  0.0000000  0.6508444  3
     98     97    100    102     1  0.0000000  0.6508444  3
     99     97     90    119     1  0.0000000  0.6508444  3
     99     97    100    109     1  0.0000000  0.6508444  3
     99     97    100    101     1  0.0000000  0.6508444  3
     99     97    100    102     1  0.0000000  0.6508444  3
    100     97     90    119     1  0.0000000  0.6508444  3
    101    100    109    118     1  0.0000000  1.0460000  1
    101    100    109    118     1  0.0000000  0.0000000  3
    101    100    109    110     1  0.0000000  0.6508444  3
    101    100    109    111     1  0.0000000  0.6508444  3
    102    100    109    118     1  0.0000000  1.0460000  1
    102    100    109    118     1  0.0000000  0.0000000  3
    102    100    109    110     1  0.0000000  0.6508444  3
    102    100    109    111     1  0.0000000  0.6508444  3
    103     91     90    119     1  0.0000000  0.6508444  3
    104    103    115    306     1  0.0000000  1.0460000  1
    104    103    115    306     1  0.0000000  0.0000000  3
    104    103    115    116     1  0.0000000  0.6508444  3
    104    103    115    117     1  0.0000000  0.6508444  3
    105    103    115    306     1  0.0000000  1.0460000  1
    105    103    115    306     1  0.0000000  0.0000000  3
    105    103    115    116     1  0.0000000  0.6508444  3
    105    103    115    117     1  0.0000000  0.6508444  3
    106     94     90    119     1  0.0000000  0.6508444  3
    107    106    112    274     1  0.0000000  1.0460000  1
    107    106    112    274     1  0.0000000  0.0000000  3
    107    106    112    113     1  0.0000000  0.6508444  3
    107    106    112    114     1  0.0000000  0.6508444  3
    108    106    112    274     1  0.0000000  1.0460000  1
    108    106    112    274     1  0.0000000  0.0000000  3
    108    106    112    113     1  0.0000000  0.6508444  3
    108    106    112    114     1  0.0000000  0.6508444  3
    112    274    244    245     1  0.0000000  1.6038667  3
    112    274    244    246     1  0.0000000  1.6038667  3
    113    112    274    244     1  0.0000000  1.6038667  3
    114    112    274    244     1  0.0000000  1.6038667  3
    115    306    276    277     1  0.0000000  1.6038667  3
    115    306    276    278     1  0.0000000  1.6038667  3
    116    115    306    276     1  0.0000000  1.6038667  3
    117    115    306    276     1  0.0000000  1.6038667  3
    120    121    133    134     1  0.0000000  0.6508444  3
    120    121    133    135     1  0.0000000  0.6508444  3
    120    124    136    137     1  0.0000000  0.6508444  3
    120    124    136    138     1  0.0000000  0.6508444  3
    120    127    130    131     1  0.0000000  0.6508444  3
    120    127    130    132     1  0.0000000  0.6508444  3
    121    120    124    125     1  0.0000000  0.6508444  3
    121    120    124    126     1  0.0000000  0.6508444  3
    121    120    127    128     1  0.0000000  0.6508444  3
    121    120    127    129     1  0.0000000  0.6508444  3
    121    133    145    146     1  0.0000000  0.6508444  3
    121    133    145    147     1  0.0000000  0.6508444  3
    122    121    120    124     1  0.0000000  0.6508444  3
    122    121    120    127     1  0.0000000  0.6508444  3
    122    121    120    149     1  0.0000000  0.6508444  3
    122    121    133    145     1  0.0000000  0.6508444  3
    122    121    133    134     1  0.0000000  0.6508444  3
    122    121    133    135     1  0.0000000  0.6508444  3
    123    121    120    124     1  0.0000000  0.6508444  3
    123    121    120    127     1  0.0000000  0.6508444  3
    123    121    120    149     1  0.0000000  0.6508444  3
    123    121    133    145     1  0.0000000  0.6508444  3
    123    121    133    134     1  0.0000000  0.6508444  3
    123    121    133    135     1  0.0000000  0.6508444  3
    124    120    127    128     1  0.0000000  0.6508444  3
    124    120    127    129     1  0.0000000  0.6508444  3
    124    136    142    143     1  0.0000000  0.6508444  3
    124    136    142    144     1  0.0000000  0.6508444  3
    125    124    120    127     1  0.0000000  0.6508444  3
    125    124    120    149     1  0.0000000  0.6508444  3
    125    124    136    142     1  0.0000000  0.6508444  3
    125    124    136    137     1  0.0000000  0.6508444  3
    125    124    136    138     1  0.0000000  0.6508444  3
    126    124    120    127     1  0.0000000  0.6508444  3
    126    124    120    149     1  0.0000000  0.6508444  3
    126    124    136    142     1  0.0000000  0.6508444  3
    126    124    136    137     1  0.0000000  0.6508444  3
    126    124    136    138     1  0.0000000  0.6508444  3
    127    130    139    140     1  0.0000000  0.6508444  3
    127    130    139    141     1  0.0000000  0.6508444  3
    128    127    120    149     1  0.0000000  0.6508444  3
    128    127    130    139     1  0.0000000  0.6508444  3
    128    127    130    131     1  0.0000000  0.6508444  3
    128    127    130    132     1  0.0000000  0.6508444  3
    129    127    120    149     1  0.0000000  0.6508444  3
    129    127    130    139     1  0.0000000  0.6508444  3
    129    127    130    131     1  0.0000000  0.6508444  3
    129    127    130    132     1  0.0000000  0.6508444  3
    130    127    120    149     1  0.0000000  0.6508444  3
    131    130    139    148     1  0.0000000  1.0460000  1
    131    130    139    148     1  0.0000000  0.0000000  3
    131    130    139    140     1  0.0000000  0.6508444  3
    131    130    139    141     1  0.0000000  0.6508444  3
    132    130    139    148     1  0.0000000  1.0460000  1
    132    130    139    148     1  0.0000000  0.0000000  3
    132    130    139    140     1  0.0000000  0.6508444  3
    132    130    139    141     1  0.0000000  0.6508444  3
    133    121    120    149     1  0.0000000  0.6508444  3
    134    133    145    370     1  0.0000000  1.0460000  1
    134    133    145    370     1  0.0000000  0.0000000  3
    134    133    145    146     1  0.0000000  0.6508444  3
    134    133    145    147     1  0.0000000  0.6508444  3
    135    133    145    370     1  0.0000000  1.0460000  1
    135    133    145    370     1  0.0000000  0.0000000  3
    135    133    145    146     1  0.0000000  0.6508444  3
    135    133    145    147     1  0.0000000  0.6508444  3
    136    124    120    149     1  0.0000000  0.6508444  3
    137    136    142    338     1  0.0000000  1.0460000  1
    137    136    142    338     1  0.0000000  0.0000000  3
    137    136    142    143     1  0.0000000  0.6508444  3
    137    136    142    144     1  0.0000000  0.6508444  3
    138    136    142    338     1  0.0000000  1.0460000  1
    138    136    142    338     1  0.0000000  0.0000000  3
    138    136    142    143     1  0.0000000  0.6508444  3
    138    136    142    144     1  0.0000000  0.6508444  3
    142    338    308    309     1  0.0000000  1.6038667  3
    142    338    308    310     1  0.0000000  1.6038667  3
    143    142    338    308     1  0.0000000  1.6038667  3
    144    142    338    308     1  0.0000000  1.6038667  3
    145    370    340    341     1  0.0000000  1.6038667  3
    145    370    340    342     1  0.0000000  1.6038667  3
    146    145    370    340     1  0.0000000  1.6038667  3
    147    145    370    340     1  0.0000000  1.6038667  3
    150    151    163    164     1  0.0000000  0.6508444  3
    150    151    163    165     1  0.0000000  0.6508444  3
    150    154    166    167     1  0.0000000  0.6508444  3
    150    154    166    168     1  0.0000000  0.6508444  3
    150    157    160    161     1  0.0000000  0.6508444  3
    150    157    160    162     1  0.0000000  0.6508444  3
    151    150    154    155     1  0.0000000  0.6508444  3
    151    150    154    156     1  0.0000000  0.6508444  3
    151    150    157    158     1  0.0000000  0.6508444  3
    151    150    157    159     1  0.0000000  0.6508444  3
    151    163    175    176     1  0.0000000  0.6508444  3
    151    163    175    177     1  0.0000000  0.6508444  3
    152    151    150    154     1  0.0000000  0.6508444  3
    152    151    150    157     1  0.0000000  0.6508444  3
    152    151    150    179     1  0.0000000  0.6508444  3
    152    151    163    175     1  0.0000000  0.6508444  3
    152    151    163    164     1  0.0000000  0.6508444  3
    152    151    163    165     1  0.0000000  0.6508444  3
    153    151    150    154     1  0.0000000  0.6508444  3
    153    151    150    157     1  0.0000000  0.6508444  3
    153    151    150    179     1  0.0000000  0.6508444  3
    153    151    163    175     1  0.0000000  0.6508444  3
    153    151    163    164     1  0.0000000  0.6508444  3
    153    151    163    165     1  0.0000000  0.6508444  3
    154    150    157    158     1  0.0000000  0.6508444  3
    154    150    157    159     1  0.0000000  0.6508444  3
    154    166    172    173     1  0.0000000  0.6508444  3
    154    166    172    174     1  0.0000000  0.6508444  3
    155    154    150    157     1  0.0000000  0.6508444  3
    155    154    150    179     1  0.0000000  0.6508444  3
    155    154    166    172     1  0.0000000  0.6508444  3
    155    154    166    167     1  0.0000000  0.6508444  3
    155    154    166    168     1  0.0000000  0.6508444  3
    156    154    150    157     1  0.0000000  0.6508444  3
    156    154    150    179     1  0.0000000  0.6508444  3
    156    154    166    172     1  0.0000000  0.6508444  3
    156    154    166    167     1  0.0000000  0.6508444  3
    156    154    166    168     1  0.0000000  0.6508444  3
    157    160    169    170     1  0.0000000  0.6508444  3
    157    160    169    171     1  0.0000000  0.6508444  3
    158    157    150    179     1  0.0000000  0.6508444  3
    158    157    160    169     1  0.0000000  0.6508444  3
    158    157    160    161     1  0.0000000  0.6508444  3
    158    157    160    162     1  0.0000000  0.6508444  3
    159    157    150    179     1  0.0000000  0.6508444  3
    159    157    160    169     1  0.0000000  0.6508444  3
    159    157    160    161     1  0.0000000  0.6508444  3
    159    157    160    162     1  0.0000000  0.6508444  3
    160    157    150    179     1  0.0000000  0.6508444  3
    161    160    169    178     1  0.0000000  1.0460000  1
    161    160    169    178     1  0.0000000  0.0000000  3
    161    160    169    170     1  0.0000000  0.6508444  3
    161    160    169    171     1  0.0000000  0.6508444  3
    162    160    169    178     1  0.0000000  1.0460000  1
    162    160    169    178     1  0.0000000  0.0000000  3
    162    160    169    170     1  0.0000000  0.6508444  3
    162    160    169    171     1  0.0000000  0.6508444  3
    163    151    150    179     1  0.0000000  0.6508444  3
    164    163    175    434     1  0.0000000  1.0460000  1
    164    163    175    434     1  0.0000000  0.0000000  3
    164    163    175    176     1  0.0000000  0.6508444  3
    164    163    175    177     1  0.0000000  0.6508444  3
    165    163    175    434     1  0.0000000  1.0460000  1
    165    163    175    434     1  0.0000000  0.0000000  3
    165    163    175    176     1  0.0000000  0.6508444  3
    165    163    175    177     1  0.0000000  0.6508444  3
    166    154    150    179     1  0.0000000  0.6508444  3
    167    166    172    402     1  0.0000000  1.0460000  1
    167    166    172    402     1  0.0000000  0.0000000  3
    167    166    172    173     1  0.0000000  0.6508444  3
    167    166    172    174     1  0.0000000  0.6508444  3
    168    166    172    402     1  0.0000000  1.0460000  1
    168    166    172    402     1  0.0000000  0.0000000  3
    168    166    172    173     1  0.0000000  0.6508444  3
    168    166    172    174     1  0.0000000  0.6508444  3
    172    402    372    373     1  0.0000000  1.6038667  3
    172    402    372    374     1  0.0000000  1.6038667  3
    173    172    402    372     1  0.0000000  1.6038667  3
    174    172    402    372     1  0.0000000  1.6038667  3
    175    434    404    405     1  0.0000000  1.6038667  3
    175    434    404    406     1  0.0000000  1.6038667  3
    176    175    434    404     1  0.0000000  1.6038667  3
    177    175    434    404     1  0.0000000  1.6038667  3
    180    183    186    187     1  0.0000000  0.6508444  3
    180    183    186    188     1  0.0000000  0.6508444  3
    181    180    183    186     1  0.0000000  0.6508444  3
    181    180    183    184     1  0.0000000  0.6508444  3
    181    180    183    185     1  0.0000000  0.6508444  3
    182    180    183    186     1  0.0000000  0.6508444  3
    182    180    183    184     1  0.0000000  0.6508444  3
    182    180    183    185     1  0.0000000  0.6508444  3
    183    186    189    211     1  0.0000000  0.6508444  3
    184    183    180    210     1  0.0000000  1.0460000  1
    184    183    180    210     1  0.0000000  0.0000000  3
    184    183    186    189     1  0.0000000  0.6508444  3
    184    183    186    187     1  0.0000000  0.6508444  3
    184    183    186    188     1  0.0000000  0.6508444  3
    185    183    180    210     1  0.0000000  1.0460000  1
    185    183    180    210     1  0.0000000  0.0000000  3
    185    183    186    189     1  0.0000000  0.6508444  3
    185    183    186    187     1  0.0000000  0.6508444  3
    185    183    186    188     1  0.0000000  0.6508444  3
    186    189    190    191     1  0.0000000  0.6508444  3
    186    189    190    192     1  0.0000000  0.6508444  3
    186    189    200    201     1  0.0000000  0.6508444  3
    186    189    200    202     1  0.0000000  0.6508444  3
    187    186    189    190     1  0.0000000  0.6508444  3
    187    186    189    200     1  0.0000000  0.6508444  3
    187    186    189    211     1  0.0000000  0.6508444  3
    188    186    189    190     1  0.0000000  0.6508444  3
    188    186    189    200     1  0.0000000  0.6508444  3
    188    186    189    211     1  0.0000000  0.6508444  3
    189    190    193    194     1  0.0000000  0.6508444  3
    189    190    193    195     1  0.0000000  0.6508444  3
    189    200    203    204     1  0.0000000  0.6508444  3
    189    200    203    205     1  0.0000000  0.6508444  3
    190    189    200    201     1  0.0000000  0.6508444  3
    190    189    200    202     1  0.0000000  0.6508444  3
    191    190    189    200     1  0.0000000  0.6508444  3
    191    190    189    211     1  0.0000000  0.6508444  3
    191    190    193    196     1  0.0000000  0.6508444  3
    191    190    193    194     1  0.0000000  0.6508444  3
    191    190    193    195     1  0.0000000  0.6508444  3
    192    190    189    200     1  0.0000000  0.6508444  3
    192    190    189    211     1  0.0000000  0.6508444  3
    192    190    193    196     1  0.0000000  0.6508444  3
    192    190    193    194     1  0.0000000  0.6508444  3
    192    190    193    195     1  0.0000000  0.6508444  3
    193    190    189    211     1  0.0000000  0.6508444  3
    193    196    198    199     1  180.0000771  9.6232000  2
    194    193    196    197     1  0.0000000  3.3472000  1
    194    193    196    197     1  0.0000000  0.0000000  2
    194    193    196    197     1  180.0000771  0.3347200  3
    194    193    196    198     1  180.0000771  0.0000000  2
    195    193    196    197     1  0.0000000  3.3472000  1
    195    193    196    197     1  0.0000000  0.0000000  2
    195    193    196    197     1  180.0000771  0.3347200  3
    195    193    196    198     1  180.0000771  0.0000000  2
    197    196    198    199     1  0.0000000  7.9496000  1
    197    196    198    199     1  180.0000771  9.6232000  2
    201    200    189    211     1  0.0000000  0.6508444  3
    201    200    203    206     1  0.0000000  0.6508444  3
    201    200    203    204     1  0.0000000  0.6508444  3
    201    200    203    205     1  0.0000000  0.6508444  3
    202    200    189    211     1  0.0000000  0.6508444  3
    202    200    203    206     1  0.0000000  0.6508444  3
    202    200    203    204     1  0.0000000  0.6508444  3
    202    200    203    205     1  0.0000000  0.6508444  3
    203    200    189    211     1  0.0000000  0.6508444  3
    203    206    208    209     1  180.0000771  9.6232000  2
    204    203    206    207     1  0.0000000  3.3472000  1
    204    203    206    207     1  0.0000000  0.0000000  2
    204    203    206    207     1  180.0000771  0.3347200  3
    204    203    206    208     1  180.0000771  0.0000000  2
    205    203    206    207     1  0.0000000  3.3472000  1
    205    203    206    207     1  0.0000000  0.0000000  2
    205    203    206    207     1  180.0000771  0.3347200  3
    205    203    206    208     1  180.0000771  0.0000000  2
    207    206    208    209     1  0.0000000  7.9496000  1
    207    206    208    209     1  180.0000771  9.6232000  2
    212    215    218    219     1  0.0000000  0.6508444  3
    212    215    218    220     1  0.0000000  0.6508444  3
    213    212    215    218     1  0.0000000  0.6508444  3
    213    212    215    216     1  0.0000000  0.6508444  3
    213    212    215    217     1  0.0000000  0.6508444  3
    214    212    215    218     1  0.0000000  0.6508444  3
    214    212    215    216     1  0.0000000  0.6508444  3
    214    212    215    217     1  0.0000000  0.6508444  3
    215    218    221    243     1  0.0000000  0.6508444  3
    216    215    218    221     1  0.0000000  0.6508444  3
    216    215    218    219     1  0.0000000  0.6508444  3
    216    215    218    220     1  0.0000000  0.6508444  3
    216    215    212    242     1  0.0000000  1.0460000  1
    216    215    212    242     1  0.0000000  0.0000000  3
    217    215    218    221     1  0.0000000  0.6508444  3
    217    215    218    219     1  0.0000000  0.6508444  3
    217    215    218    220     1  0.0000000  0.6508444  3
    217    215    212    242     1  0.0000000  1.0460000  1
    217    215    212    242     1  0.0000000  0.0000000  3
    218    221    222    223     1  0.0000000  0.6508444  3
    218    221    222    224     1  0.0000000  0.6508444  3
    218    221    232    233     1  0.0000000  0.6508444  3
    218    221    232    234     1  0.0000000  0.6508444  3
    219    218    221    222     1  0.0000000  0.6508444  3
    219    218    221    232     1  0.0000000  0.6508444  3
    219    218    221    243     1  0.0000000  0.6508444  3
    220    218    221    222     1  0.0000000  0.6508444  3
    220    218    221    232     1  0.0000000  0.6508444  3
    220    218    221    243     1  0.0000000  0.6508444  3
    221    222    225    226     1  0.0000000  0.6508444  3
    221    222    225    227     1  0.0000000  0.6508444  3
    221    232    235    236     1  0.0000000  0.6508444  3
    221    232    235    237     1  0.0000000  0.6508444  3
    222    221    232    233     1  0.0000000  0.6508444  3
    222    221    232    234     1  0.0000000  0.6508444  3
    223    222    225    228     1  0.0000000  0.6508444  3
    223    222    225    226     1  0.0000000  0.6508444  3
    223    222    225    227     1  0.0000000  0.6508444  3
    223    222    221    232     1  0.0000000  0.6508444  3
    223    222    221    243     1  0.0000000  0.6508444  3
    224    222    225    228     1  0.0000000  0.6508444  3
    224    222    225    226     1  0.0000000  0.6508444  3
    224    222    225    227     1  0.0000000  0.6508444  3
    224    222    221    232     1  0.0000000  0.6508444  3
    224    222    221    243     1  0.0000000  0.6508444  3
    225    228    230    231     1  180.0000771  9.6232000  2
    225    222    221    243     1  0.0000000  0.6508444  3
    226    225    228    229     1  0.0000000  3.3472000  1
    226    225    228    229     1  0.0000000  0.0000000  2
    226    225    228    229     1  180.0000771  0.3347200  3
    226    225    228    230     1  180.0000771  0.0000000  2
    227    225    228    229     1  0.0000000  3.3472000  1
    227    225    228    229     1  0.0000000  0.0000000  2
    227    225    228    229     1  180.0000771  0.3347200  3
    227    225    228    230     1  180.0000771  0.0000000  2
    229    228    230    231     1  0.0000000  7.9496000  1
    229    228    230    231     1  180.0000771  9.6232000  2
    233    232    235    238     1  0.0000000  0.6508444  3
    233    232    235    236     1  0.0000000  0.6508444  3
    233    232    235    237     1  0.0000000  0.6508444  3
    233    232    221    243     1  0.0000000  0.6508444  3
    234    232    235    238     1  0.0000000  0.6508444  3
    234    232    235    236     1  0.0000000  0.6508444  3
    234    232    235    237     1  0.0000000  0.6508444  3
    234    232    221    243     1  0.0000000  0.6508444  3
    235    238    240    241     1  180.0000771  9.6232000  2
    235    232    221    243     1  0.0000000  0.6508444  3
    236    235    238    239     1  0.0000000  3.3472000  1
    236    235    238    239     1  0.0000000  0.0000000  2
    236    235    238    239     1  180.0000771  0.3347200  3
    236    235    238    240     1  180.0000771  0.0000000  2
    237    235    238    239     1  0.0000000  3.3472000  1
    237    235    238    239     1  0.0000000  0.0000000  2
    237    235    238    239     1  180.0000771  0.3347200  3
    237    235    238    240     1  180.0000771  0.0000000  2
    239    238    240    241     1  0.0000000  7.9496000  1
    239    238    240    241     1  180.0000771  9.6232000  2
    244    247    250    251     1  0.0000000  0.6508444  3
    244    247    250    252     1  0.0000000  0.6508444  3
    245    244    247    250     1  0.0000000  0.6508444  3
    245    244    247    248     1  0.0000000  0.6508444  3
    245    244    247    249     1  0.0000000  0.6508444  3
    246    244    247    250     1  0.0000000  0.6508444  3
    246    244    247    248     1  0.0000000  0.6508444  3
    246    244    247    249     1  0.0000000  0.6508444  3
    247    250    253    275     1  0.0000000  0.6508444  3
    248    247    244    274     1  0.0000000  1.0460000  1
    248    247    244    274     1  0.0000000  0.0000000  3
    248    247    250    253     1  0.0000000  0.6508444  3
    248    247    250    251     1  0.0000000  0.6508444  3
    248    247    250    252     1  0.0000000  0.6508444  3
    249    247    244    274     1  0.0000000  1.0460000  1
    249    247    244    274     1  0.0000000  0.0000000  3
    249    247    250    253     1  0.0000000  0.6508444  3
    249    247    250    251     1  0.0000000  0.6508444  3
    249    247    250    252     1  0.0000000  0.6508444  3
    250    253    254    255     1  0.0000000  0.6508444  3
    250    253    254    256     1  0.0000000  0.6508444  3
    250    253    264    265     1  0.0000000  0.6508444  3
    250    253    264    266     1  0.0000000  0.6508444  3
    251    250    253    254     1  0.0000000  0.6508444  3
    251    250    253    264     1  0.0000000  0.6508444  3
    251    250    253    275     1  0.0000000  0.6508444  3
    252    250    253    254     1  0.0000000  0.6508444  3
    252    250    253    264     1  0.0000000  0.6508444  3
    252    250    253    275     1  0.0000000  0.6508444  3
    253    254    257    258     1  0.0000000  0.6508444  3
    253    254    257    259     1  0.0000000  0.6508444  3
    253    264    267    268     1  0.0000000  0.6508444  3
    253    264    267    269     1  0.0000000  0.6508444  3
    254    253    264    265     1  0.0000000  0.6508444  3
    254    253    264    266     1  0.0000000  0.6508444  3
    255    254    253    264     1  0.0000000  0.6508444  3
    255    254    253    275     1  0.0000000  0.6508444  3
    255    254    257    260     1  0.0000000  0.6508444  3
    255    254    257    258     1  0.0000000  0.6508444  3
    255    254    257    259     1  0.0000000  0.6508444  3
    256    254    253    264     1  0.0000000  0.6508444  3
    256    254    253    275     1  0.0000000  0.6508444  3
    256    254    257    260     1  0.0000000  0.6508444  3
    256    254    257    258     1  0.0000000  0.6508444  3
    256    254    257    259     1  0.0000000  0.6508444  3
    257    254    253    275     1  0.0000000  0.6508444  3
    257    260    262    263     1  180.0000771  9.6232000  2
    258    257    260    261     1  0.0000000  3.3472000  1
    258    257    260    261     1  0.0000000  0.0000000  2
    258    257    260    261     1  180.0000771  0.3347200  3
    258    257    260    262     1  180.0000771  0.0000000  2
    259    257    260    261     1  0.0000000  3.3472000  1
    259    257    260    261     1  0.0000000  0.0000000  2
    259    257    260    261     1  180.0000771  0.3347200  3
    259    257    260    262     1  180.0000771  0.0000000  2
    261    260    262    263     1  0.0000000  7.9496000  1
    261    260    262    263     1  180.0000771  9.6232000  2
    265    264    253    275     1  0.0000000  0.6508444  3
    265    264    267    270     1  0.0000000  0.6508444  3
    265    264    267    268     1  0.0000000  0.6508444  3
    265    264    267    269     1  0.0000000  0.6508444  3
    266    264    253    275     1  0.0000000  0.6508444  3
    266    264    267    270     1  0.0000000  0.6508444  3
    266    264    267    268     1  0.0000000  0.6508444  3
    266    264    267    269     1  0.0000000  0.6508444  3
    267    264    253    275     1  0.0000000  0.6508444  3
    267    270    272    273     1  180.0000771  9.6232000  2
    268    267    270    271     1  0.0000000  3.3472000  1
    268    267    270    271     1  0.0000000  0.0000000  2
    268    267    270    271     1  180.0000771  0.3347200  3
    268    267    270    272     1  180.0000771  0.0000000  2
    269    267    270    271     1  0.0000000  3.3472000  1
    269    267    270    271     1  0.0000000  0.0000000  2
    269    267    270    271     1  180.0000771  0.3347200  3
    269    267    270    272     1  180.0000771  0.0000000  2
    271    270    272    273     1  0.0000000  7.9496000  1
    271    270    272    273     1  180.0000771  9.6232000  2
    276    279    282    283     1  0.0000000  0.6508444  3
    276    279    282    284     1  0.0000000  0.6508444  3
    277    276    279    282     1  0.0000000  0.6508444  3
    277    276    279    280     1  0.0000000  0.6508444  3
    277    276    279    281     1  0.0000000  0.6508444  3
    278    276    279    282     1  0.0000000  0.6508444  3
    278    276    279    280     1  0.0000000  0.6508444  3
    278    276    279    281     1  0.0000000  0.6508444  3
    279    282    285    307     1  0.0000000  0.6508444  3
    280    279    282    285     1  0.0000000  0.6508444  3
    280    279    282    283     1  0.0000000  0.6508444  3
    280    279    282    284     1  0.0000000  0.6508444  3
    280    279    276    306     1  0.0000000  1.0460000  1
    280    279    276    306     1  0.0000000  0.0000000  3
    281    279    282    285     1  0.0000000  0.6508444  3
    281    279    282    283     1  0.0000000  0.6508444  3
    281    279    282    284     1  0.0000000  0.6508444  3
    281    279    276    306     1  0.0000000  1.0460000  1
    281    279    276    306     1  0.0000000  0.0000000  3
    282    285    286    287     1  0.0000000  0.6508444  3
    282    285    286    288     1  0.0000000  0.6508444  3
    282    285    296    297     1  0.0000000  0.6508444  3
    282    285    296    298     1  0.0000000  0.6508444  3
    283    282    285    286     1  0.0000000  0.6508444  3
    283    282    285    296     1  0.0000000  0.6508444  3
    283    282    285    307     1  0.0000000  0.6508444  3
    284    282    285    286     1  0.0000000  0.6508444  3
    284    282    285    296     1  0.0000000  0.6508444  3
    284    282    285    307     1  0.0000000  0.6508444  3
    285    286    289    290     1  0.0000000  0.6508444  3
    285    286    289    291     1  0.0000000  0.6508444  3
    285    296    299    300     1  0.0000000  0.6508444  3
    285    296    299    301     1  0.0000000  0.6508444  3
    286    285    296    297     1  0.0000000  0.6508444  3
    286    285    296    298     1  0.0000000  0.6508444  3
    287    286    289    292     1  0.0000000  0.6508444  3
    287    286    289    290     1  0.0000000  0.6508444  3
    287    286    289    291     1  0.0000000  0.6508444  3
    287    286    285    296     1  0.0000000  0.6508444  3
    287    286    285    307     1  0.0000000  0.6508444  3
    288    286    289    292     1  0.0000000  0.6508444  3
    288    286    289    290     1  0.0000000  0.6508444  3
    288    286    289    291     1  0.0000000  0.6508444  3
    288    286    285    296     1  0.0000000  0.6508444  3
    288    286    285    307     1  0.0000000  0.6508444  3
    289    292    294    295     1  180.0000771  9.6232000  2
    289    286    285    307     1  0.0000000  0.6508444  3
    290    289    292    293     1  0.0000000  3.3472000  1
    290    289    292    293     1  0.0000000  0.0000000  2
    290    289    292    293     1  180.0000771  0.3347200  3
    290    289    292    294     1  180.0000771  0.0000000  2
    291    289    292    293     1  0.0000000  3.3472000  1
    291    289    292    293     1  0.0000000  0.0000000  2
    291    289    292    293     1  180.0000771  0.3347200  3
    291    289    292    294     1  180.0000771  0.0000000  2
    293    292    294    295     1  0.0000000  7.9496000  1
    293    292    294    295     1  180.0000771  9.6232000  2
    297    296    299    302     1  0.0000000  0.6508444  3
    297    296    299    300     1  0.0000000  0.6508444  3
    297    296    299    301     1  0.0000000  0.6508444  3
    297    296    285    307     1  0.0000000  0.6508444  3
    298    296    299    302     1  0.0000000  0.6508444  3
    298    296    299    300     1  0.0000000  0.6508444  3
    298    296    299    301     1  0.0000000  0.6508444  3
    298    296    285    307     1  0.0000000  0.6508444  3
    299    302    304    305     1  180.0000771  9.6232000  2
    299    296    285    307     1  0.0000000  0.6508444  3
    300    299    302    303     1  0.0000000  3.3472000  1
    300    299    302    303     1  0.0000000  0.0000000  2
    300    299    302    303     1  180.0000771  0.3347200  3
    300    299    302    304     1  180.0000771  0.0000000  2
    301    299    302    303     1  0.0000000  3.3472000  1
    301    299    302    303     1  0.0000000  0.0000000  2
    301    299    302    303     1  180.0000771  0.3347200  3
    301    299    302    304     1  180.0000771  0.0000000  2
    303    302    304    305     1  0.0000000  7.9496000  1
    303    302    304    305     1  180.0000771  9.6232000  2
    308    311    314    315     1  0.0000000  0.6508444  3
    308    311    314    316     1  0.0000000  0.6508444  3
    309    308    311    314     1  0.0000000  0.6508444  3
    309    308    311    312     1  0.0000000  0.6508444  3
    309    308    311    313     1  0.0000000  0.6508444  3
    310    308    311    314     1  0.0000000  0.6508444  3
    310    308    311    312     1  0.0000000  0.6508444  3
    310    308    311    313     1  0.0000000  0.6508444  3
    311    314    317    339     1  0.0000000  0.6508444  3
    312    311    308    338     1  0.0000000  1.0460000  1
    312    311    308    338     1  0.0000000  0.0000000  3
    312    311    314    317     1  0.0000000  0.6508444  3
    312    311    314    315     1  0.0000000  0.6508444  3
    312    311    314    316     1  0.0000000  0.6508444  3
    313    311    308    338     1  0.0000000  1.0460000  1
    313    311    308    338     1  0.0000000  0.0000000  3
    313    311    314    317     1  0.0000000  0.6508444  3
    313    311    314    315     1  0.0000000  0.6508444  3
    313    311    314    316     1  0.0000000  0.6508444  3
    314    317    318    319     1  0.0000000  0.6508444  3
    314    317    318    320     1  0.0000000  0.6508444  3
    314    317    328    329     1  0.0000000  0.6508444  3
    314    317    328    330     1  0.0000000  0.6508444  3
    315    314    317    318     1  0.0000000  0.6508444  3
    315    314    317    328     1  0.0000000  0.6508444  3
    315    314    317    339     1  0.0000000  0.6508444  3
    316    314    317    318     1  0.0000000  0.6508444  3
    316    314    317    328     1  0.0000000  0.6508444  3
    316    314    317    339     1  0.0000000  0.6508444  3
    317    318    321    322     1  0.0000000  0.6508444  3
    317    318    321    323     1  0.0000000  0.6508444  3
    317    328    331    332     1  0.0000000  0.6508444  3
    317    328    331    333     1  0.0000000  0.6508444  3
    318    317    328    329     1  0.0000000  0.6508444  3
    318    317    328    330     1  0.0000000  0.6508444  3
    319    318    317    328     1  0.0000000  0.6508444  3
    319    318    317    339     1  0.0000000  0.6508444  3
    319    318    321    324     1  0.0000000  0.6508444  3
    319    318    321    322     1  0.0000000  0.6508444  3
    319    318    321    323     1  0.0000000  0.6508444  3
    320    318    317    328     1  0.0000000  0.6508444  3
    320    318    317    339     1  0.0000000  0.6508444  3
    320    318    321    324     1  0.0000000  0.6508444  3
    320    318    321    322     1  0.0000000  0.6508444  3
    320    318    321    323     1  0.0000000  0.6508444  3
    321    318    317    339     1  0.0000000  0.6508444  3
    321    324    326    327     1  180.0000771  9.6232000  2
    322    321    324    325     1  0.0000000  3.3472000  1
    322    321    324    325     1  0.0000000  0.0000000  2
    322    321    324    325     1  180.0000771  0.3347200  3
    322    321    324    326     1  180.0000771  0.0000000  2
    323    321    324    325     1  0.0000000  3.3472000  1
    323    321    324    325     1  0.0000000  0.0000000  2
    323    321    324    325     1  180.0000771  0.3347200  3
    323    321    324    326     1  180.0000771  0.0000000  2
    325    324    326    327     1  0.0000000  7.9496000  1
    325    324    326    327     1  180.0000771  9.6232000  2
    329    328    317    339     1  0.0000000  0.6508444  3
    329    328    331    334     1  0.0000000  0.6508444  3
    329    328    331    332     1  0.0000000  0.6508444  3
    329    328    331    333     1  0.0000000  0.6508444  3
    330    328    317    339     1  0.0000000  0.6508444  3
    330    328    331    334     1  0.0000000  0.6508444  3
    330    328    331    332     1  0.0000000  0.6508444  3
    330    328    331    333     1  0.0000000  0.6508444  3
    331    328    317    339     1  0.0000000  0.6508444  3
    331    334    336    337     1  180.0000771  9.6232000  2
    332    331    334    335     1  0.0000000  3.3472000  1
    332    331    334    335     1  0.0000000  0.0000000  2
    332    331    334    335     1  180.0000771  0.3347200  3
    332    331    334    336     1  180.0000771  0.0000000  2
    333    331    334    335     1  0.0000000  3.3472000  1
    333    331    334    335     1  0.0000000  0.0000000  2
    333    331    334    335     1  180.0000771  0.3347200  3
    333    331    334    336     1  180.0000771  0.0000000  2
    335    334    336    337     1  0.0000000  7.9496000  1
    335    334    336    337     1  180.0000771  9.6232000  2
    340    343    346    347     1  0.0000000  0.6508444  3
    340    343    346    348     1  0.0000000  0.6508444  3
    341    340    343    346     1  0.0000000  0.6508444  3
    341    340    343    344     1  0.0000000  0.6508444  3
    341    340    343    345     1  0.0000000  0.6508444  3
    342    340    343    346     1  0.0000000  0.6508444  3
    342    340    343    344     1  0.0000000  0.6508444  3
    342    340    343    345     1  0.0000000  0.6508444  3
    343    346    349    371     1  0.0000000  0.6508444  3
    344    343    346    349     1  0.0000000  0.6508444  3
    344    343    346    347     1  0.0000000  0.6508444  3
    344    343    346    348     1  0.0000000  0.6508444  3
    344    343    340    370     1  0.0000000  1.0460000  1
    344    343    340    370     1  0.0000000  0.0000000  3
    345    343    346    349     1  0.0000000  0.6508444  3
    345    343    346    347     1  0.0000000  0.6508444  3
    345    343    346    348     1  0.0000000  0.6508444  3
    345    343    340    370     1  0.0000000  1.0460000  1
    345    343    340    370     1  0.0000000  0.0000000  3
    346    349    350    351     1  0.0000000  0.6508444  3
    346    349    350    352     1  0.0000000  0.6508444  3
    346    349    360    361     1  0.0000000  0.6508444  3
    346    349    360    362     1  0.0000000  0.6508444  3
    347    346    349    350     1  0.0000000  0.6508444  3
    347    346    349    360     1  0.0000000  0.6508444  3
    347    346    349    371     1  0.0000000  0.6508444  3
    348    346    349    350     1  0.0000000  0.6508444  3
    348    346    349    360     1  0.0000000  0.6508444  3
    348    346    349    371     1  0.0000000  0.6508444  3
    349    350    353    354     1  0.0000000  0.6508444  3
    349    350    353    355     1  0.0000000  0.6508444  3
    349    360    363    364     1  0.0000000  0.6508444  3
    349    360    363    365     1  0.0000000  0.6508444  3
    350    349    360    361     1  0.0000000  0.6508444  3
    350    349    360    362     1  0.0000000  0.6508444  3
    351    350    353    356     1  0.0000000  0.6508444  3
    351    350    353    354     1  0.0000000  0.6508444  3
    351    350    353    355     1  0.0000000  0.6508444  3
    351    350    349    360     1  0.0000000  0.6508444  3
    351    350    349    371     1  0.0000000  0.6508444  3
    352    350    353    356     1  0.0000000  0.6508444  3
    352    350    353    354     1  0.0000000  0.6508444  3
    352    350    353    355     1  0.0000000  0.6508444  3
    352    350    349    360     1  0.0000000  0.6508444  3
    352    350    349    371     1  0.0000000  0.6508444  3
    353    356    358    359     1  180.0000771  9.6232000  2
    353    350    349    371     1  0.0000000  0.6508444  3
    354    353    356    357     1  0.0000000  3.3472000  1
    354    353    356    357     1  0.0000000  0.0000000  2
    354    353    356    357     1  180.0000771  0.3347200  3
    354    353    356    358     1  180.0000771  0.0000000  2
    355    353    356    357     1  0.0000000  3.3472000  1
    355    353    356    357     1  0.0000000  0.0000000  2
    355    353    356    357     1  180.0000771  0.3347200  3
    355    353    356    358     1  180.0000771  0.0000000  2
    357    356    358    359     1  0.0000000  7.9496000  1
    357    356    358    359     1  180.0000771  9.6232000  2
    361    360    363    366     1  0.0000000  0.6508444  3
    361    360    363    364     1  0.0000000  0.6508444  3
    361    360    363    365     1  0.0000000  0.6508444  3
    361    360    349    371     1  0.0000000  0.6508444  3
    362    360    363    366     1  0.0000000  0.6508444  3
    362    360    363    364     1  0.0000000  0.6508444  3
    362    360    363    365     1  0.0000000  0.6508444  3
    362    360    349    371     1  0.0000000  0.6508444  3
    363    366    368    369     1  180.0000771  9.6232000  2
    363    360    349    371     1  0.0000000  0.6508444  3
    364    363    366    367     1  0.0000000  3.3472000  1
    364    363    366    367     1  0.0000000  0.0000000  2
    364    363    366    367     1  180.0000771  0.3347200  3
    364    363    366    368     1  180.0000771  0.0000000  2
    365    363    366    367     1  0.0000000  3.3472000  1
    365    363    366    367     1  0.0000000  0.0000000  2
    365    363    366    367     1  180.0000771  0.3347200  3
    365    363    366    368     1  180.0000771  0.0000000  2
    367    366    368    369     1  0.0000000  7.9496000  1
    367    366    368    369     1  180.0000771  9.6232000  2
    372    375    378    379     1  0.0000000  0.6508444  3
    372    375    378    380     1  0.0000000  0.6508444  3
    373    372    375    378     1  0.0000000  0.6508444  3
    373    372    375    376     1  0.0000000  0.6508444  3
    373    372    375    377     1  0.0000000  0.6508444  3
    374    372    375    378     1  0.0000000  0.6508444  3
    374    372    375    376     1  0.0000000  0.6508444  3
    374    372    375    377     1  0.0000000  0.6508444  3
    375    378    381    403     1  0.0000000  0.6508444  3
    376    375    372    402     1  0.0000000  1.0460000  1
    376    375    372    402     1  0.0000000  0.0000000  3
    376    375    378    381     1  0.0000000  0.6508444  3
    376    375    378    379     1  0.0000000  0.6508444  3
    376    375    378    380     1  0.0000000  0.6508444  3
    377    375    372    402     1  0.0000000  1.0460000  1
    377    375    372    402     1  0.0000000  0.0000000  3
    377    375    378    381     1  0.0000000  0.6508444  3
    377    375    378    379     1  0.0000000  0.6508444  3
    377    375    378    380     1  0.0000000  0.6508444  3
    378    381    382    383     1  0.0000000  0.6508444  3
    378    381    382    384     1  0.0000000  0.6508444  3
    378    381    392    393     1  0.0000000  0.6508444  3
    378    381    392    394     1  0.0000000  0.6508444  3
    379    378    381    382     1  0.0000000  0.6508444  3
    379    378    381    392     1  0.0000000  0.6508444  3
    379    378    381    403     1  0.0000000  0.6508444  3
    380    378    381    382     1  0.0000000  0.6508444  3
    380    378    381    392     1  0.0000000  0.6508444  3
    380    378    381    403     1  0.0000000  0.6508444  3
    381    382    385    386     1  0.0000000  0.6508444  3
    381    382    385    387     1  0.0000000  0.6508444  3
    381    392    395    396     1  0.0000000  0.6508444  3
    381    392    395    397     1  0.0000000  0.6508444  3
    382    381    392    393     1  0.0000000  0.6508444  3
    382    381    392    394     1  0.0000000  0.6508444  3
    383    382    381    392     1  0.0000000  0.6508444  3
    383    382    381    403     1  0.0000000  0.6508444  3
    383    382    385    388     1  0.0000000  0.6508444  3
    383    382    385    386     1  0.0000000  0.6508444  3
    383    382    385    387     1  0.0000000  0.6508444  3
    384    382    381    392     1  0.0000000  0.6508444  3
    384    382    381    403     1  0.0000000  0.6508444  3
    384    382    385    388     1  0.0000000  0.6508444  3
    384    382    385    386     1  0.0000000  0.6508444  3
    384    382    385    387     1  0.0000000  0.6508444  3
    385    382    381    403     1  0.0000000  0.6508444  3
    385    388    390    391     1  180.0000771  9.6232000  2
    386    385    388    389     1  0.0000000  3.3472000  1
    386    385    388    389     1  0.0000000  0.0000000  2
    386    385    388    389     1  180.0000771  0.3347200  3
    386    385    388    390     1  180.0000771  0.0000000  2
    387    385    388    389     1  0.0000000  3.3472000  1
    387    385    388    389     1  0.0000000  0.0000000  2
    387    385    388    389     1  180.0000771  0.3347200  3
    387    385    388    390     1  180.0000771  0.0000000  2
    389    388    390    391     1  0.0000000  7.9496000  1
    389    388    390    391     1  180.0000771  9.6232000  2
    393    392    381    403     1  0.0000000  0.6508444  3
    393    392    395    398     1  0.0000000  0.6508444  3
    393    392    395    396     1  0.0000000  0.6508444  3
    393    392    395    397     1  0.0000000  0.6508444  3
    394    392    381    403     1  0.0000000  0.6508444  3
    394    392    395    398     1  0.0000000  0.6508444  3
    394    392    395    396     1  0.0000000  0.6508444  3
    394    392    395    397     1  0.0000000  0.6508444  3
    395    392    381    403     1  0.0000000  0.6508444  3
    395    398    400    401     1  180.0000771  9.6232000  2
    396    395    398    399     1  0.0000000  3.3472000  1
    396    395    398    399     1  0.0000000  0.0000000  2
    396    395    398    399     1  180.0000771  0.3347200  3
    396    395    398    400     1  180.0000771  0.0000000  2
    397    395    398    399     1  0.0000000  3.3472000  1
    397    395    398    399     1  0.0000000  0.0000000  2
    397    395    398    399     1  180.0000771  0.3347200  3
    397    395    398    400     1  180.0000771  0.0000000  2
    399    398    400    401     1  0.0000000  7.9496000  1
    399    398    400    401     1  180.0000771  9.6232000  2
    404    407    410    411     1  0.0000000  0.6508444  3
    404    407    410    412     1  0.0000000  0.6508444  3
    405    404    407    410     1  0.0000000  0.6508444  3
    405    404    407    408     1  0.0000000  0.6508444  3
    405    404    407    409     1  0.0000000  0.6508444  3
    406    404    407    410     1  0.0000000  0.6508444  3
    406    404    407    408     1  0.0000000  0.6508444  3
    406    404    407    409     1  0.0000000  0.6508444  3
    407    410    413    435     1  0.0000000  0.6508444  3
    408    407    410    413     1  0.0000000  0.6508444  3
    408    407    410    411     1  0.0000000  0.6508444  3
    408    407    410    412     1  0.0000000  0.6508444  3
    408    407    404    434     1  0.0000000  1.0460000  1
    408    407    404    434     1  0.0000000  0.0000000  3
    409    407    410    413     1  0.0000000  0.6508444  3
    409    407    410    411     1  0.0000000  0.6508444  3
    409    407    410    412     1  0.0000000  0.6508444  3
    409    407    404    434     1  0.0000000  1.0460000  1
    409    407    404    434     1  0.0000000  0.0000000  3
    410    413    414    415     1  0.0000000  0.6508444  3
    410    413    414    416     1  0.0000000  0.6508444  3
    410    413    424    425     1  0.0000000  0.6508444  3
    410    413    424    426     1  0.0000000  0.6508444  3
    411    410    413    414     1  0.0000000  0.6508444  3
    411    410    413    424     1  0.0000000  0.6508444  3
    411    410    413    435     1  0.0000000  0.6508444  3
    412    410    413    414     1  0.0000000  0.6508444  3
    412    410    413    424     1  0.0000000  0.6508444  3
    412    410    413    435     1  0.0000000  0.6508444  3
    413    414    417    418     1  0.0000000  0.6508444  3
    413    414    417    419     1  0.0000000  0.6508444  3
    413    424    427    428     1  0.0000000  0.6508444  3
    413    424    427    429     1  0.0000000  0.6508444  3
    414    413    424    425     1  0.0000000  0.6508444  3
    414    413    424    426     1  0.0000000  0.6508444  3
    415    414    417    420     1  0.0000000  0.6508444  3
    415    414    417    418     1  0.0000000  0.6508444  3
    415    414    417    419     1  0.0000000  0.6508444  3
    415    414    413    424     1  0.0000000  0.6508444  3
    415    414    413    435     1  0.0000000  0.6508444  3
    416    414    417    420     1  0.0000000  0.6508444  3
    416    414    417    418     1  0.0000000  0.6508444  3
    416    414    417    419     1  0.0000000  0.6508444  3
    416    414    413    424     1  0.0000000  0.6508444  3
    416    414    413    435     1  0.0000000  0.6508444  3
    417    420    422    423     1  180.0000771  9.6232000  2
    417    414    413    435     1  0.0000000  0.6508444  3
    418    417    420    421     1  0.0000000  3.3472000  1
    418    417    420    421     1  0.0000000  0.0000000  2
    418    417    420    421     1  180.0000771  0.3347200  3
    418    417    420    422     1  180.0000771  0.0000000  2
    419    417    420    421     1  0.0000000  3.3472000  1
    419    417    420    421     1  0.0000000  0.0000000  2
    419    417    420    421     1  180.0000771  0.3347200  3
    419    417    420    422     1  180.0000771  0.0000000  2
    421    420    422    423     1  0.0000000  7.9496000  1
    421    420    422    423     1  180.0000771  9.6232000  2
    425    424    427    430     1  0.0000000  0.6508444  3
    425    424    427    428     1  0.0000000  0.6508444  3
    425    424    427    429     1  0.0000000  0.6508444  3
    425    424    413    435     1  0.0000000  0.6508444  3
    426    424    427    430     1  0.0000000  0.6508444  3
    426    424    427    428     1  0.0000000  0.6508444  3
    426    424    427    429     1  0.0000000  0.6508444  3
    426    424    413    435     1  0.0000000  0.6508444  3
    427    430    432    433     1  180.0000771  9.6232000  2
    427    424    413    435     1  0.0000000  0.6508444  3
    428    427    430    431     1  0.0000000  3.3472000  1
    428    427    430    431     1  0.0000000  0.0000000  2
    428    427    430    431     1  180.0000771  0.3347200  3
    428    427    430    432     1  180.0000771  0.0000000  2
    429    427    430    431     1  0.0000000  3.3472000  1
    429    427    430    431     1  0.0000000  0.0000000  2
    429    427    430    431     1  180.0000771  0.3347200  3
    429    427    430    432     1  180.0000771  0.0000000  2
    431    430    432    433     1  0.0000000  7.9496000  1
    431    430    432    433     1  180.0000771  9.6232000  2

;[ system ]
;; Name
;Generic title
;
;[ molecules ]
;; Compound       #mols
;system1              1
